Protein in INSANE! Membrane UpperLeaflet>POPC=1.0 LowerLeaflet>POPC=1.0
12676
    1AU     AUC    1   2.395   4.221   6.842 -0.0616  0.0842 -0.0663
    1AU     AUC    2   2.680   4.103   6.864 -0.0165  0.0556  0.0148
    1AU     AUC    3   2.567   4.280   7.075  0.0207 -0.1114  0.0014
    1AU     AUC    4   2.232   4.134   6.620  0.0622 -0.0735 -0.0338
    1AU     AUC    5   2.134   4.331   6.820  0.1340 -0.0283 -0.0354
    1AU     AUC    6   2.355   4.423   6.642  0.0234  0.0984  0.0497
    1AU     AUC    7   2.632   4.385   6.781  0.0313 -0.0244  0.0434
    1AU     AUC    8   2.185   4.032   6.932 -0.0946  0.0080 -0.0701
    1AU     AUC    9   2.434   4.018   7.068  0.0141 -0.0964  0.0071
    1AU     AUC   10   2.256   4.265   7.116 -0.0365 -0.0399 -0.0328
    1AU     AUC   11   2.382   4.498   6.961  0.0258  0.0546  0.0386
    1AU     AUC   12   2.427   3.920   6.764 -0.1767 -0.0683 -0.0501
    1AU     AUC   13   2.529   4.169   6.587 -0.0355 -0.0828  0.0155
    1AU     AUC   14   2.947   3.982   6.858 -0.0691 -0.0069  0.0115
    1AU     AUC   15   2.863   4.181   7.072  0.1135  0.0133  0.0026
    1AU     AUC   16   2.749   4.383   7.311 -0.0694 -0.0818 -0.0719
    1AU     AUC   17   2.035   4.037   6.411  0.0116  0.0188 -0.0289
    1AU     AUC   18   1.942   4.255   6.609  0.0067 -0.0128  0.0057
    1AU     AUC   19   1.849   4.458   6.826  0.0568  0.0502 -0.0496
    1AU     AUC   20   2.321   4.651   6.458 -0.0519  0.0364 -0.0091
    1AU     AUC   21   2.576   4.612   6.577 -0.0324 -0.1168  0.0852
    1AU     AUC   22   2.856   4.596   6.714 -0.0253  0.0509  0.0715
    1AU     AUC   23   1.935   3.836   6.994 -0.0309 -0.0846  0.0299
    1AU     AUC   24   2.220   3.816   7.126 -0.0284  0.0576  0.0093
    1AU     AUC   25   2.480   3.820   7.290  0.0521 -0.0237 -0.0475
    1AU     AUC   26   2.112   4.290   7.369 -0.0739 -0.0164 -0.0105
    1AU     AUC   27   2.218   4.549   7.222 -0.0636 -0.0173 -0.1143
    1AU     AUC   28   2.346   4.769   7.073 -0.0138  0.0385  0.0242
    1AU     AUC   29   2.465   3.641   6.674  0.0109  0.0295  0.0526
    1AU     AUC   30   2.569   3.868   6.489  0.0862 -0.0161  0.0219
    1AU     AUC   31   2.678   4.096   6.326 -0.0676 -0.1627  0.1071
    1AU     AUC   32   2.443   4.348   7.357 -0.0354  0.1291  0.0429
    1AU     AUC   33   2.535   4.573   7.206 -0.0321  0.0322 -0.0392
    1AU     AUC   34   2.714   3.823   6.771 -0.0274  0.0691 -0.0606
    1AU     AUC   35   2.817   4.041   6.595 -0.0067 -0.0973  0.0814
    1AU     AUC   36   1.970   4.383   7.100  0.0162 -0.0227 -0.0345
    1AU     AUC   37   2.101   4.631   6.957  0.0247  0.0543 -0.1075
    1AU     AUC   38   2.262   3.833   6.529 -0.0704 -0.0778  0.1126
    1AU     AUC   39   2.351   4.071   6.360  0.0083 -0.0694 -0.0726
    1AU     AUC   40   2.915   4.281   6.765  0.0180  0.1330  0.1058
    1AU     AUC   41   2.796   4.469   7.025 -0.1121  0.0522 -0.0389
    1AU     AUC   42   2.160   4.351   6.413 -0.0362  0.0448  0.0804
    1AU     AUC   43   2.054   4.570   6.636  0.1113  0.0351 -0.0847
    1AU     AUC   44   2.732   3.886   7.083 -0.0160  0.0527  0.0455
    1AU     AUC   45   2.632   4.094   7.321  0.0493  0.0054  0.0127
    1AU     AUC   46   1.997   3.943   6.685  0.0141  0.0465 -0.0069
    1AU     AUC   47   1.899   4.161   6.911  0.0189 -0.1202 -0.0475
    1AU     AUC   48   2.297   4.708   6.769 -0.0334 -0.0051  0.0262
    1AU     AUC   49   2.626   4.674   6.878 -0.0280  0.0447 -0.0827
    1AU     AUC   50   2.018   4.048   7.184  0.0102 -0.0241  0.0158
    1AU     AUC   51   2.297   4.062   7.349 -0.0253 -0.0261 -0.0112
    1AU     AUC   52   2.471   4.382   6.362 -0.0399 -0.1084  0.0295
    1AU     AUC   53   2.752   4.346   6.512 -0.0650 -0.0194 -0.0872
    1AU     AUC   54   2.193   3.739   6.823  0.0566 -0.0297  0.0776
    1AU     AUC   55   2.476   3.728   6.986 -0.0022  0.0302 -0.0265
    1AU    AUSL   56   2.465   4.587   7.499  0.0500 -0.0080  0.0362
    1AU    AUSL   57   2.326   4.225   7.708 -0.0056 -0.0572  0.0400
    1AU     AUL   58   2.378   4.522   7.924 -0.0755  0.0568 -0.0568
    1AU       S   59   2.530   4.056   8.079  0.1539  0.0030 -0.3150
    1AU     LIG   60   2.156   4.027   8.314  0.1510  0.2264  0.2900
    1AU     LIG   61   1.958   3.671   8.283 -0.0009  0.1024 -0.3111
    1AU     LIG   62   1.718   3.366   8.163  0.0514  0.1665 -0.0900
    1AU     LIG   63   1.757   2.946   7.958  0.1067 -0.1147  0.0769
    1AU     LIG   64   2.072   2.778   7.605  0.0816 -0.1819  0.0294
    1AU     LIG   65   1.913   2.523   7.299 -0.0140  0.1903 -0.0444
    1AU       S   66   2.333   5.032   7.786 -0.0025  0.0558 -0.1133
    1AU     LIG   67   2.524   5.026   8.238  0.2173  0.2645  0.1561
    1AU     LIG   68   2.892   4.817   8.536  0.1464  0.1713 -0.4341
    1AU     LIG   69   3.093   4.393   8.620  0.0448  0.1693  0.1686
    1AU     LIG   70   3.357   4.138   8.425  0.1033 -0.2516 -0.0067
    1AU     LIG   71   3.602   4.096   8.028  0.0176 -0.3998  0.2329
    1AU     LIG   72   3.492   4.340   7.702 -0.0414  0.4916  0.1743
    1AU    AUSL   73   2.064   4.521   7.616 -0.0261  0.0134  0.0783
    1AU    AUSL   74   2.116   4.820   7.334  0.0411 -0.0512 -0.0232
    1AU     AUL   75   1.955   4.689   7.795  0.0618  0.0228 -0.0147
    1AU       S   76   2.281   5.014   7.751  0.5284  0.1985  0.0977
    1AU     LIG   77   2.061   5.421   7.550  0.1044  0.1985  0.0033
    1AU     LIG   78   2.050   5.913   7.497  0.1268  0.0566 -0.0991
    1AU     LIG   79   1.695   6.178   7.763  0.0299 -0.1900 -0.1346
    1AU     LIG   80   1.429   6.496   7.613 -0.1841  0.4500  0.1960
    1AU     LIG   81   1.249   6.865   7.480  0.0775  0.0264 -0.0390
    1AU     LIG   82   1.178   6.860   7.071  0.0117  0.0536  0.0666
    1AU       S   83   1.737   5.004   7.534 -0.3606 -0.1703 -0.4613
    1AU     LIG   84   1.620   5.250   7.853 -0.1691  0.0686  0.2182
    1AU     LIG   85   1.343   5.634   7.818  0.0134 -0.0753 -0.1839
    1AU     LIG   86   1.140   6.015   7.624  0.2053  0.0409 -0.0994
    1AU     LIG   87   0.964   6.354   7.353 -0.1553  0.3179 -0.3536
    1AU     LIG   88   0.730   6.504   6.994 -0.0354  0.0462 -0.0991
    1AU     LIG   89   0.681   6.937   6.816  0.3755 -0.2230 -0.0712
    1AU    AUSL   90   2.509   4.969   7.335  0.1090 -0.0309  0.0267
    1AU    AUSL   91   2.853   4.639   7.381  0.0430 -0.0611 -0.1011
    1AU     AUL   92   2.657   4.765   7.645  0.0296 -0.0190  0.0279
    1AU       S   93   2.462   5.154   7.459  0.0104  0.2026 -0.1362
    1AU     LIG   94   2.376   5.463   7.142 -0.2112  0.1700  0.1197
    1AU     LIG   95   2.184   5.854   6.992 -0.0817  0.0221  0.2363
    1AU     LIG   96   2.221   6.228   6.905  0.1617  0.2087  0.0924
    1AU     LIG   97   2.081   6.633   6.964  0.0641 -0.2547 -0.0652
    1AU     LIG   98   1.875   7.024   6.886 -0.4253 -0.0978  0.2570
    1AU     LIG   99   1.925   7.315   6.556 -0.4548  0.2194 -0.4242
    1AU       S  100   3.092   4.692   7.566 -0.2107  0.2395  0.4638
    1AU     LIG  101   3.461   4.847   7.469  0.1068 -0.2511 -0.2818
    1AU     LIG  102   3.877   5.134   7.498 -0.0924  0.1121 -0.1109
    1AU     LIG  103   4.324   5.424   7.552 -0.0828  0.0997  0.1967
    1AU     LIG  104   4.572   5.649   7.348 -0.3440 -0.3881 -0.0554
    1AU     LIG  105   4.924   5.792   7.138  0.3544  0.0278  0.1067
    1AU     LIG  106   5.190   5.657   6.765 -0.2960  0.0892 -0.1634
    1AU    AUSL  107   3.053   3.819   6.620  0.0284 -0.0205 -0.0060
    1AU    AUSL  108   3.034   4.110   6.283  0.0259 -0.0209 -0.0505
    1AU     AUL  109   3.284   3.814   6.273  0.1328 -0.1441  0.0472
    1AU       S  110   3.218   3.349   6.381  0.0906  0.0923 -0.2153
    1AU     LIG  111   3.598   3.258   6.647  0.4616  0.0223 -0.0161
    1AU     LIG  112   3.938   3.119   6.859 -0.0619 -0.3115 -0.0018
    1AU     LIG  113   4.123   2.902   7.195  0.2480  0.4292 -0.0275
    1AU     LIG  114   4.501   2.684   7.184 -0.0348  0.1905  0.1393
    1AU     LIG  115   4.862   2.813   7.076  0.3831  0.0682 -0.1927
    1AU     LIG  116   5.239   2.706   6.994 -0.2490  0.1928 -0.2460
    1AU       S  117   3.548   4.188   6.301  0.1810 -0.1726  0.1223
    1AU     LIG  118   3.764   3.820   6.298 -0.3938 -0.0185  0.2513
    1AU     LIG  119   4.118   3.690   6.527  0.1969  0.1954  0.2983
    1AU     LIG  120   4.422   3.509   6.593  0.0687 -0.0929 -0.1543
    1AU     LIG  121   4.817   3.416   6.808 -0.3878  0.0835 -0.2571
    1AU     LIG  122   5.273   3.371   6.739 -0.2836 -0.0415  0.0646
    1AU     LIG  123   5.476   3.635   6.329 -0.0722  0.0542 -0.0402
    1AU    AUSL  124   2.799   3.490   6.559  0.0137 -0.0424 -0.0580
    1AU    AUSL  125   3.008   3.619   6.961 -0.0595  0.0168  0.0119
    1AU     AUL  126   3.224   3.616   6.734  0.0991 -0.0424  0.0070
    1AU       S  127   3.072   3.259   6.999  0.1507 -0.1319  0.1236
    1AU     LIG  128   3.204   2.852   6.780  0.2150 -0.2033  0.0722
    1AU     LIG  129   3.588   2.742   6.915 -0.2969 -0.0397 -0.1367
    1AU     LIG  130   3.857   2.501   7.024  0.0007 -0.0175  0.0569
    1AU     LIG  131   4.116   2.265   7.209 -0.2132 -0.1084 -0.3037
    1AU     LIG  132   4.426   2.041   7.156 -0.1847 -0.3214 -0.0041
    1AU     LIG  133   4.639   1.610   6.858 -0.1239 -0.1980  0.1783
    1AU       S  134   3.004   3.208   6.496  0.3191  0.0235 -0.0319
    1AU     LIG  135   2.964   2.809   6.328  0.0081 -0.2077 -0.0707
    1AU     LIG  136   3.023   2.393   6.517  0.1985 -0.1380 -0.3104
    1AU     LIG  137   3.323   2.208   6.844  0.0570  0.0842 -0.0311
    1AU     LIG  138   3.369   1.728   6.911 -0.0080  0.1619  0.4320
    1AU     LIG  139   3.588   1.437   6.827 -0.4449 -0.0101 -0.0705
    1AU     LIG  140   3.575   0.954   6.811 -0.0932 -0.2828 -0.0185
    1AU    AUSL  141   2.717   3.901   6.419  0.0072 -0.0340  0.0190
    1AU    AUSL  142   2.502   3.561   6.299  0.0213 -0.0124 -0.0325
    1AU     AUL  143   2.885   3.625   6.214 -0.0181  0.0467  0.0200
    1AU       S  144   2.574   3.396   5.989 -0.0245  0.2602  0.0880
    1AU     LIG  145   2.928   3.196   5.977 -0.0913 -0.3977  0.3507
    1AU     LIG  146   3.283   3.071   6.036  0.0126  0.0237 -0.1310
    1AU     LIG  147   3.550   2.889   6.353  0.4321  0.0754 -0.0493
    1AU     LIG  148   3.614   2.519   6.500  0.2897  0.0759 -0.0253
    1AU     LIG  149   3.709   2.059   6.509  0.5354 -0.1827  0.1681
    1AU     LIG  150   4.103   1.783   6.618  0.3398  0.0349 -0.3568
    1AU       S  151   2.845   3.283   6.496 -0.0558  0.3756  0.4187
    1AU     LIG  152   2.474   3.082   6.384  0.0896 -0.5583 -0.1942
    1AU     LIG  153   2.042   2.811   6.588 -0.3018  0.1775 -0.0579
    1AU     LIG  154   1.907   2.392   6.699 -0.0511 -0.2867 -0.0989
    1AU     LIG  155   1.663   1.988   6.812  0.3036 -0.1093 -0.0583
    1AU     LIG  156   1.528   1.638   6.940  0.3426 -0.0030  0.0096
    1AU     LIG  157   1.451   1.235   7.220 -0.0471  0.0923 -0.2653
    1AU    AUSL  158   1.786   4.710   7.094  0.0232  0.0320 -0.0051
    1AU    AUSL  159   2.095   4.984   6.959 -0.0585 -0.0165  0.0651
    1AU     AUL  160   2.041   5.101   7.226 -0.0511 -0.0300  0.0093
    1AU       S  161   1.633   4.984   7.369  0.2585 -0.1528 -0.1883
    1AU     LIG  162   1.502   5.391   7.394 -0.0639  0.1350  0.2299
    1AU     LIG  163   1.208   5.674   7.201  0.2512 -0.0212  0.0313
    1AU     LIG  164   0.851   5.948   7.041 -0.0504  0.1334 -0.0069
    1AU     LIG  165   0.406   6.003   7.016 -0.1021 -0.1667 -0.0522
    1AU     LIG  166   0.105   6.247   7.043  0.1010  0.0337 -0.2070
    1AU     LIG  167  -0.196   6.513   6.857 -0.0810 -0.0014  0.0408
    1AU       S  168   1.664   5.173   6.935 -0.1656 -0.0781 -0.2540
    1AU     LIG  169   1.466   5.494   6.789 -0.0349 -0.1557  0.0793
    1AU     LIG  170   0.950   5.460   6.854  0.0744  0.0902  0.0680
    1AU     LIG  171   0.797   5.382   7.300  0.0346 -0.1393  0.1068
    1AU     LIG  172   0.622   5.058   7.511 -0.3610 -0.3351 -0.1550
    1AU     LIG  173   0.779   4.662   7.777 -0.0426  0.1044  0.0644
    1AU     LIG  174   0.829   4.205   7.660  0.3727  0.5298 -0.0332
    1AU    AUSL  175   2.062   4.426   7.230  0.0483  0.0871  0.0068
    1AU    AUSL  176   1.571   4.369   7.015  0.0182 -0.0297  0.0190
    1AU     AUL  177   1.536   4.626   7.105 -0.0838 -0.0303  0.0398
    1AU       S  178   1.189   4.324   7.223  0.2454  0.0852  0.3330
    1AU     LIG  179   0.923   4.008   6.916  0.2176 -0.1563 -0.2390
    1AU     LIG  180   0.454   3.903   6.896  0.4051  0.0865  0.0138
    1AU     LIG  181   0.005   3.838   6.912 -0.0064  0.0052  0.0845
    1AU     LIG  182  -0.137   3.967   6.587  0.2463  0.0902  0.3269
    1AU     LIG  183  -0.417   3.955   6.287  0.2627 -0.1299  0.1019
    1AU     LIG  184  -0.765   4.273   6.011  0.2473 -0.3301  0.3139
    1AU       S  185   1.604   4.759   7.525  0.1817 -0.2480  0.2201
    1AU     LIG  186   1.167   4.742   7.445 -0.1813  0.1422 -0.1375
    1AU     LIG  187   0.720   4.589   7.263  0.1433 -0.2793  0.1649
    1AU     LIG  188   0.604   4.395   6.848  0.1027  0.0450  0.3967
    1AU     LIG  189   0.228   4.268   6.591  0.1600 -0.2176 -0.0207
    1AU     LIG  190  -0.040   4.526   6.419  0.2376  0.2768 -0.3380
    1AU     LIG  191  -0.467   4.543   6.260 -0.1934  0.2382  0.3624
    1AU    AUSL  192   2.223   3.852   6.286  0.1410 -0.0376  0.0469
    1AU    AUSL  193   2.217   3.505   6.577  0.0412  0.0296 -0.0851
    1AU     AUL  194   2.139   3.461   6.188 -0.0012  0.0470 -0.0207
    1AU       S  195   2.410   3.541   5.812 -0.3387  0.1955 -0.0923
    1AU     LIG  196   2.190   3.177   5.807 -0.2993 -0.5690 -0.1219
    1AU     LIG  197   1.976   2.886   6.056 -0.1649  0.2595 -0.2140
    1AU     LIG  198   2.269   2.553   6.206 -0.1453 -0.1661  0.1447
    1AU     LIG  199   2.676   2.421   6.150  0.1301  0.0991 -0.0293
    1AU     LIG  200   3.178   2.397   6.021  0.0873  0.1747  0.0436
    1AU     LIG  201   3.344   2.611   5.643  0.0053  0.1817  0.0236
    1AU       S  202   1.796   3.258   6.439 -0.0872  0.1545 -0.4257
    1AU     LIG  203   1.607   2.946   6.434  0.1046 -0.0792 -0.0403
    1AU     LIG  204   1.684   2.532   6.283 -0.2703  0.0997 -0.0847
    1AU     LIG  205   1.870   2.303   5.984  0.1414  0.5188  0.1178
    1AU     LIG  206   2.232   2.044   6.012  0.1889 -0.1963  0.0434
    1AU     LIG  207   2.667   1.836   6.183 -0.0949 -0.0547  0.2536
    1AU     LIG  208   2.788   1.469   6.031  0.5765  0.2814  0.2745
    1AU    AUSL  209   2.578   3.901   6.043 -0.0182 -0.0242 -0.0235
    1AU    AUSL  210   2.060   4.145   6.050 -0.0986  0.0651 -0.0079
    1AU     AUL  211   2.140   3.857   5.973  0.0967 -0.0374  0.0760
    1AU       S  212   2.164   4.218   5.725  0.0707 -0.1482  0.5902
    1AU     LIG  213   1.705   4.081   5.710 -0.1658  0.0426 -0.2454
    1AU     LIG  214   1.335   3.988   5.900  0.0821 -0.0162  0.0195
    1AU     LIG  215   1.036   3.774   6.103 -0.1314 -0.4429 -0.2539
    1AU     LIG  216   0.791   3.586   6.247  0.2237 -0.2111  0.2777
    1AU     LIG  217   0.595   3.235   6.231 -0.0413  0.2533 -0.3257
    1AU     LIG  218   0.461   2.950   5.941 -0.1051  0.4221  0.0519
    1AU       S  219   2.525   3.646   5.897 -0.1927  0.1453  0.1093
    1AU     LIG  220   2.997   3.725   5.766 -0.1719  0.3514  0.0698
    1AU     LIG  221   3.371   3.511   5.861  0.0847  0.2023 -0.0839
    1AU     LIG  222   3.804   3.381   6.040  0.0395  0.4562  0.2562
    1AU     LIG  223   4.064   3.084   6.316 -0.1067 -0.5254 -0.1551
    1AU     LIG  224   4.068   2.703   6.508 -0.1643 -0.0428 -0.0035
    1AU     LIG  225   4.107   2.294   6.678 -0.3386  0.5150  0.0804
    1AU    AUSL  226   3.192   4.583   6.792  0.0449  0.0392 -0.0184
    1AU    AUSL  227   3.213   4.190   6.645 -0.0336  0.0600 -0.0262
    1AU     AUL  228   3.408   4.634   6.519 -0.1222  0.0100  0.0430
    1AU       S  229   3.498   4.043   6.613 -0.0990  0.2082  0.1417
    1AU     LIG  230   3.634   3.759   6.847  0.2039 -0.0251 -0.1599
    1AU     LIG  231   3.542   3.488   7.096 -0.3448 -0.2259 -0.3146
    1AU     LIG  232   3.649   3.161   7.282  0.0137  0.2583 -0.0466
    1AU     LIG  233   3.722   2.830   7.513  0.0957  0.1347  0.0964
    1AU     LIG  234   3.775   2.357   7.607 -0.1453  0.0280 -0.0254
    1AU     LIG  235   3.540   2.008   7.769  0.2443 -0.0410 -0.0141
    1AU       S  236   3.557   4.473   6.962  0.0521  0.0500  0.1942
    1AU     LIG  237   3.595   4.841   7.001 -0.1846  0.1768 -0.0382
    1AU     LIG  238   3.970   5.077   7.050 -0.0980  0.2011  0.2582
    1AU     LIG  239   4.408   5.040   7.176  0.2442 -0.1938 -0.0053
    1AU     LIG  240   4.719   4.785   7.374 -0.1056  0.1500  0.2095
    1AU     LIG  241   5.002   4.477   7.282  0.1944  0.2592  0.0740
    1AU     LIG  242   5.272   4.458   6.974 -0.1658 -0.4591 -0.1682
    1AU    AUSL  243   3.225   4.034   7.012  0.0194  0.0001 -0.1338
    1AU    AUSL  244   3.071   4.161   7.404 -0.0245 -0.0270 -0.0321
    1AU     AUL  245   3.432   3.945   7.339  0.0519 -0.0457  0.0354
    1AU       S  246   3.450   4.274   7.039 -0.1492  0.3373  0.3528
    1AU     LIG  247   3.847   4.091   7.166  0.2195 -0.3275  0.1109
    1AU     LIG  248   4.117   3.747   7.129 -0.1702 -0.0356  0.0298
    1AU     LIG  249   4.406   3.402   7.069 -0.0849  0.4712  0.2344
    1AU     LIG  250   4.418   3.011   6.737 -0.0752 -0.1666  0.1036
    1AU     LIG  251   4.575   2.622   6.610  0.1344  0.0860 -0.1422
    1AU     LIG  252   4.870   2.279   6.899  0.0637 -0.0931 -0.0256
    1AU       S  253   3.237   3.817   7.749 -0.0960 -0.2278  0.2319
    1AU     LIG  254   3.570   3.551   7.573 -0.0931 -0.3330 -0.0075
    1AU     LIG  255   3.951   3.331   7.620 -0.1347 -0.0619 -0.4900
    1AU     LIG  256   4.298   3.230   7.559  0.0937 -0.0845 -0.2839
    1AU     LIG  257   4.731   3.187   7.324  0.3619  0.3419 -0.1827
    1AU     LIG  258   5.090   3.266   7.201  0.1891 -0.4904 -0.0906
    1AU     LIG  259   5.495   3.104   7.068  0.2215  0.1581 -0.0866
    1AU    AUSL  260   2.986   4.392   7.082  0.0549  0.0672 -0.0686
    1AU    AUSL  261   2.937   4.817   7.003  0.0151 -0.0890  0.0005
    1AU     AUL  262   3.151   4.704   7.086  0.0351  0.0087  0.0231
    1AU       S  263   3.008   4.940   7.429  0.4477 -0.1352 -0.3549
    1AU     LIG  264   3.381   5.275   7.269  0.3195  0.0759 -0.2372
    1AU     LIG  265   3.249   5.484   6.998 -0.2108  0.0877  0.1760
    1AU     LIG  266   3.495   5.783   6.750 -0.0379  0.3686 -0.2942
    1AU     LIG  267   3.702   6.163   6.777 -0.0799 -0.4908 -0.0561
    1AU     LIG  268   3.937   6.243   7.169 -0.2675  0.1865  0.0035
    1AU     LIG  269   4.239   6.380   7.393 -0.2803 -0.1665  0.0390
    1AU       S  270   3.451   4.406   7.200 -0.0460  0.3518 -0.1929
    1AU     LIG  271   3.838   4.528   7.434  0.2953  0.2412  0.0679
    1AU     LIG  272   4.219   4.737   7.567  0.1590  0.0554  0.0081
    1AU     LIG  273   4.207   5.025   7.878  0.0645 -0.2911  0.1743
    1AU     LIG  274   4.119   5.371   8.027 -0.0851 -0.0645  0.0022
    1AU     LIG  275   3.676   5.523   8.220 -0.0374 -0.3202 -0.0408
    1AU     LIG  276   3.237   5.648   8.109  0.1431  0.3304 -0.1132
    1AU    AUSL  277   2.005   4.757   6.308 -0.0274  0.0745  0.1008
    1AU    AUSL  278   1.813   4.771   6.690  0.0428 -0.0275 -0.0398
    1AU     AUL  279   1.953   5.075   6.415 -0.0409 -0.0396 -0.0152
    1AU       S  280   1.616   4.973   6.729  0.7648  0.1061 -0.3937
    1AU     LIG  281   1.141   5.012   6.557  0.0432  0.3526  0.2692
    1AU     LIG  282   0.744   4.957   6.860  0.0793  0.1914  0.0738
    1AU     LIG  283   0.316   4.965   6.723  0.0587 -0.0865  0.0336
    1AU     LIG  284  -0.056   4.752   6.863  0.1182  0.6793  0.2416
    1AU     LIG  285  -0.376   4.452   6.829 -0.0838 -0.0494  0.1208
    1AU     LIG  286  -0.708   4.267   6.574  0.0499  0.0400 -0.2666
    1AU       S  287   1.561   4.898   6.248 -0.1980  0.1312  0.0693
    1AU     LIG  288   1.539   5.219   6.329  0.0746  0.1667  0.1620
    1AU     LIG  289   1.215   5.322   6.240  0.0776  0.0453  0.0333
    1AU     LIG  290   0.848   5.591   6.284  0.0739  0.3331  0.0595
    1AU     LIG  291   0.684   5.779   6.607  0.2230 -0.2545  0.1338
    1AU     LIG  292   0.336   6.174   6.572  0.1606  0.1165 -0.0356
    1AU     LIG  293   0.205   6.593   6.600 -0.2543 -0.2069  0.2670
    1AU    AUSL  294   1.983   4.365   6.372  0.1239 -0.0291 -0.0404
    1AU    AUSL  295   2.251   4.532   6.069  0.0314  0.0422  0.0218
    1AU     AUL  296   1.926   4.503   6.039  0.0022 -0.0458 -0.0063
    1AU       S  297   1.573   4.742   6.168  0.3599 -0.1697  0.2024
    1AU     LIG  298   1.082   4.868   6.084 -0.0589  0.1509  0.3198
    1AU     LIG  299   0.685   5.047   6.182  0.4694  0.0700 -0.1530
    1AU     LIG  300   0.467   5.316   6.407 -0.1468  0.1887 -0.0204
    1AU     LIG  301   0.409   5.434   6.802 -0.1477  0.0792 -0.6193
    1AU     LIG  302   0.205   5.217   7.118  0.2950  0.2299  0.2023
    1AU     LIG  303   0.136   5.097   7.566  0.0001 -0.0252 -0.2051
    1AU       S  304   2.210   4.523   5.640 -0.0991 -0.0988 -0.1403
    1AU     LIG  305   2.121   4.955   5.843  0.0357 -0.0568  0.4024
    1AU     LIG  306   1.859   5.236   5.924  0.2993 -0.2521  0.1376
    1AU     LIG  307   1.585   5.519   5.927  0.0336  0.2884 -0.4391
    1AU     LIG  308   1.221   5.736   5.764 -0.2939  0.3861 -0.2880
    1AU     LIG  309   0.850   5.572   5.742 -0.1631  0.0542  0.0464
    1AU     LIG  310   0.545   5.613   5.324 -0.1154 -0.1397 -0.3290
    1AU    AUSL  311   1.630   4.462   6.543  0.0792 -0.0518 -0.0935
    1AU    AUSL  312   1.720   4.068   6.394 -0.1084 -0.1197 -0.1083
    1AU     AUL  313   1.593   4.260   6.188 -0.0128  0.0515 -0.0165
    1AU       S  314   1.291   4.000   6.456 -0.1934 -0.5243 -0.0427
    1AU     LIG  315   0.767   4.047   6.476  0.0685 -0.3414  0.1185
    1AU     LIG  316   0.420   3.977   6.221  0.1449 -0.1989  0.2787
    1AU     LIG  317  -0.003   3.694   6.191 -0.3998 -0.4493  0.3512
    1AU     LIG  318  -0.266   3.534   6.588  0.2967  0.2331  0.1188
    1AU     LIG  319  -0.537   3.331   6.828  0.1766 -0.1852  0.0708
    1AU     LIG  320  -0.910   3.109   6.959  0.2999 -0.3792  0.1339
    1AU       S  321   1.408   4.622   6.453  0.2455 -0.0347 -0.2689
    1AU     LIG  322   0.870   4.614   6.464  0.0889  0.0976  0.0350
    1AU     LIG  323   0.440   4.596   6.323 -0.1749 -0.2187  0.4188
    1AU     LIG  324   0.138   4.967   6.244 -0.1910  0.0809  0.0086
    1AU     LIG  325  -0.233   4.985   6.491 -0.3267 -0.1934  0.0325
    1AU     LIG  326  -0.497   5.152   6.785  0.0031  0.1817  0.1391
    1AU     LIG  327  -0.894   5.384   6.866 -0.0808  0.0359  0.0945
    1AU    AUSL  328   2.813   3.839   7.514 -0.0099  0.0687 -0.0028
    1AU    AUSL  329   2.718   4.275   7.580  0.0218  0.0765 -0.0266
    1AU     AUL  330   2.999   4.215   7.706 -0.0984  0.0913 -0.0159
    1AU       S  331   2.974   3.729   7.750  0.7585  0.2211 -0.2193
    1AU     LIG  332   2.626   3.342   7.638  0.0686 -0.0729 -0.3667
    1AU     LIG  333   2.529   3.034   7.566  0.1211  0.2332  0.1787
    1AU     LIG  334   2.745   2.701   7.489  0.1163  0.2995 -0.3072
    1AU     LIG  335   2.908   2.442   7.095  0.0965 -0.0405  0.0486
    1AU     LIG  336   2.856   2.028   6.822  0.2468 -0.2898 -0.0466
    1AU     LIG  337   2.825   1.594   6.955 -0.3691 -0.0683 -0.0040
    1AU       S  338   2.602   4.134   7.891 -0.1204  0.2215 -0.0870
    1AU     LIG  339   2.861   4.515   8.086 -0.1039 -0.1463  0.6041
    1AU     LIG  340   2.944   4.944   7.992  0.1284  0.3166  0.0570
    1AU     LIG  341   3.236   5.218   7.778  0.1304 -0.1512 -0.1522
    1AU     LIG  342   3.551   5.518   7.693 -0.1487  0.0143 -0.2282
    1AU     LIG  343   3.927   5.699   7.633 -0.2922  0.0923  0.0487
    1AU     LIG  344   4.309   5.902   7.802 -0.1355  0.1965  0.2582
    1AU    AUSL  345   2.848   3.957   7.121 -0.0517  0.0349 -0.0149
    1AU    AUSL  346   2.705   3.554   7.237 -0.1235  0.0277  0.0073
    1AU     AUL  347   3.083   3.615   7.284  0.0472 -0.0215 -0.0238
    1AU       S  348   2.921   3.763   7.653  0.3842 -0.1411 -0.2305
    1AU     LIG  349   3.213   3.280   7.626  0.0453 -0.2405 -0.2572
    1AU     LIG  350   3.618   3.076   7.911 -0.3023  0.1595  0.0706
    1AU     LIG  351   4.067   3.088   8.015 -0.0375  0.1355 -0.3168
    1AU     LIG  352   4.506   3.050   8.016 -0.0014  0.5595 -0.5769
    1AU     LIG  353   4.800   3.261   7.825  0.3049  0.0832  0.0502
    1AU     LIG  354   4.991   3.592   7.611 -0.1166  0.3905  0.2891
    1AU       S  355   2.922   3.195   7.214  0.3469  0.6090  0.3433
    1AU     LIG  356   3.224   2.878   7.298  0.0926  0.3564 -0.0085
    1AU     LIG  357   3.416   2.464   7.335 -0.2951 -0.2877  0.4152
    1AU     LIG  358   3.545   2.062   7.287  0.1313  0.1197 -0.0043
    1AU     LIG  359   3.834   1.851   7.005 -0.1709  0.2382 -0.2928
    1AU     LIG  360   3.966   1.449   7.176  0.3251  0.0301 -0.1412
    1AU     LIG  361   3.808   1.112   7.273  0.0700 -0.2187 -0.1087
    1AU    AUSL  362   1.630   3.839   6.761  0.0512  0.0282 -0.0265
    1AU    AUSL  363   1.875   3.698   6.439  0.0646  0.0484 -0.0804
    1AU     AUL  364   1.655   3.785   6.270  0.1076  0.0408  0.0604
    1AU       S  365   1.757   3.407   6.551  0.2696 -0.1958 -0.1075
    1AU     LIG  366   1.285   3.331   6.288 -0.2151 -0.0066  0.0113
    1AU     LIG  367   0.996   3.091   6.473  0.0829 -0.2472 -0.1347
    1AU     LIG  368   0.954   2.780   6.769  0.1148 -0.2608 -0.1578
    1AU     LIG  369   0.696   2.474   6.950  0.2574  0.0686  0.1189
    1AU     LIG  370   0.342   2.258   6.918 -0.2702 -0.0723 -0.0497
    1AU     LIG  371   0.056   1.893   6.855 -0.0069  0.1001 -0.1575
    1AU       S  372   1.342   3.899   6.541 -0.2005  0.3695 -0.0719
    1AU     LIG  373   1.160   3.615   6.740 -0.0158  0.3235  0.0820
    1AU     LIG  374   0.717   3.462   6.724  0.1396 -0.2819 -0.0169
    1AU     LIG  375   0.308   3.536   6.585 -0.3019  0.0725 -0.2035
    1AU     LIG  376   0.099   3.245   6.737  0.0368 -0.3503  0.0128
    1AU     LIG  377  -0.300   3.022   6.528 -0.2918 -0.2529 -0.1700
    1AU     LIG  378  -0.548   2.837   6.527 -0.1780  0.0462 -0.0934
    1AU    AUSL  379   1.826   4.200   6.772 -0.0222  0.0210  0.0656
    1AU    AUSL  380   1.743   3.997   7.146 -0.0879  0.0438 -0.0430
    1AU     AUL  381   1.464   4.057   6.935  0.0067  0.0238  0.0522
    1AU       S  382   1.298   4.108   7.372  0.0411  0.1889 -0.5513
    1AU     LIG  383   1.325   3.764   7.725  0.0785  0.0444 -0.5011
    1AU     LIG  384   1.270   3.382   7.857 -0.0252  0.0034 -0.1378
    1AU     LIG  385   1.178   2.919   7.910  0.0083 -0.0073  0.1402
    1AU     LIG  386   1.413   2.651   7.672 -0.0135  0.0902 -0.1507
    1AU     LIG  387   1.413   2.281   7.416  0.0560 -0.3508 -0.0862
    1AU     LIG  388   1.214   2.095   7.086  0.1569 -0.3571  0.1534
    1AU       S  389   1.311   4.151   6.535 -0.1425  0.2663  0.2632
    1AU     LIG  390   1.132   4.349   6.144  0.0527  0.0734  0.0215
    1AU     LIG  391   0.829   4.399   5.977  0.3115  0.0052 -0.3004
    1AU     LIG  392   0.511   4.768   5.834  0.1037  0.2540 -0.2492
    1AU     LIG  393   0.387   5.192   5.613 -0.1566 -0.2879 -0.2145
    1AU     LIG  394   0.330   5.627   5.820 -0.1467  0.1316 -0.1907
    1AU     LIG  395   0.139   5.848   6.184 -0.0403 -0.1473  0.2492
    1AU    AUSL  396   2.491   5.060   6.877  0.0853  0.1626 -0.0735
    1AU    AUSL  397   2.226   4.751   6.652  0.0590 -0.0360  0.0312
    1AU     AUL  398   2.235   5.213   6.764  0.0223 -0.0526 -0.1451
    1AU       S  399   1.816   5.185   6.840  0.2391 -0.3493  0.2244
    1AU     LIG  400   1.791   5.630   7.095 -0.1316 -0.1158 -0.2245
    1AU     LIG  401   1.618   6.006   7.208  0.2658  0.1379 -0.0202
    1AU     LIG  402   1.277   6.180   7.040  0.0048  0.1626 -0.0459
    1AU     LIG  403   1.137   5.958   6.635  0.3504 -0.2319 -0.1358
    1AU     LIG  404   1.102   6.105   6.288 -0.2677 -0.0853  0.1067
    1AU     LIG  405   0.608   5.961   6.121 -0.5558  0.1307  0.3959
    1AU       S  406   2.671   5.377   6.614 -0.2247  0.2461  0.4014
    1AU     LIG  407   2.758   5.728   6.935  0.0872 -0.0342 -0.2739
    1AU     LIG  408   3.069   5.923   7.183  0.2765 -0.3255  0.1043
    1AU     LIG  409   3.463   5.951   7.237  0.2250 -0.1465  0.0237
    1AU     LIG  410   3.723   5.613   7.188 -0.1163 -0.0467  0.3762
    1AU     LIG  411   4.032   5.794   6.958  0.0565 -0.0491 -0.3536
    1AU     LIG  412   3.908   5.852   6.509 -0.0136  0.0475  0.1545
    1AU    AUSL  413   2.426   4.988   6.403  0.0259  0.0631 -0.0221
    1AU    AUSL  414   2.942   4.683   6.326 -0.0050 -0.0820  0.0991
    1AU     AUL  415   2.673   4.985   6.135 -0.0311 -0.0203 -0.1202
    1AU       S  416   2.542   5.341   6.414 -0.4769 -0.2546 -0.3291
    1AU     LIG  417   2.166   5.517   6.294  0.0303  0.0087  0.0876
    1AU     LIG  418   1.930   5.565   6.508  0.0120 -0.0867  0.0310
    1AU     LIG  419   1.823   5.950   6.673 -0.1832 -0.1719 -0.2699
    1AU     LIG  420   1.703   6.331   6.830  0.1207 -0.0995 -0.0805
    1AU     LIG  421   1.576   6.524   7.153  0.1968 -0.0056  0.0221
    1AU     LIG  422   1.708   6.869   7.289 -0.1748 -0.1894  0.0121
    1AU       S  423   3.123   4.838   6.139 -0.0719 -0.1485  0.1152
    1AU     LIG  424   3.155   5.300   6.182 -0.2341 -0.0643  0.2851
    1AU     LIG  425   3.130   5.609   6.485 -0.1035 -0.1258  0.4143
    1AU     LIG  426   3.017   6.082   6.560  0.0303 -0.1630 -0.4789
    1AU     LIG  427   2.807   6.271   6.934 -0.2213  0.2320  0.2318
    1AU     LIG  428   3.186   6.463   7.003  0.3029  0.1975 -0.0637
    1AU     LIG  429   3.577   6.536   7.294  0.1819 -0.0537 -0.5167
    1AU    AUSL  430   2.733   4.830   6.646 -0.0138 -0.0060 -0.0446
    1AU    AUSL  431   2.564   4.693   7.059 -0.0646 -0.0211  0.0386
    1AU     AUL  432   2.800   5.088   6.991  0.0579 -0.0778  0.0011
    1AU       S  433   2.982   5.023   7.390 -0.0235 -0.1346 -0.2220
    1AU     LIG  434   2.864   5.413   7.337 -0.1834 -0.0827 -0.4789
    1AU     LIG  435   2.667   5.711   7.514  0.0467 -0.1067  0.4181
    1AU     LIG  436   2.569   6.070   7.314 -0.2210  0.1592 -0.0796
    1AU     LIG  437   2.413   6.493   7.349 -0.0649 -0.0483  0.1129
    1AU     LIG  438   2.213   6.952   7.346 -0.3631  0.0425 -0.1888
    1AU     LIG  439   2.366   7.146   6.885 -0.3937  0.0494 -0.4697
    1AU       S  440   2.852   5.172   6.520 -0.0986  0.4129 -0.4523
    1AU     LIG  441   3.153   5.138   6.642 -0.1846  0.1045  0.0773
    1AU     LIG  442   3.616   5.286   6.761 -0.2248  0.1543  0.2960
    1AU     LIG  443   3.998   5.359   6.594 -0.0329  0.0578  0.0266
    1AU     LIG  444   4.340   5.089   6.645  0.1769 -0.2992 -0.2700
    1AU     LIG  445   4.504   4.880   6.375  0.1127 -0.2652  0.1685
    1AU     LIG  446   4.278   4.514   6.352  0.0002 -0.0706 -0.0205
    1AU    AUSL  447   2.042   4.043   7.480 -0.0386 -0.0083  0.0034
    1AU    AUSL  448   2.467   4.004   7.396  0.0529  0.0072  0.0259
    1AU     AUL  449   2.124   4.079   7.804 -0.0608  0.0000  0.0556
    1AU       S  450   1.822   3.750   7.839 -0.0229  0.2752 -0.1313
    1AU     LIG  451   1.656   4.214   7.887  0.1208 -0.0183 -0.3575
    1AU     LIG  452   1.492   4.653   8.035  0.0625  0.4344  0.0097
    1AU     LIG  453   1.195   4.917   7.945  0.3566 -0.1446  0.1201
    1AU     LIG  454   1.119   5.228   7.606  0.0101  0.4181  0.1317
    1AU     LIG  455   1.182   5.096   7.111 -0.1768 -0.1768 -0.1112
    1AU     LIG  456   1.128   4.649   6.868 -0.0259 -0.5918 -0.0974
    1AU       S  457   2.514   3.834   7.895  0.2333 -0.1141 -0.0696
    1AU     LIG  458   2.755   3.522   8.230 -0.0892  0.1133  0.0069
    1AU     LIG  459   2.759   3.106   8.030 -0.2032  0.4267 -0.1176
    1AU     LIG  460   3.017   2.758   7.867  0.2426  0.1515 -0.0380
    1AU     LIG  461   3.477   2.587   7.875  0.3684 -0.1439 -0.0100
    1AU     LIG  462   3.973   2.648   7.960 -0.0153 -0.0444  0.0302
    1AU     LIG  463   4.285   2.699   7.633 -0.0117 -0.0851  0.2125
    1AU    AUSL  464   1.916   3.685   7.309  0.0153  0.0764  0.0599
    1AU    AUSL  465   1.736   4.314   7.428 -0.0295 -0.1185 -0.0663
    1AU     AUL  466   1.691   3.941   7.461  0.0499  0.0458 -0.0559
    1AU       S  467   1.810   3.485   7.714  0.0620 -0.5163 -0.3841
    1AU     LIG  468   1.671   3.196   7.500 -0.1616 -0.1590 -0.2540
    1AU     LIG  469   1.256   3.081   7.397 -0.0245 -0.0520 -0.3280
    1AU     LIG  470   0.854   3.149   7.626  0.1549  0.1124 -0.0102
    1AU     LIG  471   0.776   3.473   7.864 -0.0592 -0.1688 -0.2398
    1AU     LIG  472   0.500   3.819   7.878  0.1499  0.3356 -0.0895
    1AU     LIG  473   0.193   4.103   7.971  0.2396 -0.0996  0.1592
    1AU       S  474   1.401   4.289   7.438 -0.2093 -0.3742 -0.3123
    1AU     LIG  475   1.219   4.393   7.769  0.1403  0.0966 -0.1154
    1AU     LIG  476   1.175   4.346   8.202 -0.2317  0.2268  0.0790
    1AU     LIG  477   0.906   4.665   8.337  0.0662 -0.0187 -0.4119
    1AU     LIG  478   0.899   5.076   8.336  0.0791  0.0529 -0.0263
    1AU     LIG  479   0.939   5.368   8.136 -0.0477  0.0941 -0.2931
    1AU     LIG  480   0.756   5.818   8.035  0.0741 -0.0837  0.1466
    1AU    AUSL  481   2.275   3.697   7.557 -0.0192  0.0906 -0.0693
    1AU    AUSL  482   1.988   3.440   6.994 -0.0836  0.0336 -0.0343
    1AU     AUL  483   2.135   3.349   7.438 -0.0232 -0.0110 -0.0004
    1AU       S  484   1.844   3.175   7.042  0.2786  0.3689  0.2275
    1AU     LIG  485   1.597   2.841   7.137  0.0910 -0.3676  0.0849
    1AU     LIG  486   1.489   2.585   6.882  0.0939 -0.4828  0.3181
    1AU     LIG  487   1.265   2.408   6.577  0.0895 -0.0013 -0.1716
    1AU     LIG  488   1.149   2.001   6.573 -0.0762 -0.0623  0.2853
    1AU     LIG  489   1.024   1.611   6.628  0.0994  0.0223  0.1089
    1AU     LIG  490   0.739   1.296   6.887 -0.1096 -0.1318  0.2080
    1AU       S  491   2.026   3.656   7.748  0.0903 -0.1721 -0.1610
    1AU     LIG  492   2.222   3.357   8.047 -0.0554 -0.2687  0.0517
    1AU     LIG  493   2.277   2.960   8.071  0.2940  0.0282  0.1872
    1AU     LIG  494   2.462   2.684   7.890  0.0807 -0.0978 -0.1930
    1AU     LIG  495   2.372   2.267   7.581 -0.3274 -0.0279  0.0201
    1AU     LIG  496   2.244   1.886   7.509  0.0587  0.2085 -0.0093
    1AU     LIG  497   2.325   1.505   7.198 -0.4363  0.0084 -0.0919
    1AU    AUSL  498   2.764   4.360   6.111  0.0384  0.0313  0.0609
    1AU    AUSL  499   2.883   4.400   6.584  0.0883  0.0578 -0.0889
    1AU     AUL  500   3.120   4.367   6.204 -0.0108 -0.0216 -0.0242
    1AU       S  501   2.982   4.612   5.864  0.4885  0.1490  0.2075
    1AU     LIG  502   3.478   4.527   5.977  0.4007 -0.0036  0.0435
    1AU     LIG  503   3.808   4.614   6.205  0.3863 -0.0434 -0.0801
    1AU     LIG  504   3.907   4.823   6.551 -0.1224  0.1169 -0.0130
    1AU     LIG  505   4.214   4.678   6.890 -0.1150  0.1661 -0.0052
    1AU     LIG  506   4.343   4.493   7.038  0.0901 -0.1923 -0.0160
    1AU     LIG  507   4.410   4.276   7.484  0.4738  0.1866 -0.0391
    1AU       S  508   3.368   4.191   6.550  0.1689 -0.2639 -0.4082
    1AU     LIG  509   3.898   4.307   6.668 -0.0101 -0.2186 -0.1560
    1AU     LIG  510   4.266   4.123   6.756  0.3646 -0.0114  0.3225
    1AU     LIG  511   4.588   3.953   7.000  0.3557 -0.1231  0.4500
    1AU     LIG  512   4.893   3.986   7.281  0.1274 -0.0979  0.3326
    1AU     LIG  513   5.233   4.010   7.592 -0.1929  0.1297  0.0922
    1AU     LIG  514   5.442   3.856   7.867 -0.1354  0.4624 -0.2748
    1AU    AUSL  515   2.539   4.597   6.354 -0.0232  0.0492  0.0012
    1AU    AUSL  516   2.425   4.210   6.250  0.0715  0.0349  0.0414
    1AU     AUL  517   2.523   4.591   5.979  0.0190  0.0523 -0.0250
    1AU       S  518   2.985   4.740   5.948  0.2585 -0.3625 -0.2084
    1AU     LIG  519   2.618   4.826   5.579 -0.1506 -0.0517  0.0885
    1AU     LIG  520   2.264   4.819   5.251  0.0104 -0.0412 -0.1153
    1AU     LIG  521   2.088   4.578   5.139 -0.0330  0.0736  0.0808
    1AU     LIG  522   1.777   4.273   5.283  0.0171 -0.2184  0.0144
    1AU     LIG  523   1.354   4.094   5.338 -0.1304 -0.1511 -0.0310
    1AU     LIG  524   0.962   4.029   5.598 -0.2500 -0.2716  0.1662
    1AU       S  525   2.390   4.225   5.746 -0.1427 -0.0093 -0.1393
    1AU     LIG  526   2.831   4.170   5.691 -0.0011 -0.1826 -0.1554
    1AU     LIG  527   3.303   4.123   5.727 -0.0605  0.2618 -0.0900
    1AU     LIG  528   3.647   3.869   5.759 -0.2105 -0.0373 -0.0095
    1AU     LIG  529   4.038   3.763   5.847  0.1978 -0.5230  0.2806
    1AU     LIG  530   4.316   3.416   5.968  0.0622 -0.1568 -0.0235
    1AU     LIG  531   4.598   3.194   6.273 -0.2261 -0.4439  0.0570
    1AU    AUSL  532   2.405   3.337   6.885  0.0773  0.0744  0.0544
    1AU    AUSL  533   2.034   3.793   6.810 -0.0162  0.0725  0.0536
    1AU     AUL  534   2.186   3.282   6.700 -0.0023  0.0257  0.0533
    1AU       S  535   1.623   3.377   6.650 -0.1930  0.0508 -0.0090
    1AU     LIG  536   1.238   3.183   6.907 -0.2405 -0.0987  0.4430
    1AU     LIG  537   0.847   3.135   7.100 -0.0534 -0.2624 -0.2302
    1AU     LIG  538   0.445   2.944   6.966  0.0744 -0.1257  0.3347
    1AU     LIG  539   0.153   2.691   6.737  0.2109  0.4460 -0.1153
    1AU     LIG  540  -0.156   2.459   6.616  0.0892  0.1077 -0.1038
    1AU     LIG  541  -0.648   2.365   6.746 -0.3372 -0.0221 -0.0714
    1AU       S  542   2.102   3.047   7.092 -0.1881 -0.0942 -0.2448
    1AU     LIG  543   2.395   2.761   7.123  0.0015  0.2498  0.0353
    1AU     LIG  544   2.429   2.368   7.044  0.0421  0.1334 -0.0535
    1AU     LIG  545   2.125   2.086   7.018  0.1677  0.2911 -0.0049
    1AU     LIG  546   1.825   1.886   7.274  0.2512 -0.0898  0.2283
    1AU     LIG  547   1.432   1.802   7.405 -0.2576 -0.0652 -0.1389
    1AU     LIG  548   1.069   1.943   7.576 -0.4714  0.0210  0.2225
    1AU    AUSL  549   2.315   3.633   7.164 -0.1054 -0.0604 -0.0530
    1AU    AUSL  550   2.602   3.679   6.851  0.0183 -0.0540 -0.0422
    1AU     AUL  551   2.496   3.296   7.129 -0.0399 -0.0311  0.0198
    1AU       S  552   1.852   3.326   7.029 -0.0585 -0.0545 -0.1418
    1AU     LIG  553   1.491   3.555   7.152  0.1463  0.0877  0.3631
    1AU     LIG  554   1.190   3.558   7.260  0.3854 -0.6069 -0.2885
    1AU     LIG  555   0.823   3.699   7.431  0.0262  0.0978 -0.0862
    1AU     LIG  556   0.433   3.922   7.396  0.2890 -0.0519 -0.0774
    1AU     LIG  557   0.390   4.322   7.476  0.0516  0.1074  0.2678
    1AU     LIG  558   0.222   4.714   7.290 -0.0291 -0.0425  0.4365
    1AU       S  559   2.908   3.186   6.961  0.1281  0.0114  0.0569
    1AU     LIG  560   2.692   2.855   6.740 -0.1290  0.3554  0.0112
    1AU     LIG  561   2.555   2.568   6.638  0.5010  0.0040  0.2635
    1AU     LIG  562   2.397   2.127   6.563  0.4481  0.1996  0.0572
    1AU     LIG  563   2.376   1.725   6.694 -0.3517 -0.3750  0.0614
    1AU     LIG  564   2.002   1.449   6.818  0.1587 -0.0276  0.1635
    1AU     LIG  565   1.779   1.051   6.871  0.2480 -0.1587  0.2876
    2POPC   NC3  566   2.278   8.671   9.370 -0.0712 -0.1451  0.0911
    2POPC   PO4  567   2.094   8.618   8.960  0.0254 -0.4333 -0.1473
    2POPC   GL1  568   2.290   8.634   8.554  0.2901 -0.3067 -0.2067
    2POPC   GL2  569   2.525   8.312   8.552 -0.0586  0.0758 -0.0158
    2POPC   C1A  570   2.383   8.526   8.040  0.1437 -0.1860  0.0845
    2POPC   D2A  571   2.462   8.399   7.570 -0.4142 -0.0233  0.1701
    2POPC   C3A  572   2.423   8.585   7.172 -0.0077  0.0586  0.1071
    2POPC   C4A  573   2.713   8.501   6.924 -0.0600  0.1314  0.0701
    2POPC   C1B  574   2.017   8.267   8.312 -0.1412  0.0882  0.1358
    2POPC   C2B  575   1.956   8.349   7.798  0.1318 -0.0192 -0.1151
    2POPC   C3B  576   1.942   8.397   7.343  0.1499 -0.2793  0.2159
    2POPC   C4B  577   1.771   8.203   6.951 -0.0706  0.3770  0.1579
    3POPC   NC3  578   3.754   9.041   8.615  0.2194 -0.3377 -0.4395
    3POPC   PO4  579   3.633   9.502   8.564 -0.0181  0.0728  0.1313
    3POPC   GL1  580   3.896   9.504   8.283  0.0579 -0.0634  0.2875
    3POPC   GL2  581   3.829   9.194   8.140  0.1099 -0.0263  0.3925
    3POPC   C1A  582   3.826   9.883   7.957 -0.2013  0.2418 -0.1226
    3POPC   D2A  583   3.503  10.086   7.921  0.0014  0.2771 -0.5740
    3POPC   C3A  584   3.333  10.171   7.598 -0.1472 -0.2020  0.1493
    3POPC   C4A  585   3.246  10.430   7.340  0.2013 -0.2358  0.3176
    3POPC   C1B  586   3.795   8.787   7.935  0.2333 -0.0808 -0.1681
    3POPC   C2B  587   3.621   8.699   7.581  0.1769  0.1179 -0.1217
    3POPC   C3B  588   3.749   8.672   7.141 -0.1092  0.2286 -0.2261
    3POPC   C4B  589   4.118   8.424   7.045  0.1401 -0.0289 -0.1455
    4POPC   NC3  590   3.937   9.525   8.986  0.3600  0.1810  0.0404
    4POPC   PO4  591   4.162   9.690   9.221 -0.1491 -0.0337 -0.1328
    4POPC   GL1  592   4.435   9.782   8.855 -0.0621  0.0660  0.0552
    4POPC   GL2  593   4.785   9.811   8.933  0.0738  0.1383 -0.0534
    4POPC   C1A  594   4.420   9.755   8.411  0.1289 -0.2240  0.1326
    4POPC   D2A  595   4.523   9.792   8.059  0.1088  0.1025  0.6778
    4POPC   C3A  596   4.433   9.425   7.756 -0.1061 -0.1673  0.0347
    4POPC   C4A  597   4.379   8.993   7.724  0.1145 -0.1153 -0.3077
    4POPC   C1B  598   4.979   9.738   8.484  0.2495  0.0623 -0.2915
    4POPC   C2B  599   5.001   9.575   8.016 -0.0614  0.1925 -0.1483
    4POPC   C3B  600   4.986   9.235   7.782  0.0681  0.1684  0.0479
    4POPC   C4B  601   5.006   8.919   7.573  0.1993 -0.2622  0.1967
    5POPC   NC3  602   8.854   3.631   8.980 -0.1136 -0.0124  0.2174
    5POPC   PO4  603   9.149   4.073   9.086  0.0948  0.1137  0.0526
    5POPC   GL1  604   9.350   4.274   8.787  0.1417  0.1560  0.0679
    5POPC   GL2  605   9.392   4.129   8.528  0.2734 -0.0967  0.0496
    5POPC   C1A  606   9.813   4.307   8.624  0.1044 -0.0847  0.1240
    5POPC   D2A  607   9.881   4.778   8.512  0.1110 -0.0351 -0.1081
    5POPC   C3A  608   9.696   5.166   8.181  0.3026  0.1265  0.1113
    5POPC   C4A  609   9.360   5.446   7.950 -0.4249 -0.2403 -0.0167
    5POPC   C1B  610   9.551   3.991   8.177 -0.0031 -0.2649  0.2808
    5POPC   C2B  611   9.835   3.965   7.835 -0.1916 -0.1917  0.1381
    5POPC   C3B  612  10.109   4.053   7.374  0.1271  0.0023 -0.3288
    5POPC   C4B  613  10.250   4.302   7.077  0.0741  0.2183 -0.2090
    6POPC   NC3  614   0.475   5.860  10.013  0.3525  0.1876  0.0409
    6POPC   PO4  615   0.474   5.957   9.614 -0.1237  0.0197  0.0719
    6POPC   GL1  616   0.461   6.027   9.156  0.3347 -0.1561 -0.2666
    6POPC   GL2  617   0.701   5.962   8.899 -0.2503  0.1802  0.2534
    6POPC   C1A  618   0.159   5.979   8.717  0.2565 -0.0935  0.0300
    6POPC   D2A  619  -0.182   6.092   8.413  0.0629  0.1075 -0.0766
    6POPC   C3A  620  -0.126   6.245   7.913  0.3636 -0.2555  0.0770
    6POPC   C4A  621   0.111   6.149   7.577  0.0348 -0.3237  0.1309
    6POPC   C1B  622   0.561   6.206   8.544 -0.0762 -0.0879  0.0481
    6POPC   C2B  623   0.297   6.031   8.198  0.0370 -0.1697  0.4005
    6POPC   C3B  624   0.276   5.798   7.960  0.3254  0.3710  0.2164
    6POPC   C4B  625   0.003   5.387   7.962  0.3309  0.1044 -0.1901
    7POPC   NC3  626   1.272   0.417   9.557 -0.3228  0.1199  0.0349
    7POPC   PO4  627   0.993   0.761   9.260 -0.2262 -0.0905  0.0945
    7POPC   GL1  628   1.037   0.804   8.724  0.2084  0.2826 -0.1438
    7POPC   GL2  629   0.748   0.902   8.561  0.0800 -0.1686 -0.2032
    7POPC   C1A  630   1.363   0.671   8.494  0.1246  0.5284  0.1362
    7POPC   D2A  631   1.530   0.691   8.063 -0.0801  0.0265  0.1393
    7POPC   C3A  632   1.284   0.438   7.686  0.0480  0.1531  0.0940
    7POPC   C4A  633   1.262   0.537   7.304  0.0638 -0.0019  0.1460
    7POPC   C1B  634   0.588   0.892   8.142  0.0084 -0.1561 -0.0115
    7POPC   C2B  635   0.656   1.238   7.787 -0.1322  0.5092 -0.0276
    7POPC   C3B  636   0.537   1.292   7.354 -0.2378 -0.3191 -0.2207
    7POPC   C4B  637   0.489   1.705   7.173 -0.0968 -0.0616  0.1201
    8POPC   NC3  638   5.751   3.586   9.205 -0.3455  0.2065  0.0612
    8POPC   PO4  639   5.623   3.325   9.555 -0.1163 -0.3031  0.0572
    8POPC   GL1  640   5.366   3.113   9.164 -0.0789 -0.0465 -0.0260
    8POPC   GL2  641   5.495   3.183   8.826  0.2127  0.2560 -0.1142
    8POPC   C1A  642   5.114   2.936   8.881  0.4214  0.0428  0.0478
    8POPC   D2A  643   4.603   2.862   8.930  0.2790  0.0395 -0.1601
    8POPC   C3A  644   4.232   3.124   8.946 -0.2107  0.3216  0.0810
    8POPC   C4A  645   3.791   3.056   9.040  0.0772 -0.0663 -0.2907
    8POPC   C1B  646   5.695   3.223   8.460 -0.0767  0.1622 -0.0583
    8POPC   C2B  647   5.782   3.510   8.189  0.0631  0.0679 -0.1027
    8POPC   C3B  648   5.938   3.516   7.679  0.1331 -0.0621 -0.0405
    8POPC   C4B  649   5.488   3.368   7.553 -0.3065  0.1710  0.0340
    9POPC   NC3  650   7.494   1.456   8.614 -0.1787 -0.0076  0.3487
    9POPC   PO4  651   7.367   1.910   8.731 -0.0798  0.0892  0.4730
    9POPC   GL1  652   7.118   1.923   8.386  0.3587 -0.3407 -0.2718
    9POPC   GL2  653   7.185   1.640   8.244  0.1166 -0.1286  0.0817
    9POPC   C1A  654   7.136   2.073   7.945 -0.1221  0.0984  0.2793
    9POPC   D2A  655   6.984   2.411   7.700  0.0867  0.2385 -0.1912
    9POPC   C3A  656   7.244   2.463   7.339 -0.2245 -0.0293 -0.2607
    9POPC   C4A  657   7.206   2.285   6.969  0.1755 -0.0224  0.1551
    9POPC   C1B  658   6.829   1.533   8.053  0.0506  0.1562  0.0254
    9POPC   C2B  659   6.421   1.566   7.925 -0.3765  0.1179  0.1108
    9POPC   C3B  660   6.035   1.689   7.852  0.2484 -0.0661 -0.0193
    9POPC   C4B  661   5.791   1.813   7.456 -0.2557  0.0347 -0.2936
   10POPC   NC3  662   1.775   7.030   9.188  0.1764  0.1324  0.1212
   10POPC   PO4  663   1.493   6.779   9.389  0.0444  0.3495  0.0118
   10POPC   GL1  664   1.600   6.553   9.039 -0.2091 -0.1034 -0.1177
   10POPC   GL2  665   1.895   6.636   8.887  0.1899  0.1866  0.1135
   10POPC   C1A  666   1.496   6.756   8.666  0.3042  0.0892 -0.0408
   10POPC   D2A  667   1.757   6.921   8.298  0.2957 -0.0807 -0.4912
   10POPC   C3A  668   2.191   6.957   8.367 -0.2096 -0.0641 -0.4069
   10POPC   C4A  669   2.495   6.828   8.264 -0.4400  0.0244  0.3239
   10POPC   C1B  670   1.836   6.162   8.950 -0.0904  0.2082  0.2649
   10POPC   C2B  671   2.163   5.961   8.690  0.1602  0.1885  0.2783
   10POPC   C3B  672   2.129   5.597   8.513 -0.3239 -0.1728  0.4050
   10POPC   C4B  673   2.182   5.400   8.154 -0.1652 -0.0612  0.1842
   11POPC   NC3  674   7.157   6.004   8.673  0.1546  0.0731 -0.1185
   11POPC   PO4  675   7.111   5.592   8.917  0.2019  0.0799  0.0594
   11POPC   GL1  676   7.210   5.462   8.452  0.0598  0.2869  0.1356
   11POPC   GL2  677   7.214   5.172   8.174  0.4194  0.1825 -0.1077
   11POPC   C1A  678   7.548   5.504   8.084 -0.2718 -0.0737  0.2643
   11POPC   D2A  679   7.763   5.773   7.722  0.1306 -0.1992  0.1459
   11POPC   C3A  680   7.909   5.686   7.288  0.2269  0.1609 -0.2128
   11POPC   C4A  681   8.252   5.764   7.084  0.1786 -0.3362  0.2187
   11POPC   C1B  682   7.078   5.015   7.822  0.0117  0.1742  0.3890
   11POPC   C2B  683   7.150   4.817   7.369 -0.0215 -0.1680 -0.0312
   11POPC   C3B  684   7.200   4.813   6.991 -0.1690 -0.0373 -0.1075
   11POPC   C4B  685   7.017   4.884   6.585  0.1147  0.0793 -0.0816
   12POPC   NC3  686   6.965   7.336   9.388 -0.1037  0.1137 -0.2043
   12POPC   PO4  687   7.360   7.123   9.274  0.0871  0.0289 -0.2690
   12POPC   GL1  688   7.360   6.917   8.953 -0.3252  0.1095  0.0838
   12POPC   GL2  689   7.154   6.613   8.781  0.0215  0.0221 -0.0724
   12POPC   C1A  690   7.221   7.095   8.513  0.0064 -0.1892  0.0478
   12POPC   D2A  691   7.161   7.113   7.991 -0.1095 -0.0502  0.1445
   12POPC   C3A  692   7.282   7.495   7.717 -0.3125 -0.1437 -0.1793
   12POPC   C4A  693   7.472   8.006   7.828  0.2807 -0.2268 -0.0307
   12POPC   C1B  694   6.958   6.672   8.268  0.0264 -0.0480  0.0032
   12POPC   C2B  695   7.035   6.534   7.838  0.1737  0.1160 -0.3625
   12POPC   C3B  696   6.889   6.591   7.506 -0.3710  0.0840  0.0985
   12POPC   C4B  697   6.620   6.906   7.331  0.0234 -0.3217  0.3538
   13POPC   NC3  698   3.200   2.276   9.684 -0.0597  0.1625  0.4303
   13POPC   PO4  699   2.831   2.348  10.000 -0.0241  0.0731  0.0357
   13POPC   GL1  700   2.696   2.566   9.490  0.1929 -0.4304  0.1385
   13POPC   GL2  701   2.460   2.679   9.679 -0.1406  0.1469  0.1605
   13POPC   C1A  702   2.613   2.324   9.199  0.0457 -0.1203  0.0632
   13POPC   D2A  703   2.370   1.958   9.000  0.0263 -0.1431 -0.0607
   13POPC   C3A  704   2.036   2.031   8.630 -0.0937  0.1204 -0.3203
   13POPC   C4A  705   1.796   2.029   8.285  0.0820  0.1983 -0.1553
   13POPC   C1B  706   2.230   2.682   9.233  0.2156 -0.2573  0.0103
   13POPC   C2B  707   2.348   2.569   8.773 -0.0275  0.2243  0.1950
   13POPC   C3B  708   2.223   2.394   8.416 -0.1433 -0.0313  0.4424
   13POPC   C4B  709   2.027   2.463   8.012  0.0388  0.2424  0.0672
   14POPC   NC3  710   0.791   0.309   9.393 -0.1199  0.1246  0.1464
   14POPC   PO4  711   0.287   0.371   9.206 -0.2942  0.0432 -0.1737
   14POPC   GL1  712   0.574   0.413   8.883  0.3231 -0.2219 -0.1062
   14POPC   GL2  713   0.288   0.295   8.708 -0.4777 -0.0507 -0.1000
   14POPC   C1A  714   0.864   0.391   8.434  0.2257 -0.1926  0.1087
   14POPC   D2A  715   1.016   0.505   8.093  0.2926 -0.2135  0.0335
   14POPC   C3A  716   0.776   0.572   7.771  0.0543 -0.1170 -0.2262
   14POPC   C4A  717   0.867   0.287   7.401  0.1270  0.0741 -0.1354
   14POPC   C1B  718   0.355   0.322   8.283  0.2850  0.1158 -0.0446
   14POPC   C2B  719   0.329   0.364   7.826 -0.4747 -0.0945  0.2574
   14POPC   C3B  720   0.052   0.458   7.511 -0.0890  0.3028  0.0387
   14POPC   C4B  721  -0.129   0.233   7.227  0.0854  0.1040  0.5722
   15POPC   NC3  722   9.635   2.642   8.867  0.3520  0.0919  0.0597
   15POPC   PO4  723   9.706   2.350   9.066  0.0595 -0.1015  0.0173
   15POPC   GL1  724  10.067   2.276   8.698  0.3498  0.2005 -0.1701
   15POPC   GL2  725  10.339   2.149   8.877  0.0584  0.1957  0.0551
   15POPC   C1A  726  10.061   2.091   8.258 -0.0114  0.1915  0.0233
   15POPC   D2A  727   9.827   2.045   7.862 -0.0639  0.0312  0.2042
   15POPC   C3A  728  10.032   1.846   7.472  0.3682  0.1379  0.0579
   15POPC   C4A  729  10.156   1.519   7.234  0.0462  0.1128 -0.0066
   15POPC   C1B  730  10.570   2.269   8.438 -0.1049 -0.1331  0.1531
   15POPC   C2B  731  10.671   2.529   8.051  0.3406  0.3212 -0.0750
   15POPC   C3B  732  10.759   2.769   7.621  0.1859 -0.1309  0.1374
   15POPC   C4B  733  10.445   2.639   7.280 -0.0317  0.1650  0.0804
   16POPC   NC3  734   1.274   9.330   8.697  0.0199  0.0416 -0.2941
   16POPC   PO4  735   1.710   9.439   8.723 -0.1287 -0.0191 -0.1240
   16POPC   GL1  736   1.792   9.276   8.358 -0.2788  0.0831 -0.0425
   16POPC   GL2  737   1.962   8.977   8.220  0.3107 -0.0242 -0.1897
   16POPC   C1A  738   1.825   9.369   7.839  0.2931  0.0005 -0.2731
   16POPC   D2A  739   2.105   9.670   7.595  0.0880 -0.0647 -0.2380
   16POPC   C3A  740   2.146   9.887   7.253  0.0759 -0.0700  0.0677
   16POPC   C4A  741   2.370  10.267   7.095  0.0124  0.5025 -0.1355
   16POPC   C1B  742   1.741   8.852   7.985  0.1342 -0.2123  0.2586
   16POPC   C2B  743   1.604   8.746   7.531 -0.1443  0.1730 -0.1622
   16POPC   C3B  744   1.574   8.934   7.025  0.3703 -0.1182  0.1063
   16POPC   C4B  745   1.346   9.202   6.797  0.1051 -0.3187 -0.2641
   17POPC   NC3  746   4.447   7.323   9.424 -0.1259  0.1624 -0.2803
   17POPC   PO4  747   4.759   7.291   9.165 -0.3945  0.1459  0.2145
   17POPC   GL1  748   4.826   7.243   8.707 -0.2675 -0.1366  0.0633
   17POPC   GL2  749   4.598   7.099   8.647  0.3463  0.0729  0.1690
   17POPC   C1A  750   5.094   7.101   8.342  0.3356  0.2342  0.3633
   17POPC   D2A  751   5.314   7.203   7.991  0.2945  0.0807  0.3676
   17POPC   C3A  752   5.826   7.150   8.040  0.4700 -0.0545  0.1940
   17POPC   C4A  753   6.127   7.267   7.691 -0.0620  0.3500 -0.0541
   17POPC   C1B  754   4.625   7.155   8.199  0.0556  0.1203  0.1191
   17POPC   C2B  755   4.879   7.339   7.820  0.0839 -0.0035  0.1808
   17POPC   C3B  756   5.082   7.574   7.582 -0.2125  0.1943  0.1617
   17POPC   C4B  757   5.430   7.776   7.291  0.0040 -0.0729  0.0635
   18POPC   NC3  758   0.409   1.205   8.839  0.1035 -0.1296  0.4879
   18POPC   PO4  759  -0.110   1.329   8.802 -0.2259  0.0473  0.1755
   18POPC   GL1  760   0.156   1.089   8.365  0.0294  0.0125 -0.1261
   18POPC   GL2  761   0.242   0.782   8.512 -0.2990 -0.0347  0.1455
   18POPC   C1A  762   0.175   1.225   8.025  0.2054  0.1904 -0.0623
   18POPC   D2A  763  -0.101   1.212   7.674 -0.1627  0.1368 -0.0382
   18POPC   C3A  764   0.038   1.004   7.349 -0.0654  0.0035 -0.0781
   18POPC   C4A  765  -0.052   0.991   6.970 -0.2091  0.1604  0.2588
   18POPC   C1B  766   0.066   0.764   8.016  0.0032  0.3269 -0.4267
   18POPC   C2B  767   0.317   0.846   7.678 -0.1421  0.1523 -0.0804
   18POPC   C3B  768   0.576   0.751   7.347 -0.2437 -0.2683 -0.0486
   18POPC   C4B  769   0.786   0.508   6.990 -0.0071  0.5228  0.0111
   19POPC   NC3  770  10.187   6.630   9.245  0.0722  0.0807  0.0653
   19POPC   PO4  771  10.089   7.085   9.136 -0.0383 -0.1462  0.0458
   19POPC   GL1  772  10.206   6.888   8.791 -0.0386 -0.1256  0.0148
   19POPC   GL2  773  10.064   6.627   8.594  0.0665 -0.2395 -0.1354
   19POPC   C1A  774  10.237   7.020   8.344  0.3289 -0.0736  0.1014
   19POPC   D2A  775  10.363   7.312   8.051  0.1668  0.2285 -0.1298
   19POPC   C3A  776  10.173   7.195   7.703 -0.0120 -0.0279 -0.3416
   19POPC   C4A  777  10.159   7.382   7.320 -0.0927  0.3448 -0.1050
   19POPC   C1B  778  10.376   6.553   8.232 -0.1307  0.3749  0.0461
   19POPC   C2B  779  10.650   6.432   7.998 -0.3257 -0.1952  0.0810
   19POPC   C3B  780  10.717   6.418   7.645  0.1192  0.0329  0.0967
   19POPC   C4B  781  10.811   6.019   7.543 -0.1259  0.1335  0.1091
   20POPC   NC3  782   9.807   8.450   9.189  0.1218 -0.0047  0.1146
   20POPC   PO4  783   9.769   8.006   9.173  0.1829 -0.0059 -0.3660
   20POPC   GL1  784   9.579   7.971   8.765  0.1147 -0.0229 -0.0976
   20POPC   GL2  785   9.670   7.722   8.545 -0.0938 -0.2069 -0.2176
   20POPC   C1A  786   9.799   8.253   8.394 -0.1440 -0.0836  0.1781
   20POPC   D2A  787  10.127   8.334   8.013  0.2261  0.5280  0.0547
   20POPC   C3A  788  10.156   8.265   7.592  0.0923 -0.1417  0.1744
   20POPC   C4A  789  10.153   8.304   7.156  0.0634 -0.1660  0.1780
   20POPC   C1B  790   9.472   7.936   8.164  0.3491 -0.0880 -0.0000
   20POPC   C2B  791   9.726   8.012   7.731  0.1537  0.1458 -0.0386
   20POPC   C3B  792   9.906   7.907   7.333 -0.1610  0.0335 -0.2050
   20POPC   C4B  793  10.084   7.772   6.978  0.0809 -0.3596  0.3203
   21POPC   NC3  794   7.603   6.785   9.454 -0.0467 -0.1925  0.0221
   21POPC   PO4  795   7.773   6.458   9.194 -0.1045 -0.0762 -0.0190
   21POPC   GL1  796   7.596   6.421   8.744 -0.2397 -0.3295  0.3312
   21POPC   GL2  797   7.841   6.563   8.640  0.1831 -0.0531 -0.0256
   21POPC   C1A  798   7.438   6.528   8.344 -0.0071  0.2956  0.2495
   21POPC   D2A  799   7.591   6.898   8.138 -0.1030 -0.0096 -0.1226
   21POPC   C3A  800   7.559   7.349   8.204  0.0288  0.1938  0.0803
   21POPC   C4A  801   7.153   7.583   8.456 -0.1209 -0.0625  0.0685
   21POPC   C1B  802   7.812   6.225   8.347  0.1173 -0.0637 -0.1724
   21POPC   C2B  803   7.570   6.256   7.933 -0.0999  0.1832  0.0690
   21POPC   C3B  804   7.412   6.235   7.601  0.3043 -0.3925 -0.0666
   21POPC   C4B  805   7.437   6.307   7.175 -0.3393  0.2819  0.1502
   22POPC   NC3  806   5.731   0.680   9.080  0.0796 -0.2087 -0.0860
   22POPC   PO4  807   5.353   0.902   9.104 -0.0477  0.3770  0.2067
   22POPC   GL1  808   5.548   1.119   8.781 -0.0481  0.0873  0.0211
   22POPC   GL2  809   5.348   1.359   8.591  0.0083  0.1875  0.1075
   22POPC   C1A  810   5.508   0.870   8.420  0.1123  0.2684  0.0493
   22POPC   D2A  811   5.579   0.558   8.126  0.1319 -0.1320 -0.1268
   22POPC   C3A  812   5.987   0.384   7.898  0.2552  0.0681  0.3235
   22POPC   C4A  813   5.933   0.089   7.526 -0.2114 -0.1710 -0.0066
   22POPC   C1B  814   5.075   1.795   8.459 -0.1084  0.0816 -0.1013
   22POPC   C2B  815   4.979   1.726   8.014  0.0682 -0.0606 -0.2149
   22POPC   C3B  816   4.966   1.484   7.733  0.0634  0.1921  0.2516
   22POPC   C4B  817   5.126   1.297   7.312 -0.0311  0.2558  0.1103
   23POPC   NC3  818  10.194   2.856   9.514  0.1560 -0.2467  0.1120
   23POPC   PO4  819  10.155   3.135   9.151 -0.1106 -0.0311  0.0871
   23POPC   GL1  820   9.807   3.122   8.751  0.1592  0.0849 -0.1993
   23POPC   GL2  821   9.990   2.849   8.624 -0.1134 -0.1464 -0.3201
   23POPC   C1A  822   9.799   3.271   8.361  0.1292 -0.0982 -0.5566
   23POPC   D2A  823   9.680   3.544   7.980  0.0862  0.1997 -0.4625
   23POPC   C3A  824   9.812   3.600   7.512 -0.2257  0.3391  0.0697
   23POPC   C4A  825   9.960   3.523   7.158 -0.0089  0.1047 -0.1134
   23POPC   C1B  826  10.046   2.589   8.164 -0.0065 -0.0323 -0.0173
   23POPC   C2B  827   9.894   2.581   7.849 -0.1489 -0.1096  0.1276
   23POPC   C3B  828   9.910   2.676   7.451 -0.0140  0.4378 -0.1115
   23POPC   C4B  829   9.852   2.783   7.012 -0.0496  0.1541 -0.0009
   24POPC   NC3  830   1.581   1.592  10.011 -0.0263 -0.3198  0.3376
   24POPC   PO4  831   1.465   1.935   9.644 -0.1079 -0.1946 -0.2041
   24POPC   GL1  832   1.473   2.085   9.268 -0.0581 -0.1570  0.0696
   24POPC   GL2  833   1.207   2.323   9.228  0.0952  0.2479  0.0704
   24POPC   C1A  834   1.515   1.994   8.785 -0.0217 -0.0871 -0.1095
   24POPC   D2A  835   1.330   2.127   8.515  0.2830  0.0917  0.2164
   24POPC   C3A  836   0.944   1.980   8.326  0.3552  0.3193  0.0895
   24POPC   C4A  837   0.760   2.130   7.980  0.0777 -0.2874  0.0093
   24POPC   C1B  838   1.261   2.506   8.817 -0.3663 -0.2736  0.0902
   24POPC   C2B  839   1.253   2.800   8.550  0.0592  0.2337 -0.1740
   24POPC   C3B  840   1.560   2.977   8.469 -0.1878 -0.0028 -0.0310
   24POPC   C4B  841   2.004   2.913   8.423 -0.1294 -0.1136  0.0154
   25POPC   NC3  842   1.053   1.208   9.068  0.2557  0.1599  0.0331
   25POPC   PO4  843   0.760   1.501   8.931 -0.0213  0.1012 -0.2120
   25POPC   GL1  844   1.182   1.482   8.644 -0.1673  0.1781  0.2035
   25POPC   GL2  845   1.232   1.193   8.517  0.2404 -0.0054 -0.2957
   25POPC   C1A  846   1.357   1.700   8.336  0.3646  0.0853 -0.0237
   25POPC   D2A  847   1.528   1.715   7.914  0.0138  0.0516 -0.0579
   25POPC   C3A  848   1.877   1.580   7.666  0.4489 -0.2951 -0.1770
   25POPC   C4A  849   1.891   1.340   7.351  0.0700 -0.2795 -0.2644
   25POPC   C1B  850   1.078   1.053   8.144  0.1789  0.0546 -0.1058
   25POPC   C2B  851   1.116   0.931   7.747 -0.1439  0.1105  0.2562
   25POPC   C3B  852   1.004   0.942   7.445 -0.0740 -0.1065 -0.0333
   25POPC   C4B  853   1.090   0.943   7.035 -0.1265 -0.2763 -0.0037
   26POPC   NC3  854   9.000   2.661   9.085  0.0131 -0.0356 -0.0671
   26POPC   PO4  855   9.212   2.229   8.993 -0.2158  0.3724  0.0218
   26POPC   GL1  856   9.541   2.124   8.655 -0.1160  0.1750 -0.1342
   26POPC   GL2  857   9.642   2.378   8.427  0.0979  0.1973  0.2022
   26POPC   C1A  858   9.500   1.949   8.249 -0.2345  0.1562  0.0859
   26POPC   D2A  859   9.301   1.877   7.823 -0.2578 -0.0889  0.1865
   26POPC   C3A  860   9.233   2.144   7.595 -0.0502  0.0953  0.1587
   26POPC   C4A  861   8.984   2.400   7.388 -0.2570 -0.1602 -0.0157
   26POPC   C1B  862   9.560   2.801   8.288  0.2989  0.1785  0.0339
   26POPC   C2B  863   9.584   3.061   7.926 -0.1287  0.3301 -0.0231
   26POPC   C3B  864  10.025   3.187   7.626 -0.1972 -0.0355 -0.0414
   26POPC   C4B  865  10.244   3.048   7.269 -0.1955 -0.0009 -0.1716
   27POPC   NC3  866   0.867   6.160   9.418  0.0895  0.1593  0.1741
   27POPC   PO4  867   0.639   6.485   9.647  0.1072  0.2237  0.0183
   27POPC   GL1  868   0.667   6.530   9.188 -0.0561  0.1829 -0.0373
   27POPC   GL2  869   0.363   6.508   8.885 -0.2582 -0.1682  0.0199
   27POPC   C1A  870   0.922   6.492   8.836  0.1125  0.1556 -0.1267
   27POPC   D2A  871   1.090   6.466   8.404  0.2139 -0.1713  0.0046
   27POPC   C3A  872   1.412   6.533   8.128 -0.1383  0.2202  0.1315
   27POPC   C4A  873   1.940   6.451   8.163 -0.0998 -0.1301 -0.0345
   27POPC   C1B  874   0.471   6.701   8.610  0.0337  0.0986 -0.1453
   27POPC   C2B  875   0.588   6.883   8.250 -0.1186 -0.2769  0.2772
   27POPC   C3B  876   0.436   6.863   7.863  0.1974  0.0915 -0.1491
   27POPC   C4B  877   0.677   6.847   7.395 -0.1131 -0.4058  0.0190
   28POPC   NC3  878   3.198   7.758   9.084 -0.2598 -0.1124 -0.1840
   28POPC   PO4  879   2.993   7.994   8.759  0.1217 -0.1489 -0.1105
   28POPC   GL1  880   2.841   7.932   8.304 -0.2097  0.1584 -0.1420
   28POPC   GL2  881   2.824   8.262   8.171 -0.2194  0.0074 -0.0963
   28POPC   C1A  882   2.861   7.670   7.927 -0.1820 -0.0392 -0.1092
   28POPC   D2A  883   2.565   7.440   7.781  0.0852 -0.2539 -0.1030
   28POPC   C3A  884   2.690   7.179   7.473 -0.0774  0.5345  0.0508
   28POPC   C4A  885   2.760   7.403   6.999 -0.1040  0.4763  0.3343
   28POPC   C1B  886   2.973   8.161   7.844 -0.2043  0.0626  0.0311
   28POPC   C2B  887   2.868   8.231   7.327  0.2614 -0.0584 -0.0310
   28POPC   C3B  888   2.685   7.932   6.961  0.2684 -0.2449 -0.0960
   28POPC   C4B  889   2.295   7.708   6.820  0.1062 -0.2397 -0.0653
   29POPC   NC3  890   2.718   4.456  10.341 -0.1581  0.2104  0.0059
   29POPC   PO4  891   2.739   4.240  10.022  0.0736  0.0633  0.3610
   29POPC   GL1  892   3.048   4.281   9.694 -0.3127 -0.2023 -0.2506
   29POPC   GL2  893   3.350   4.437   9.580  0.3485 -0.0289  0.0332
   29POPC   C1A  894   3.083   4.320   9.154  0.0749 -0.1406 -0.3919
   29POPC   D2A  895   2.868   3.948   8.872 -0.3292  0.1065 -0.0474
   29POPC   C3A  896   2.681   4.056   8.551  0.2519 -0.0559 -0.1275
   29POPC   C4A  897   2.523   4.481   8.444  0.2432 -0.4305 -0.5662
   29POPC   C1B  898   3.145   4.803   9.386 -0.1051  0.1354 -0.0787
   29POPC   C2B  899   2.974   4.789   9.035 -0.1820 -0.2135  0.0893
   29POPC   C3B  900   2.521   4.714   8.901  0.0001 -0.0332  0.0682
   29POPC   C4B  901   2.497   4.279   8.907 -0.0641 -0.4233 -0.4821
   30POPC   NC3  902   1.002   2.799   9.565  0.0425 -0.1141 -0.0604
   30POPC   PO4  903   0.532   2.889   9.617  0.0347 -0.2589  0.0562
   30POPC   GL1  904   0.564   3.241   9.246 -0.1604  0.0099  0.0740
   30POPC   GL2  905   0.657   2.918   9.121 -0.0213  0.1501 -0.0279
   30POPC   C1A  906   0.547   3.492   8.872 -0.1476  0.0635  0.1014
   30POPC   D2A  907   0.416   3.972   8.784  0.0802 -0.1246 -0.2249
   30POPC   C3A  908   0.430   4.143   8.436 -0.0276 -0.1101 -0.0600
   30POPC   C4A  909   0.642   4.320   8.111  0.0292 -0.2522  0.0404
   30POPC   C1B  910   0.831   2.978   8.728 -0.1041  0.3727 -0.3148
   30POPC   C2B  911   0.755   2.952   8.301  0.2032  0.0111 -0.1118
   30POPC   C3B  912   0.496   3.050   8.023 -0.1594  0.0608  0.1306
   30POPC   C4B  913   0.337   3.273   7.704 -0.0997  0.0905 -0.1384
   31POPC   NC3  914   5.025   5.832   9.286 -0.1098  0.0735  0.1407
   31POPC   PO4  915   5.447   5.881   9.153 -0.0649 -0.4916 -0.1271
   31POPC   GL1  916   5.278   5.983   8.722 -0.0516 -0.0921  0.1737
   31POPC   GL2  917   4.976   5.852   8.676 -0.1090  0.0270 -0.1791
   31POPC   C1A  918   5.328   6.299   8.294 -0.4771 -0.1246  0.0388
   31POPC   D2A  919   5.256   6.629   7.983  0.1231 -0.1233 -0.1387
   31POPC   C3A  920   5.564   6.795   7.697 -0.2090  0.1425 -0.3493
   31POPC   C4A  921   6.014   6.907   7.371 -0.0745 -0.1664  0.3425
   31POPC   C1B  922   4.912   5.472   8.436 -0.1849  0.1862  0.1788
   31POPC   C2B  923   5.029   5.048   8.350 -0.2359  0.1730  0.4730
   31POPC   C3B  924   4.902   4.747   8.046  0.3133  0.0394 -0.1357
   31POPC   C4B  925   4.510   4.531   7.939 -0.1976 -0.1545 -0.1496
   32POPC   NC3  926   7.992   2.997   8.946  0.0832  0.3301  0.0593
   32POPC   PO4  927   8.373   3.242   8.900  0.0847  0.0386  0.3232
   32POPC   GL1  928   8.338   3.231   8.456  0.0278  0.2133 -0.2522
   32POPC   GL2  929   7.990   3.123   8.403 -0.0036 -0.0574  0.0283
   32POPC   C1A  930   8.192   3.374   8.069  0.1670  0.0785 -0.2770
   32POPC   D2A  931   8.273   3.515   7.636 -0.2510  0.1227  0.3122
   32POPC   C3A  932   8.547   3.281   7.466  0.0672  0.1265  0.1778
   32POPC   C4A  933   8.624   3.009   7.069  0.0016  0.0808 -0.1755
   32POPC   C1B  934   7.784   3.065   7.942 -0.2451 -0.1462 -0.1727
   32POPC   C2B  935   7.907   3.072   7.456 -0.2201 -0.0223 -0.0727
   32POPC   C3B  936   8.136   2.777   7.225 -0.0070 -0.0656 -0.0340
   32POPC   C4B  937   8.508   2.563   7.139 -0.0741  0.2158  0.3002
   33POPC   NC3  938   4.830   2.195   9.630 -0.0455  0.0621  0.1891
   33POPC   PO4  939   5.023   2.408   9.333 -0.1100  0.1471  0.2164
   33POPC   GL1  940   4.659   2.424   9.156  0.0206  0.1093 -0.0534
   33POPC   GL2  941   4.358   2.280   9.328  0.3614 -0.0148  0.1188
   33POPC   C1A  942   4.440   2.381   8.717  0.0277  0.0982  0.1327
   33POPC   D2A  943   4.638   1.986   8.436 -0.0520  0.1673  0.1853
   33POPC   C3A  944   4.521   2.023   8.007 -0.0834  0.1244 -0.1928
   33POPC   C4A  945   4.268   2.194   7.680  0.1428  0.1148  0.2667
   33POPC   C1B  946   4.065   2.283   8.968  0.1977  0.3941  0.1515
   33POPC   C2B  947   3.631   2.157   8.737 -0.0129 -0.0016 -0.0538
   33POPC   C3B  948   3.152   2.160   8.663 -0.1269 -0.2605 -0.0257
   33POPC   C4B  949   2.644   2.184   8.641  0.3865  0.3397 -0.0613
   34POPC   NC3  950   5.920   7.527   9.332  0.0580  0.1537  0.0996
   34POPC   PO4  951   6.266   7.590   9.118 -0.1051  0.2314  0.2085
   34POPC   GL1  952   6.181   7.762   8.649  0.0038  0.0446 -0.0689
   34POPC   GL2  953   5.842   7.785   8.662  0.1600  0.4352 -0.1856
   34POPC   C1A  954   6.235   7.813   8.204  0.0695 -0.0909 -0.0713
   34POPC   D2A  955   6.155   7.964   7.785 -0.0358  0.1204 -0.2245
   34POPC   C3A  956   6.627   8.178   7.663  0.0085 -0.0384 -0.2461
   34POPC   C4A  957   7.079   8.146   7.557  0.0585 -0.1801  0.2165
   34POPC   C1B  958   5.913   7.348   8.462  0.4729 -0.1330  0.2864
   34POPC   C2B  959   6.271   7.301   8.182 -0.0367 -0.3725 -0.1802
   34POPC   C3B  960   6.543   7.524   7.822  0.0633 -0.1140 -0.3082
   34POPC   C4B  961   6.759   7.540   7.505  0.0815  0.4621 -0.0077
   35POPC   NC3  962   4.703   9.407   9.257  0.0887  0.1765 -0.4873
   35POPC   PO4  963   5.182   9.451   9.280 -0.1184  0.0456  0.2532
   35POPC   GL1  964   5.164   9.432   8.825 -0.0450 -0.1993  0.0107
   35POPC   GL2  965   5.398   9.543   8.610  0.1306  0.0710 -0.0525
   35POPC   C1A  966   5.064   9.239   8.440  0.2693  0.0268  0.1313
   35POPC   D2A  967   4.636   9.198   8.193 -0.1926 -0.0850 -0.4425
   35POPC   C3A  968   4.610   8.762   8.102  0.0351 -0.2556  0.1070
   35POPC   C4A  969   4.693   8.567   7.789 -0.1963  0.1665  0.2873
   35POPC   C1B  970   5.433   9.711   8.164 -0.2298 -0.2447  0.0012
   35POPC   C2B  971   5.165  10.003   7.931  0.3926 -0.1653 -0.0151
   35POPC   C3B  972   5.118  10.403   7.629 -0.3678  0.3626  0.0463
   35POPC   C4B  973   5.425  10.778   7.628 -0.0259 -0.1206 -0.2235
   36POPC   NC3  974   3.519   6.911   9.395 -0.1272 -0.0873  0.1650
   36POPC   PO4  975   3.111   6.819   9.347 -0.0468  0.3687 -0.0794
   36POPC   GL1  976   3.160   6.913   8.985  0.0260 -0.3436 -0.3029
   36POPC   GL2  977   3.195   7.194   9.049  0.1921 -0.0485  0.0787
   36POPC   C1A  978   3.117   6.662   8.543  0.0676  0.1884 -0.1202
   36POPC   D2A  979   2.899   6.610   8.138  0.3431  0.1290  0.0869
   36POPC   C3A  980   3.198   6.339   7.948 -0.0294  0.0084  0.0512
   36POPC   C4A  981   3.203   6.287   7.515  0.1345  0.0814 -0.0317
   36POPC   C1B  982   3.325   7.240   8.621  0.2399  0.0438 -0.2687
   36POPC   C2B  983   3.289   7.377   8.122  0.3491 -0.4548 -0.2896
   36POPC   C3B  984   3.305   7.304   7.726 -0.2398  0.2156  0.2561
   36POPC   C4B  985   3.252   7.074   7.276 -0.2996  0.0817  0.1301
   37POPC   NC3  986   7.151   2.652   8.967 -0.1013  0.2552 -0.1812
   37POPC   PO4  987   6.682   2.929   8.966 -0.0248 -0.1609  0.2436
   37POPC   GL1  988   6.822   2.770   8.616 -0.0249 -0.3641  0.3305
   37POPC   GL2  989   7.066   3.073   8.621 -0.3003 -0.1819 -0.0286
   37POPC   C1A  990   6.664   2.906   8.202  0.1297 -0.3067 -0.2447
   37POPC   D2A  991   6.447   3.098   7.803 -0.0011 -0.5602  0.0563
   37POPC   C3A  992   6.591   3.321   7.483  0.0867  0.2273 -0.1739
   37POPC   C4A  993   6.950   3.265   7.207  0.2957 -0.1912 -0.2519
   37POPC   C1B  994   7.274   2.928   8.199 -0.0257 -0.1969 -0.2198
   37POPC   C2B  995   7.252   2.760   7.861  0.3166 -0.3338 -0.0406
   37POPC   C3B  996   7.369   2.969   7.409  0.0416 -0.0693 -0.0565
   37POPC   C4B  997   7.414   3.251   7.518 -0.3296 -0.1141 -0.0309
   38POPC   NC3  998   7.576   4.312   8.416 -0.0915 -0.0111 -0.0089
   38POPC   PO4  999   7.389   3.977   8.310  0.1600  0.0386 -0.6820
   38POPC   GL1 1000   7.093   4.114   7.988 -0.0841  0.0869 -0.1359
   38POPC   GL2 1001   6.910   3.742   7.936 -0.2833 -0.3322 -0.0077
   38POPC   C1A 1002   7.090   4.254   7.617  0.3978  0.0397 -0.0193
   38POPC   D2A 1003   7.185   4.004   7.152  0.2083  0.2652 -0.1660
   38POPC   C3A 1004   7.299   3.596   7.096 -0.1924  0.1594 -0.1351
   38POPC   C4A 1005   7.354   3.138   6.949  0.0075 -0.0857  0.1028
   38POPC   C1B 1006   6.809   3.842   7.478 -0.2956  0.2245  0.1993
   38POPC   C2B 1007   6.732   3.732   7.106 -0.1656 -0.2040 -0.2708
   38POPC   C3B 1008   6.303   3.582   7.196 -0.0551  0.0116  0.0085
   38POPC   C4B 1009   5.893   3.366   7.183 -0.2397  0.1105  0.5577
   39POPC   NC3 1010   1.909   7.506   9.436 -0.0882  0.2507  0.1787
   39POPC   PO4 1011   2.235   7.433   9.156  0.2271 -0.0339  0.0398
   39POPC   GL1 1012   2.416   7.598   8.795  0.2163  0.0441 -0.1086
   39POPC   GL2 1013   2.293   7.882   8.880 -0.3451 -0.3032 -0.0454
   39POPC   C1A 1014   2.422   7.370   8.452 -0.0190 -0.0188  0.1369
   39POPC   D2A 1015   2.044   7.372   8.097  0.3215 -0.3309 -0.1423
   39POPC   C3A 1016   2.160   7.052   7.825 -0.2000  0.0533  0.0677
   39POPC   C4A 1017   1.936   6.722   7.720  0.0364 -0.0864 -0.1218
   39POPC   C1B 1018   2.214   7.819   8.395 -0.3159  0.0295  0.0265
   39POPC   C2B 1019   2.416   7.996   8.007  0.0382 -0.0561 -0.1409
   39POPC   C3B 1020   2.606   7.905   7.559  0.1274 -0.0759  0.1710
   39POPC   C4B 1021   2.853   7.732   7.366  0.2348 -0.0795  0.2129
   40POPC   NC3 1022   6.455   8.002   9.016 -0.1334 -0.1407  0.0669
   40POPC   PO4 1023   6.296   8.394   9.037  0.2809 -0.2406 -0.0380
   40POPC   GL1 1024   5.997   8.325   8.662  0.1006  0.1408 -0.1984
   40POPC   GL2 1025   5.902   8.581   8.554  0.0564 -0.1688  0.1674
   40POPC   C1A 1026   5.907   8.181   8.264  0.1468 -0.3941 -0.3380
   40POPC   D2A 1027   5.659   8.114   7.894 -0.1950  0.2762 -0.1555
   40POPC   C3A 1028   5.284   7.909   7.933  0.1542  0.2283  0.0906
   40POPC   C4A 1029   5.201   7.594   8.268  0.0967  0.1299 -0.0583
   40POPC   C1B 1030   5.558   8.525   8.243 -0.0633  0.0230  0.4016
   40POPC   C2B 1031   5.348   8.524   7.839  0.0846 -0.0211  0.0946
   40POPC   C3B 1032   5.136   8.344   7.549  0.3405  0.1275  0.0210
   40POPC   C4B 1033   5.049   8.631   7.176  0.1054 -0.2660 -0.0411
   41POPC   NC3 1034   7.136   3.093   9.341  0.0394 -0.0535 -0.0657
   41POPC   PO4 1035   7.513   2.953   9.096  0.1019  0.3212 -0.0702
   41POPC   GL1 1036   7.504   2.812   8.669 -0.0953 -0.0551 -0.3665
   41POPC   GL2 1037   7.338   2.479   8.520  0.1595 -0.0621 -0.0260
   41POPC   C1A 1038   7.784   2.659   8.431 -0.1233  0.1580 -0.1873
   41POPC   D2A 1039   8.140   2.470   8.124  0.0292 -0.0167  0.2314
   41POPC   C3A 1040   8.249   2.052   7.861  0.4133  0.0164  0.0502
   41POPC   C4A 1041   8.062   1.848   7.592 -0.1864 -0.1907  0.0503
   41POPC   C1B 1042   7.415   2.377   8.171  0.1099  0.2583  0.2161
   41POPC   C2B 1043   7.675   2.480   7.909 -0.0965  0.0831 -0.2229
   41POPC   C3B 1044   7.685   2.570   7.494  0.0750  0.0905  0.3814
   41POPC   C4B 1045   7.746   2.577   7.008  0.0135  0.0784 -0.0215
   42POPC   NC3 1046   4.799   8.120   9.006 -0.0709  0.2109 -0.1399
   42POPC   PO4 1047   5.256   8.242   9.075 -0.1029 -0.0159 -0.0433
   42POPC   GL1 1048   5.473   8.409   8.685  0.2264  0.0307 -0.2231
   42POPC   GL2 1049   5.463   8.780   8.617 -0.0136 -0.1522  0.1314
   42POPC   C1A 1050   5.481   8.042   8.342  0.0340  0.0537 -0.0835
   42POPC   D2A 1051   5.682   7.635   8.160  0.2033 -0.0857  0.1869
   42POPC   C3A 1052   5.859   7.613   7.864 -0.1527  0.1589 -0.2292
   42POPC   C4A 1053   6.071   7.646   7.392  0.2145 -0.1581 -0.1801
   42POPC   C1B 1054   5.496   9.044   8.251 -0.3058 -0.1624 -0.3525
   42POPC   C2B 1055   5.524   9.075   7.824  0.0686  0.1025  0.1893
   42POPC   C3B 1056   5.398   9.525   7.664  0.0083 -0.1259  0.2325
   42POPC   C4B 1057   4.918   9.809   7.560  0.0813  0.0050 -0.0792
   43POPC   NC3 1058   0.986   6.667   9.894  0.0545  0.0159 -0.3697
   43POPC   PO4 1059   1.251   6.369   9.681  0.2623 -0.3200  0.0562
   43POPC   GL1 1060   1.369   6.081   9.255  0.2150 -0.1714  0.2386
   43POPC   GL2 1061   1.476   5.792   9.199 -0.0519 -0.3082 -0.0075
   43POPC   C1A 1062   1.342   6.161   8.815  0.2003 -0.2585 -0.1113
   43POPC   D2A 1063   1.623   6.268   8.461  0.0469  0.0928 -0.3756
   43POPC   C3A 1064   1.851   5.988   8.293  0.0564  0.0105  0.1729
   43POPC   C4A 1065   1.810   5.747   7.909 -0.1358  0.0612 -0.2667
   43POPC   C1B 1066   1.656   5.746   8.691  0.6493 -0.0958  0.5711
   43POPC   C2B 1067   1.625   5.437   8.318 -0.0164 -0.1257 -0.0526
   43POPC   C3B 1068   1.399   5.080   8.342 -0.2495 -0.0710  0.0113
   43POPC   C4B 1069   1.557   4.651   8.514  0.0527  0.1466 -0.0427
   44POPC   NC3 1070   0.877   8.487   8.873  0.0639  0.0156  0.0980
   44POPC   PO4 1071   1.179   8.797   8.716 -0.0908  0.2378 -0.2043
   44POPC   GL1 1072   1.010   8.929   8.379 -0.0760 -0.2341 -0.1191
   44POPC   GL2 1073   1.336   8.971   8.304  0.0490 -0.0763 -0.1844
   44POPC   C1A 1074   0.934   9.310   8.126  0.0107  0.3532 -0.2539
   44POPC   D2A 1075   1.357   9.488   8.024 -0.2492 -0.1606 -0.1095
   44POPC   C3A 1076   1.439   9.887   8.241 -0.0145  0.0640 -0.0226
   44POPC   C4A 1077   1.835  10.187   8.372  0.2582 -0.0956  0.3415
   44POPC   C1B 1078   1.161   8.851   7.871  0.0906  0.0331 -0.0274
   44POPC   C2B 1079   1.156   8.564   7.560 -0.4654  0.0880  0.1624
   44POPC   C3B 1080   1.348   8.452   7.157  0.0638  0.1824  0.1529
   44POPC   C4B 1081   0.975   8.281   6.990 -0.0298  0.1735 -0.3431
   45POPC   NC3 1082   4.884   3.978   9.622  0.1030  0.2216 -0.3098
   45POPC   PO4 1083   4.734   4.219   9.378  0.1787 -0.1814  0.0964
   45POPC   GL1 1084   4.718   4.030   9.079 -0.3100 -0.1274 -0.1429
   45POPC   GL2 1085   4.897   3.799   9.038 -0.3207 -0.0793 -0.0672
   45POPC   C1A 1086   4.620   3.923   8.634 -0.3063  0.0447 -0.2179
   45POPC   D2A 1087   4.559   4.061   8.169  0.1612  0.0679  0.0762
   45POPC   C3A 1088   4.126   4.231   7.961  0.1488 -0.1902 -0.1363
   45POPC   C4A 1089   3.897   3.938   7.634 -0.2843 -0.1230 -0.0722
   45POPC   C1B 1090   5.013   3.392   8.921 -0.2582 -0.0804  0.0825
   45POPC   C2B 1091   4.840   3.202   8.581  0.1467 -0.4668  0.1018
   45POPC   C3B 1092   4.949   2.914   8.210 -0.0654  0.1528  0.1862
   45POPC   C4B 1093   5.152   2.673   8.022  0.1465  0.1817 -0.0563
   46POPC   NC3 1094   3.516   5.760  10.024  0.1918 -0.2115  0.0151
   46POPC   PO4 1095   3.274   6.048   9.912 -0.0974  0.0084 -0.0476
   46POPC   GL1 1096   3.294   5.945   9.497  0.0638  0.0051 -0.0646
   46POPC   GL2 1097   3.202   6.187   9.334  0.3092 -0.3295  0.0160
   46POPC   C1A 1098   3.362   5.681   9.163 -0.0635 -0.1026 -0.0356
   46POPC   D2A 1099   3.439   5.169   9.156 -0.0687 -0.0613  0.0290
   46POPC   C3A 1100   3.518   5.036   8.704 -0.1763  0.0495 -0.2557
   46POPC   C4A 1101   3.297   5.164   8.342  0.0967  0.1041  0.3637
   46POPC   C1B 1102   3.174   6.090   8.820  0.0540  0.1750  0.2311
   46POPC   C2B 1103   3.045   6.014   8.442 -0.0395 -0.0660 -0.0821
   46POPC   C3B 1104   2.861   5.992   7.985  0.0796 -0.0553 -0.1765
   46POPC   C4B 1105   2.715   6.284   7.727 -0.0172  0.0346 -0.1219
   47POPC   NC3 1106   4.249   5.430   9.564 -0.4482  0.1446 -0.1195
   47POPC   PO4 1107   4.238   4.974   9.668 -0.0652 -0.0894  0.0377
   47POPC   GL1 1108   4.143   4.705   9.242 -0.0836 -0.0799 -0.1638
   47POPC   GL2 1109   4.405   4.480   9.102  0.3031  0.0573  0.0583
   47POPC   C1A 1110   3.991   4.806   8.850  0.0613  0.0274 -0.0075
   47POPC   D2A 1111   4.124   4.635   8.356 -0.0808 -0.6065 -0.0287
   47POPC   C3A 1112   3.785   4.621   7.970  0.2277  0.1658  0.0886
   47POPC   C4A 1113   3.688   5.116   7.972  0.2030 -0.1712 -0.0676
   47POPC   C1B 1114   4.246   4.093   8.819  0.4838 -0.0129  0.0364
   47POPC   C2B 1115   4.193   3.906   8.402  0.1133 -0.3643  0.2547
   47POPC   C3B 1116   4.317   3.658   8.060  0.3116 -0.1578  0.0505
   47POPC   C4B 1117   4.583   3.825   7.730  0.1160  0.0046  0.1082
   48POPC   NC3 1118   8.578   5.347   9.443  0.3645 -0.1774 -0.0066
   48POPC   PO4 1119   8.510   5.332   8.982  0.0018 -0.0445 -0.1462
   48POPC   GL1 1120   8.691   5.185   8.585  0.2163  0.3669 -0.1297
   48POPC   GL2 1121   8.886   4.908   8.547 -0.2529 -0.2386 -0.3899
   48POPC   C1A 1122   8.414   5.167   8.256 -0.1076 -0.1525 -0.0439
   48POPC   D2A 1123   8.443   5.186   7.836 -0.1054 -0.4431  0.3348
   48POPC   C3A 1124   8.698   4.952   7.509  0.3111 -0.0593  0.1388
   48POPC   C4A 1125   8.759   5.018   7.031 -0.2364 -0.0460  0.1377
   48POPC   C1B 1126   9.037   4.434   8.386 -0.1789  0.0343 -0.1179
   48POPC   C2B 1127   8.940   4.363   7.912  0.0379 -0.1138  0.0474
   48POPC   C3B 1128   9.104   4.652   7.658 -0.1294 -0.0864 -0.0083
   48POPC   C4B 1129   9.374   4.995   7.668  0.1543  0.0142  0.0423
   49POPC   NC3 1130   2.804   2.893  10.039 -0.2561  0.0534  0.0004
   49POPC   PO4 1131   3.165   2.853   9.760  0.0927  0.0760 -0.3035
   49POPC   GL1 1132   3.233   2.738   9.335  0.0281  0.1855 -0.0924
   49POPC   GL2 1133   3.306   2.944   9.136  0.0336 -0.0718  0.0917
   49POPC   C1A 1134   3.517   2.605   8.836 -0.2674 -0.2877  0.3326
   49POPC   D2A 1135   3.910   2.638   8.703  0.1495  0.2361  0.2180
   49POPC   C3A 1136   3.739   2.454   8.342  0.1174 -0.0955 -0.2009
   49POPC   C4A 1137   3.346   2.241   8.191 -0.3981 -0.0087  0.0263
   49POPC   C1B 1138   3.203   2.996   8.747  0.0248  0.2913 -0.1070
   49POPC   C2B 1139   3.147   3.259   8.305 -0.3932 -0.1041  0.0749
   49POPC   C3B 1140   3.372   3.524   8.057  0.1877 -0.1512  0.3673
   49POPC   C4B 1141   3.796   3.629   8.004 -0.1177  0.2154 -0.0212
   50POPC   NC3 1142   1.911   0.809   9.404  0.0734 -0.0496 -0.0502
   50POPC   PO4 1143   1.695   0.370   9.256  0.0120 -0.0268 -0.2874
   50POPC   GL1 1144   1.701   0.286   8.878  0.1565  0.1906  0.2634
   50POPC   GL2 1145   2.030   0.227   8.735  0.0356 -0.0241 -0.1553
   50POPC   C1A 1146   1.333   0.163   8.532 -0.3627 -0.1878 -0.3306
   50POPC   D2A 1147   1.293   0.107   8.066 -0.1387 -0.2417 -0.1774
   50POPC   C3A 1148   1.096  -0.281   7.922  0.0169 -0.2294  0.0899
   50POPC   C4A 1149   0.876  -0.447   8.261 -0.1310  0.2025  0.1238
   50POPC   C1B 1150   1.895   0.501   8.445  0.0618  0.0260 -0.1781
   50POPC   C2B 1151   2.007   0.657   8.068 -0.1180 -0.0535 -0.0951
   50POPC   C3B 1152   1.963   0.571   7.645  0.0258  0.1007  0.2346
   50POPC   C4B 1153   1.945   0.327   7.264  0.1085 -0.1009  0.0480
   51POPC   NC3 1154   8.076   1.110   9.246 -0.0801 -0.1948  0.0218
   51POPC   PO4 1155   7.932   1.069   8.715  0.2650 -0.1076  0.1958
   51POPC   GL1 1156   7.799   1.081   8.370  0.1264 -0.2645  0.0083
   51POPC   GL2 1157   7.674   0.710   8.336  0.0076  0.1161  0.1753
   51POPC   C1A 1158   7.878   1.184   8.009  0.2498 -0.2973 -0.1684
   51POPC   D2A 1159   7.815   1.411   7.591  0.2267  0.0594  0.1420
   51POPC   C3A 1160   7.484   1.636   7.409  0.1406  0.1600 -0.3247
   51POPC   C4A 1161   7.408   1.615   7.007  0.0202  0.2242 -0.0292
   51POPC   C1B 1162   7.652   0.744   7.928  0.0699 -0.3405 -0.3348
   51POPC   C2B 1163   8.009   0.767   7.662  0.0551  0.0258 -0.0764
   51POPC   C3B 1164   8.153   1.035   7.310  0.1646  0.1384 -0.2863
   51POPC   C4B 1165   8.330   1.033   6.910  0.3307  0.0098 -0.0310
   52POPC   NC3 1166   8.793   7.934   9.119  0.3852 -0.1357  0.0262
   52POPC   PO4 1167   8.678   7.479   9.103 -0.3224 -0.0174  0.0753
   52POPC   GL1 1168   8.611   7.555   8.655  0.0979 -0.3664 -0.3468
   52POPC   GL2 1169   8.391   7.774   8.643 -0.1466  0.1542 -0.0299
   52POPC   C1A 1170   8.660   7.512   8.118 -0.0577  0.3388  0.0464
   52POPC   D2A 1171   8.481   7.314   7.791 -0.0727 -0.0766  0.1642
   52POPC   C3A 1172   8.338   6.946   7.772 -0.0968  0.1625  0.0380
   52POPC   C4A 1173   8.344   6.547   7.701 -0.0113  0.1655 -0.1101
   52POPC   C1B 1174   8.648   7.996   8.308 -0.1296  0.0815 -0.0075
   52POPC   C2B 1175   8.945   7.946   8.106  0.1134 -0.1693  0.0686
   52POPC   C3B 1176   9.222   7.900   7.730  0.0777 -0.0985  0.0162
   52POPC   C4B 1177   9.251   7.732   7.295 -0.3715 -0.0809 -0.0390
   53POPC   NC3 1178   6.269   5.583   8.794 -0.1813 -0.0491 -0.2833
   53POPC   PO4 1179   6.601   5.953   8.788  0.0124 -0.2184  0.0007
   53POPC   GL1 1180   6.731   5.775   8.519  0.3895  0.0966 -0.0137
   53POPC   GL2 1181   6.459   5.571   8.361  0.1434  0.2269  0.0471
   53POPC   C1A 1182   6.994   5.667   8.110  0.2526  0.0677  0.3105
   53POPC   D2A 1183   6.876   5.458   7.723  0.3695 -0.3020  0.4917
   53POPC   C3A 1184   6.653   5.667   7.511  0.0871 -0.1849  0.0496
   53POPC   C4A 1185   6.655   5.621   6.955  0.3478  0.1787  0.0655
   53POPC   C1B 1186   6.458   5.723   7.995 -0.1598 -0.1630  0.2802
   53POPC   C2B 1187   6.400   6.131   7.684 -0.0327 -0.1456 -0.2819
   53POPC   C3B 1188   6.338   6.476   7.317 -0.3606 -0.3328 -0.0881
   53POPC   C4B 1189   6.675   6.589   6.950 -0.0057  0.1005  0.3592
   54POPC   NC3 1190   6.612   3.282   9.308  0.0582 -0.1510 -0.2233
   54POPC   PO4 1191   6.733   3.532   8.918 -0.2076  0.1782  0.1399
   54POPC   GL1 1192   6.568   3.248   8.587 -0.0015  0.0533  0.3042
   54POPC   GL2 1193   6.802   3.357   8.240  0.0737  0.0469 -0.0443
   54POPC   C1A 1194   6.212   3.187   8.335  0.0174 -0.0780  0.2443
   54POPC   D2A 1195   5.978   3.112   7.929  0.0768 -0.1466  0.2163
   54POPC   C3A 1196   6.016   3.042   7.499 -0.0474  0.1088  0.0534
   54POPC   C4A 1197   6.356   2.963   7.184 -0.1040  0.1842 -0.0331
   54POPC   C1B 1198   6.455   3.608   8.007  0.0517 -0.0172  0.3338
   54POPC   C2B 1199   6.417   3.921   7.693  0.0948 -0.0404 -0.4410
   54POPC   C3B 1200   6.378   4.183   7.335  0.1606  0.2482 -0.2203
   54POPC   C4B 1201   6.111   4.344   7.028 -0.2136  0.0356 -0.0691
   55POPC   NC3 1202   2.340  10.046   8.792  0.4174 -0.0427 -0.0310
   55POPC   PO4 1203   2.522  10.362   8.876  0.2174  0.0598  0.1522
   55POPC   GL1 1204   2.512  10.229   8.389  0.2541 -0.5166 -0.2026
   55POPC   GL2 1205   2.481   9.963   8.139 -0.1749  0.0840 -0.2798
   55POPC   C1A 1206   2.173  10.399   8.018 -0.0520 -0.1083 -0.0697
   55POPC   D2A 1207   1.719  10.420   7.866  0.3346 -0.1443 -0.1048
   55POPC   C3A 1208   1.648  10.244   7.492 -0.0766  0.3523  0.0684
   55POPC   C4A 1209   1.169  10.069   7.441  0.1442  0.1410  0.0442
   55POPC   C1B 1210   2.420  10.001   7.784 -0.0146  0.1803 -0.4224
   55POPC   C2B 1211   2.357  10.364   7.573  0.3969  0.0020 -0.0766
   55POPC   C3B 1212   2.483  10.796   7.354  0.0123 -0.1459 -0.2373
   55POPC   C4B 1213   2.706  11.251   7.205 -0.0083  0.0621  0.0165
   56POPC   NC3 1214   2.503   5.512   9.922  0.3167 -0.3026  0.0278
   56POPC   PO4 1215   2.048   5.630   9.974  0.2454  0.0177 -0.0495
   56POPC   GL1 1216   2.139   5.564   9.548 -0.0956  0.1336 -0.1228
   56POPC   GL2 1217   2.209   5.273   9.482  0.1530  0.0509  0.0417
   56POPC   C1A 1218   2.302   5.456   8.994  0.0700  0.0075  0.0664
   56POPC   D2A 1219   2.600   5.218   8.777 -0.1444  0.0614  0.1980
   56POPC   C3A 1220   2.867   5.399   8.390 -0.0287 -0.2543  0.2987
   56POPC   C4A 1221   2.742   5.386   7.893 -0.1291 -0.2238 -0.0375
   56POPC   C1B 1222   2.568   4.899   9.363 -0.0365  0.0253 -0.2004
   56POPC   C2B 1223   2.698   4.550   9.379  0.0087  0.2201 -0.2363
   56POPC   C3B 1224   2.670   4.079   9.367 -0.0927  0.1363 -0.3268
   56POPC   C4B 1225   2.603   3.594   9.129 -0.3728  0.2080 -0.1016
   57POPC   NC3 1226   7.257   3.563   8.604 -0.2243  0.0907  0.0566
   57POPC   PO4 1227   7.586   3.295   8.748  0.0957 -0.0973  0.1315
   57POPC   GL1 1228   7.621   3.437   8.271 -0.2345  0.1852  0.0854
   57POPC   GL2 1229   7.310   3.452   8.115 -0.2935 -0.1148  0.4067
   57POPC   C1A 1230   7.746   3.504   7.796 -0.0884  0.1373  0.2502
   57POPC   D2A 1231   7.861   3.692   7.419  0.0061 -0.3784  0.0466
   57POPC   C3A 1232   7.736   3.386   7.121 -0.1342 -0.0634 -0.1192
   57POPC   C4A 1233   7.982   3.049   6.862  0.2442 -0.1952  0.2722
   57POPC   C1B 1234   7.023   3.195   7.819 -0.2014 -0.4261 -0.2810
   57POPC   C2B 1235   6.841   2.895   7.501  0.0566 -0.0779  0.3531
   57POPC   C3B 1236   6.829   2.759   7.129  0.1407  0.1367 -0.0860
   57POPC   C4B 1237   7.001   2.675   6.764  0.0017  0.3879 -0.1083
   58POPC   NC3 1238   3.512   8.306   9.664  0.0093  0.0619  0.1332
   58POPC   PO4 1239   3.513   8.028   9.364 -0.0020 -0.1829 -0.2093
   58POPC   GL1 1240   3.833   7.904   9.015 -0.1790  0.2912  0.0655
   58POPC   GL2 1241   3.677   7.598   9.042  0.0270  0.0296  0.0551
   58POPC   C1A 1242   3.912   7.881   8.624 -0.0724  0.1355  0.2116
   58POPC   D2A 1243   3.884   7.748   8.231  0.1036 -0.0667 -0.1161
   58POPC   C3A 1244   3.763   7.735   7.863  0.0246 -0.1024 -0.1930
   58POPC   C4A 1245   3.983   7.567   7.531  0.0176  0.3259  0.0424
   58POPC   C1B 1246   3.778   7.417   8.671 -0.0606  0.0811 -0.0342
   58POPC   C2B 1247   3.733   7.321   8.264  0.3822  0.1711 -0.1324
   58POPC   C3B 1248   3.765   7.163   7.835  0.0161  0.3273 -0.1392
   58POPC   C4B 1249   3.753   7.060   7.430 -0.1984 -0.3617 -0.3894
   59POPC   NC3 1250   0.233   3.818   9.338 -0.0026  0.1847 -0.2545
   59POPC   PO4 1251   0.448   4.139   9.276  0.0903  0.2399 -0.0057
   59POPC   GL1 1252   0.203   4.455   8.932  0.1045 -0.0441  0.1367
   59POPC   GL2 1253   0.536   4.564   8.899 -0.1647  0.2212  0.0743
   59POPC   C1A 1254   0.081   4.481   8.507  0.2459  0.0983 -0.0376
   59POPC   D2A 1255  -0.233   4.368   8.163  0.2194 -0.2665  0.2502
   59POPC   C3A 1256  -0.167   4.492   7.677 -0.0370  0.0452  0.1277
   59POPC   C4A 1257  -0.298   4.726   7.380  0.1459  0.0066 -0.0495
   59POPC   C1B 1258   0.903   4.395   8.729 -0.3175  0.2448  0.0247
   59POPC   C2B 1259   0.962   4.007   8.577 -0.2646 -0.0706 -0.0157
   59POPC   C3B 1260   0.989   3.504   8.653 -0.1287 -0.1826 -0.1065
   59POPC   C4B 1261   1.144   3.240   8.310 -0.1866 -0.2733  0.0573
   60POPC   NC3 1262   5.939   8.828   8.990  0.2875 -0.4436 -0.1278
   60POPC   PO4 1263   6.244   9.246   8.898 -0.0624 -0.0054 -0.0643
   60POPC   GL1 1264   6.479   8.953   8.755  0.1287  0.2069  0.4469
   60POPC   GL2 1265   6.415   8.694   8.672  0.2423 -0.1805  0.2285
   60POPC   C1A 1266   6.813   8.908   8.436  0.1588  0.0653  0.1066
   60POPC   D2A 1267   6.729   8.618   7.967  0.1611 -0.2128 -0.4383
   60POPC   C3A 1268   6.962   8.308   8.001 -0.4402  0.1272  0.0092
   60POPC   C4A 1269   6.909   7.771   7.954 -0.0862 -0.1771 -0.1512
   60POPC   C1B 1270   6.404   8.443   8.356  0.2519  0.0790  0.2286
   60POPC   C2B 1271   6.280   8.387   8.004 -0.4392  0.0240  0.0006
   60POPC   C3B 1272   6.274   8.632   7.660 -0.0386 -0.2417  0.2727
   60POPC   C4B 1273   6.308   9.047   7.362  0.0894  0.0684  0.0590
   61POPC   NC3 1274   2.056   3.940  10.009  0.1943  0.1720  0.0960
   61POPC   PO4 1275   2.467   3.715  10.020 -0.1784 -0.0117 -0.1137
   61POPC   GL1 1276   2.311   3.700   9.549 -0.1171  0.1353 -0.0525
   61POPC   GL2 1277   1.901   3.600   9.576  0.1921  0.0734 -0.0028
   61POPC   C1A 1278   2.111   3.743   9.067  0.0978 -0.0468 -0.1237
   61POPC   D2A 1279   2.018   4.018   8.822  0.0463 -0.0944  0.3854
   61POPC   C3A 1280   2.057   4.437   8.783 -0.3156  0.3133  0.1246
   61POPC   C4A 1281   2.051   4.557   8.331 -0.0367  0.0284  0.2271
   61POPC   C1B 1282   2.126   3.226   9.410 -0.1156 -0.2361  0.1148
   61POPC   C2B 1283   2.430   3.126   8.997  0.2317  0.2347 -0.3950
   61POPC   C3B 1284   2.775   2.890   9.113  0.0352  0.1499  0.0354
   61POPC   C4B 1285   2.957   2.536   8.918  0.0986  0.4845 -0.3828
   62POPC   NC3 1286   5.462   3.932   9.646 -0.0562  0.1883  0.0536
   62POPC   PO4 1287   5.422   3.966   9.136 -0.0984  0.3775  0.0500
   62POPC   GL1 1288   5.474   3.725   8.810  0.1965  0.2757  0.2795
   62POPC   GL2 1289   5.759   3.752   8.632 -0.1875 -0.0538  0.1431
   62POPC   C1A 1290   5.277   3.509   8.462 -0.0474 -0.1900 -0.1904
   62POPC   D2A 1291   5.281   3.319   8.061  0.3061 -0.0918 -0.0991
   62POPC   C3A 1292   5.517   3.011   8.067 -0.1010  0.1438 -0.2334
   62POPC   C4A 1293   5.813   2.783   8.282 -0.0659  0.0883  0.1488
   62POPC   C1B 1294   5.604   3.972   8.372  0.0851  0.2512 -0.0191
   62POPC   C2B 1295   5.128   4.009   8.453 -0.1832 -0.0383 -0.2178
   62POPC   C3B 1296   4.850   4.338   8.412  0.2719  0.1911 -0.2184
   62POPC   C4B 1297   4.547   4.444   8.544 -0.1936  0.3118 -0.0283
   63POPC   NC3 1298   2.742   6.228  10.566  0.1674  0.0350 -0.0741
   63POPC   PO4 1299   2.802   5.972  10.093  0.1254 -0.1653  0.2075
   63POPC   GL1 1300   2.786   5.861   9.613 -0.1256  0.1394  0.1724
   63POPC   GL2 1301   2.749   5.545   9.518 -0.1727 -0.0536 -0.1190
   63POPC   C1A 1302   2.807   5.931   9.127 -0.0017 -0.3638  0.2424
   63POPC   D2A 1303   2.666   5.732   8.780  0.0671 -0.0063  0.0622
   63POPC   C3A 1304   2.516   5.776   8.318  0.1242 -0.3444 -0.3430
   63POPC   C4A 1305   2.354   5.762   7.873 -0.1839 -0.2319  0.0864
   63POPC   C1B 1306   2.884   5.385   9.142  0.1713  0.0330 -0.0992
   63POPC   C2B 1307   3.088   5.269   8.803 -0.0608 -0.0793 -0.0900
   63POPC   C3B 1308   3.275   5.581   8.580 -0.1352  0.0865  0.1918
   63POPC   C4B 1309   3.540   5.944   8.473 -0.1274  0.0257  0.1634
   64POPC   NC3 1310   6.826   6.503   9.068 -0.1585  0.1062  0.1613
   64POPC   PO4 1311   6.573   6.509   8.775  0.3731 -0.1749 -0.2760
   64POPC   GL1 1312   6.566   6.255   8.407 -0.2412  0.0485 -0.2932
   64POPC   GL2 1313   6.240   6.066   8.430  0.0828 -0.0489 -0.0638
   64POPC   C1A 1314   6.743   6.133   8.066 -0.1142 -0.2228 -0.1454
   64POPC   D2A 1315   6.928   6.052   7.704 -0.0387 -0.1667 -0.0647
   64POPC   C3A 1316   7.281   5.770   7.616 -0.2258 -0.1984 -0.2686
   64POPC   C4A 1317   7.419   5.389   7.477 -0.1533 -0.0319  0.0164
   64POPC   C1B 1318   6.240   6.364   8.138 -0.1399 -0.3347  0.0865
   64POPC   C2B 1319   6.557   6.599   7.918  0.1569  0.1147 -0.0452
   64POPC   C3B 1320   6.708   6.957   7.863  0.2313 -0.1064  0.2420
   64POPC   C4B 1321   7.017   7.142   7.510  0.1633  0.1357  0.1084
   65POPC   NC3 1322   7.982   4.883   9.104 -0.4565 -0.1576 -0.4382
   65POPC   PO4 1323   7.841   4.577   8.847  0.1426 -0.0565 -0.4748
   65POPC   GL1 1324   7.824   4.749   8.394 -0.1374  0.1940  0.4243
   65POPC   GL2 1325   7.721   5.042   8.390 -0.0992  0.1108  0.1063
   65POPC   C1A 1326   8.000   4.658   8.006  0.2786  0.3443  0.4201
   65POPC   D2A 1327   8.491   4.688   7.930 -0.6559 -0.2103 -0.0678
   65POPC   C3A 1328   8.759   4.877   8.017  0.2581 -0.1899  0.1182
   65POPC   C4A 1329   9.173   4.866   8.127  0.1875 -0.1155 -0.0208
   65POPC   C1B 1330   7.680   5.080   7.868  0.3132 -0.2597 -0.2387
   65POPC   C2B 1331   7.933   5.296   7.585  0.1327  0.1004 -0.1197
   65POPC   C3B 1332   8.281   5.519   7.516 -0.2664  0.4360 -0.0124
   65POPC   C4B 1333   8.708   5.483   7.322 -0.1309  0.2242  0.1899
   66POPC   NC3 1334   0.157   7.125   9.708 -0.2003  0.2019  0.2149
   66POPC   PO4 1335   0.389   6.972   9.394  0.2014  0.1997 -0.0027
   66POPC   GL1 1336   0.696   6.992   9.047  0.0343  0.0119  0.0152
   66POPC   GL2 1337   0.451   7.128   8.850 -0.1635 -0.0459  0.0552
   66POPC   C1A 1338   0.953   7.059   8.651  0.1579 -0.1199 -0.0653
   66POPC   D2A 1339   1.202   6.950   8.267 -0.0909 -0.2815  0.0102
   66POPC   C3A 1340   0.934   6.836   7.886  0.0759  0.0435  0.2543
   66POPC   C4A 1341   0.934   6.372   7.902  0.1390  0.0522 -0.4238
   66POPC   C1B 1342   0.562   7.343   8.404  0.1088 -0.0357 -0.1867
   66POPC   C2B 1343   0.671   7.283   7.881 -0.0322 -0.1476  0.1507
   66POPC   C3B 1344   0.446   7.285   7.523  0.1829 -0.1495 -0.0586
   66POPC   C4B 1345   0.473   7.431   7.064 -0.2136 -0.4037 -0.2228
   67POPC   NC3 1346   4.602   0.672   9.779  0.0822  0.1126  0.3252
   67POPC   PO4 1347   4.435   0.861   9.341  0.2034  0.0271  0.2317
   67POPC   GL1 1348   4.303   1.229   9.092 -0.3068 -0.0841  0.1502
   67POPC   GL2 1349   4.151   1.063   8.848 -0.2830 -0.1243  0.1367
   67POPC   C1A 1350   4.287   1.460   8.622  0.1652  0.1671 -0.1327
   67POPC   D2A 1351   4.279   1.655   8.297  0.1318 -0.1388  0.0149
   67POPC   C3A 1352   4.461   1.528   7.926 -0.0155  0.3546 -0.0676
   67POPC   C4A 1353   4.485   1.740   7.569 -0.3680  0.1893 -0.0068
   67POPC   C1B 1354   4.424   1.064   8.459 -0.1392 -0.0231 -0.3685
   67POPC   C2B 1355   4.580   1.018   8.034 -0.2509  0.2052  0.0076
   67POPC   C3B 1356   4.543   1.081   7.541 -0.3256 -0.2146  0.3154
   67POPC   C4B 1357   4.395   1.131   7.110  0.1741 -0.0521 -0.5893
   68POPC   NC3 1358   7.560   1.981   9.421 -0.1657  0.1609  0.0239
   68POPC   PO4 1359   7.950   1.998   9.124  0.0157 -0.1109 -0.1136
   68POPC   GL1 1360   8.283   1.899   8.743  0.3190  0.1390  0.0794
   68POPC   GL2 1361   7.971   1.763   8.536 -0.0981 -0.2476 -0.0665
   68POPC   C1A 1362   8.409   1.981   8.355 -0.0103 -0.1449  0.0916
   68POPC   D2A 1363   8.819   1.949   8.050 -0.0154 -0.2346  0.1072
   68POPC   C3A 1364   9.138   2.316   8.106  0.0229  0.0807 -0.1441
   68POPC   C4A 1365   9.470   2.411   7.971  0.4282  0.1479  0.2553
   68POPC   C1B 1366   7.858   2.049   8.216 -0.4462 -0.0299  0.1718
   68POPC   C2B 1367   7.615   2.009   7.836  0.1377 -0.1804  0.0083
   68POPC   C3B 1368   7.699   2.115   7.323 -0.0944 -0.1267 -0.0194
   68POPC   C4B 1369   7.717   2.057   6.964  0.0939  0.4105  0.5034
   69POPC   NC3 1370   2.635   0.647   8.877 -0.0085 -0.1202 -0.1248
   69POPC   PO4 1371   2.346   0.940   9.047 -0.1915  0.0928 -0.0567
   69POPC   GL1 1372   2.255   0.795   8.614  0.2439  0.1593 -0.2000
   69POPC   GL2 1373   2.457   0.521   8.422  0.0780  0.0221 -0.1121
   69POPC   C1A 1374   2.252   1.089   8.288 -0.2711  0.1493 -0.2384
   69POPC   D2A 1375   2.086   1.154   7.873 -0.0518  0.3827 -0.1796
   69POPC   C3A 1376   2.296   1.031   7.597 -0.0514 -0.0060  0.1090
   69POPC   C4A 1377   2.229   1.008   7.127 -0.2066 -0.2468  0.0748
   69POPC   C1B 1378   2.573   0.740   8.075 -0.2769 -0.0135  0.0434
   69POPC   C2B 1379   2.763   0.982   7.724  0.1496 -0.0906 -0.1373
   69POPC   C3B 1380   2.861   1.439   7.476  0.3247  0.0878  0.1033
   69POPC   C4B 1381   3.037   1.907   7.334  0.1282 -0.0034 -0.1956
   70POPC   NC3 1382   9.686   3.595   9.725 -0.4375  0.0721  0.2356
   70POPC   PO4 1383   9.864   3.797   9.398  0.0765 -0.5292  0.1879
   70POPC   GL1 1384  10.061   3.679   8.978  0.1757 -0.3315  0.0488
   70POPC   GL2 1385  10.024   3.921   8.727  0.1167  0.1792  0.2125
   70POPC   C1A 1386  10.152   3.478   8.589  0.1257 -0.1072 -0.0685
   70POPC   D2A 1387  10.548   3.420   8.300  0.1312  0.1532  0.0640
   70POPC   C3A 1388  10.858   3.662   8.347 -0.0377  0.0244 -0.2166
   70POPC   C4A 1389  11.143   3.874   8.090  0.0084  0.2422  0.1371
   70POPC   C1B 1390  10.119   3.853   8.297 -0.3309 -0.2652 -0.0586
   70POPC   C2B 1391  10.162   3.615   7.906 -0.0447 -0.0844  0.0294
   70POPC   C3B 1392  10.297   3.610   7.497 -0.0779 -0.4831  0.1394
   70POPC   C4B 1393  10.546   3.433   7.148  0.0589 -0.3700  0.0970
   71POPC   NC3 1394   6.430   0.285   8.720  0.0585  0.0827  0.0402
   71POPC   PO4 1395   6.070   0.519   8.732 -0.1455  0.0646  0.1754
   71POPC   GL1 1396   6.295   0.623   8.288  0.1378  0.0143 -0.0721
   71POPC   GL2 1397   6.617   0.526   8.129  0.0158  0.0431 -0.0772
   71POPC   C1A 1398   6.352   0.802   7.898  0.1117  0.0853 -0.5137
   71POPC   D2A 1399   6.390   1.095   7.661 -0.0581 -0.1149  0.1300
   71POPC   C3A 1400   6.074   1.400   7.505 -0.1663 -0.1329 -0.0783
   71POPC   C4A 1401   5.595   1.303   7.442 -0.0879 -0.0243 -0.0681
   71POPC   C1B 1402   6.699   0.389   7.729 -0.2302 -0.0696  0.2941
   71POPC   C2B 1403   6.817   0.677   7.400  0.2487  0.2181  0.3248
   71POPC   C3B 1404   6.938   1.004   7.134 -0.1115 -0.1045  0.2229
   71POPC   C4B 1405   7.287   1.193   7.311 -0.0578  0.0804  0.1407
   72POPC   NC3 1406   8.137   0.673   9.033  0.1435 -0.0174 -0.4341
   72POPC   PO4 1407   7.960   0.301   9.212 -0.2943  0.0825 -0.0802
   72POPC   GL1 1408   8.167   0.076   8.946 -0.0424 -0.2799  0.1493
   72POPC   GL2 1409   8.349  -0.138   9.049 -0.0732 -0.0214  0.4082
   72POPC   C1A 1410   8.053   0.039   8.478  0.1953  0.0651  0.1599
   72POPC   D2A 1411   7.771   0.060   8.199  0.1309 -0.0008  0.0512
   72POPC   C3A 1412   7.889   0.213   7.717 -0.0735 -0.0318 -0.2048
   72POPC   C4A 1413   8.086   0.333   7.384 -0.0299  0.1067  0.0553
   72POPC   C1B 1414   8.536  -0.194   8.702 -0.2374 -0.1023 -0.0296
   72POPC   C2B 1415   8.802  -0.240   8.333 -0.0475  0.1403  0.2950
   72POPC   C3B 1416   8.787  -0.136   7.934  0.1708  0.1617  0.2169
   72POPC   C4B 1417   8.401  -0.079   7.571  0.2403  0.2120  0.1228
   73POPC   NC3 1418   9.118   7.426   9.204  0.1541 -0.0803 -0.1372
   73POPC   PO4 1419   9.271   7.862   9.169 -0.0256  0.1475 -0.3244
   73POPC   GL1 1420   9.205   7.674   8.731 -0.1003  0.1601 -0.0147
   73POPC   GL2 1421   9.076   7.844   8.579 -0.0010  0.1633  0.2285
   73POPC   C1A 1422   9.285   7.445   8.349 -0.1110  0.2660  0.0154
   73POPC   D2A 1423   9.168   7.458   7.999 -0.0932  0.3131 -0.1365
   73POPC   C3A 1424   9.042   7.289   7.538 -0.1981 -0.0989  0.3930
   73POPC   C4A 1425   9.263   7.066   7.213  0.4425 -0.0165  0.2925
   73POPC   C1B 1426   9.169   8.242   8.492  0.2946  0.2393 -0.1525
   73POPC   C2B 1427   9.317   8.520   8.199 -0.1221 -0.0404 -0.0413
   73POPC   C3B 1428   9.656   8.495   7.880  0.4027 -0.0314  0.0724
   73POPC   C4B 1429   9.899   8.716   7.501  0.1126  0.0091  0.1569
   74POPC   NC3 1430   9.338   8.734   9.194 -0.1605  0.1700  0.2180
   74POPC   PO4 1431   8.966   8.684   9.346 -0.0480 -0.0412  0.1311
   74POPC   GL1 1432   8.759   8.752   8.866 -0.3503  0.2640 -0.0727
   74POPC   GL2 1433   9.059   8.745   8.642 -0.0075  0.0215 -0.3940
   74POPC   C1A 1434   8.421   8.952   8.678 -0.1685 -0.0691 -0.1147
   74POPC   D2A 1435   8.134   9.147   8.508  0.0491 -0.1371  0.0440
   74POPC   C3A 1436   8.040   9.284   8.117  0.2251  0.0338  0.3352
   74POPC   C4A 1437   7.946   9.321   7.707 -0.0914 -0.0593  0.3239
   74POPC   C1B 1438   8.982   8.953   8.316  0.1828  0.2797 -0.3584
   74POPC   C2B 1439   8.868   9.202   7.895 -0.2226  0.1250 -0.1717
   74POPC   C3B 1440   8.968   9.237   7.506 -0.2343 -0.1294 -0.2202
   74POPC   C4B 1441   9.185   9.386   7.159 -0.1429  0.0456 -0.0624
   75POPC   NC3 1442   2.467   9.562   8.984 -0.3354 -0.2536  0.0026
   75POPC   PO4 1443   2.048   9.685   9.022 -0.1961  0.0415  0.2967
   75POPC   GL1 1444   2.222   9.615   8.556 -0.0111 -0.0367  0.2317
   75POPC   GL2 1445   2.368   9.452   8.169 -0.1387 -0.2877  0.0279
   75POPC   C1A 1446   1.945   9.746   8.174 -0.0304  0.5444 -0.0189
   75POPC   D2A 1447   1.762   9.890   7.828 -0.1708 -0.0210 -0.0090
   75POPC   C3A 1448   1.467   9.678   7.595  0.0558 -0.1333 -0.0434
   75POPC   C4A 1449   1.565   9.730   7.209 -0.0659 -0.1610 -0.0585
   75POPC   C1B 1450   2.618   9.526   7.928 -0.0198  0.0791  0.1083
   75POPC   C2B 1451   2.751   9.710   7.561 -0.0016  0.0460  0.1694
   75POPC   C3B 1452   3.088   9.731   7.270  0.1682  0.4786  0.0533
   75POPC   C4B 1453   3.516   9.950   7.130  0.0353 -0.0143 -0.2470
   76POPC   NC3 1454   8.226   6.557   8.983 -0.2308 -0.1189 -0.2005
   76POPC   PO4 1455   7.964   6.943   9.049  0.0308 -0.1694 -0.2446
   76POPC   GL1 1456   7.977   7.064   8.553  0.3072  0.4956 -0.2101
   76POPC   GL2 1457   8.279   7.220   8.463  0.0599  0.1036 -0.2371
   76POPC   C1A 1458   7.967   7.167   8.000 -0.1471 -0.0352  0.0816
   76POPC   D2A 1459   7.957   7.163   7.514  0.0071  0.0967  0.3488
   76POPC   C3A 1460   7.712   7.535   7.288 -0.0386  0.4085 -0.0252
   76POPC   C4A 1461   7.482   7.949   7.257  0.1249  0.2848 -0.0311
   76POPC   C1B 1462   8.579   6.977   8.206  0.0483 -0.1848  0.0270
   76POPC   C2B 1463   8.751   6.625   7.944  0.0211  0.0726 -0.3623
   76POPC   C3B 1464   8.861   6.655   7.585 -0.2041  0.1519  0.2124
   76POPC   C4B 1465   9.060   6.636   7.277  0.0191 -0.3747  0.0476
   77POPC   NC3 1466   1.247   3.305  10.210 -0.2117 -0.2973 -0.0227
   77POPC   PO4 1467   1.469   3.604   9.980  0.1294  0.0408  0.2470
   77POPC   GL1 1468   1.314   3.346   9.686 -0.0353 -0.2159 -0.1354
   77POPC   GL2 1469   0.988   3.338   9.582  0.0045 -0.4376  0.0395
   77POPC   C1A 1470   1.508   3.243   9.231 -0.1308  0.1457 -0.0235
   77POPC   D2A 1471   1.285   3.083   8.980  0.0434  0.1357 -0.0216
   77POPC   C3A 1472   1.487   3.465   8.592 -0.0473  0.2611 -0.0176
   77POPC   C4A 1473   1.470   3.821   8.185  0.2114  0.2409 -0.4313
   77POPC   C1B 1474   1.128   3.593   9.134 -0.1652  0.1477 -0.2339
   77POPC   C2B 1475   1.170   4.120   9.142  0.0143 -0.1002  0.0518
   77POPC   C3B 1476   1.214   4.592   9.103  0.3022  0.3383  0.3827
   77POPC   C4B 1477   1.156   4.889   8.833 -0.1033 -0.0422 -0.0037
   78POPC   NC3 1478   2.783   1.137   9.134 -0.2473  0.3842  0.1019
   78POPC   PO4 1479   3.102   0.823   9.014  0.2870  0.0132 -0.3968
   78POPC   GL1 1480   3.067   0.954   8.649  0.3899 -0.0988 -0.0584
   78POPC   GL2 1481   2.678   1.119   8.613 -0.3427  0.0214  0.2072
   78POPC   C1A 1482   3.023   0.769   8.159 -0.6581 -0.0178  0.1199
   78POPC   D2A 1483   3.237   0.821   7.806  0.0566  0.2216 -0.0983
   78POPC   C3A 1484   3.271   1.155   7.426 -0.3367 -0.0857 -0.1182
   78POPC   C4A 1485   3.217   1.301   7.108  0.1416 -0.5164 -0.1263
   78POPC   C1B 1486   2.778   1.158   8.298  0.1030  0.0232  0.1948
   78POPC   C2B 1487   2.915   1.366   8.001  0.2187 -0.3371 -0.0452
   78POPC   C3B 1488   3.318   1.527   7.795 -0.1342 -0.1514  0.0815
   78POPC   C4B 1489   3.518   1.616   7.452 -0.0055  0.1096  0.2160
   79POPC   NC3 1490   0.309   9.240   8.878 -0.1180  0.0403 -0.1170
   79POPC   PO4 1491   0.194   9.658   8.682  0.0072 -0.0467  0.0256
   79POPC   GL1 1492  -0.026   9.774   8.298 -0.1651  0.2771 -0.4199
   79POPC   GL2 1493  -0.308   9.889   8.269  0.1975 -0.0053  0.0340
   79POPC   C1A 1494  -0.101   9.600   7.877 -0.0228  0.2575 -0.0115
   79POPC   D2A 1495   0.133   9.204   7.636  0.2152 -0.1488 -0.0408
   79POPC   C3A 1496   0.261   8.980   7.215 -0.1748 -0.1567 -0.0862
   79POPC   C4A 1497   0.483   8.891   6.858  0.1429 -0.3043  0.0258
   79POPC   C1B 1498  -0.386  10.056   7.881 -0.0130  0.0716 -0.1731
   79POPC   C2B 1499  -0.467  10.363   7.579 -0.0081  0.0331  0.0598
   79POPC   C3B 1500  -0.571  10.304   7.207  0.1756 -0.0956 -0.0268
   79POPC   C4B 1501  -0.866  10.179   6.892 -0.0527  0.0688 -0.3899
   80POPC   NC3 1502   4.033   8.214   9.458  0.1105  0.0018 -0.0045
   80POPC   PO4 1503   4.154   7.697   9.346 -0.2576  0.0898  0.2540
   80POPC   GL1 1504   4.246   7.578   8.889 -0.1879 -0.0964 -0.1239
   80POPC   GL2 1505   4.527   7.622   8.836  0.3099  0.2444  0.0330
   80POPC   C1A 1506   4.211   7.391   8.435  0.0046  0.0729 -0.2323
   80POPC   D2A 1507   4.224   7.256   7.974  0.2168  0.1928  0.2090
   80POPC   C3A 1508   4.448   7.384   7.679  0.4110 -0.1660 -0.0774
   80POPC   C4A 1509   4.649   7.784   7.486  0.2876  0.0400  0.2071
   80POPC   C1B 1510   4.690   7.599   8.402 -0.2183 -0.1686  0.0637
   80POPC   C2B 1511   4.778   7.860   8.076  0.1347  0.1796 -0.4536
   80POPC   C3B 1512   4.989   8.283   8.101 -0.2203 -0.0800  0.1503
   80POPC   C4B 1513   5.092   8.798   8.179  0.0142 -0.1065 -0.0118
   81POPC   NC3 1514   3.185   9.109   8.685  0.1714  0.1915  0.0827
   81POPC   PO4 1515   3.408   8.729   8.836 -0.1970  0.3193  0.2992
   81POPC   GL1 1516   3.365   8.673   8.430  0.1053 -0.0685 -0.0353
   81POPC   GL2 1517   3.411   8.996   8.245  0.2536 -0.0303 -0.1227
   81POPC   C1A 1518   3.317   8.555   8.011 -0.0144  0.0997 -0.1012
   81POPC   D2A 1519   3.149   8.585   7.544 -0.1260 -0.0401  0.0911
   81POPC   C3A 1520   3.210   8.872   7.237  0.1959  0.3617 -0.0329
   81POPC   C4A 1521   3.405   8.785   6.800  0.1025  0.0606  0.3135
   81POPC   C1B 1522   3.170   9.013   7.884  0.2196 -0.0470  0.2624
   81POPC   C2B 1523   3.016   9.257   7.583 -0.2162 -0.0341 -0.0724
   81POPC   C3B 1524   2.810   9.336   7.206  0.0630  0.0308 -0.3838
   81POPC   C4B 1525   2.766   9.496   6.759  0.0111  0.1160  0.2825
   82POPC   NC3 1526  10.088  10.105   9.171 -0.1567 -0.1751 -0.1636
   82POPC   PO4 1527  10.124  10.113   8.729  0.3592  0.0952  0.0897
   82POPC   GL1 1528  10.063  10.315   8.408  0.0698 -0.0431  0.0427
   82POPC   GL2 1529  10.073  10.686   8.491  0.1754  0.3184 -0.1316
   82POPC   C1A 1530  10.233  10.230   8.063  0.1492  0.0942  0.1647
   82POPC   D2A 1531  10.280  10.158   7.671 -0.1417 -0.0472  0.2182
   82POPC   C3A 1532  10.100   9.935   7.464 -0.2697 -0.0863 -0.1114
   82POPC   C4A 1533   9.801   9.564   7.357 -0.0723 -0.0822 -0.1725
   82POPC   C1B 1534   9.887  10.610   8.006  0.1216 -0.0522  0.1051
   82POPC   C2B 1535   9.452  10.686   7.858  0.1830  0.0249 -0.1860
   82POPC   C3B 1536   9.214  10.632   7.491 -0.0429  0.0366  0.0192
   82POPC   C4B 1537   8.903  10.723   7.220 -0.1642 -0.5438  0.0699
   83POPC   NC3 1538   4.351   6.406   9.677 -0.2845  0.0187 -0.1619
   83POPC   PO4 1539   4.502   6.315   9.248 -0.2307 -0.1885  0.3219
   83POPC   GL1 1540   4.385   6.239   8.830 -0.0161  0.0096  0.1771
   83POPC   GL2 1541   4.638   6.204   8.556 -0.1369 -0.1332 -0.1904
   83POPC   C1A 1542   4.035   6.063   8.586  0.4978  0.0851  0.1375
   83POPC   D2A 1543   4.021   5.934   8.178  0.3565  0.1860  0.1583
   83POPC   C3A 1544   3.981   6.282   7.796  0.1172 -0.0086 -0.2353
   83POPC   C4A 1545   3.710   6.658   7.817 -0.0246 -0.1581 -0.0694
   83POPC   C1B 1546   4.436   6.320   8.199 -0.2867 -0.0068  0.1366
   83POPC   C2B 1547   4.511   6.363   7.782 -0.0177  0.0243 -0.2512
   83POPC   C3B 1548   4.770   6.226   7.387 -0.2023 -0.0624 -0.1525
   83POPC   C4B 1549   4.490   6.128   7.105 -0.3038  0.2130 -0.0462
   84POPC   NC3 1550   8.627   8.365   9.282  0.2376 -0.1971 -0.2243
   84POPC   PO4 1551   8.213   8.208   9.306  0.2992  0.0114  0.3119
   84POPC   GL1 1552   8.395   8.224   8.871 -0.2158  0.2034  0.0967
   84POPC   GL2 1553   8.633   8.273   8.729 -0.2634  0.1914  0.5240
   84POPC   C1A 1554   8.230   8.161   8.418  0.3708 -0.0507 -0.2643
   84POPC   D2A 1555   8.318   8.318   8.039  0.2632  0.1053 -0.1474
   84POPC   C3A 1556   8.121   8.220   7.671  0.1862 -0.4824  0.3238
   84POPC   C4A 1557   7.968   8.051   7.292  0.2206 -0.3459  0.2184
   84POPC   C1B 1558   8.755   8.483   8.334  0.3388  0.1181  0.2581
   84POPC   C2B 1559   8.736   8.596   8.032 -0.0423  0.2660 -0.0403
   84POPC   C3B 1560   8.897   8.723   7.547  0.1305 -0.1554  0.0625
   84POPC   C4B 1561   9.141   8.601   7.268 -0.0783  0.1388  0.0793
   85POPC   NC3 1562   4.854   0.586   9.218  0.3119 -0.1495 -0.3013
   85POPC   PO4 1563   4.886   0.224   9.380  0.2254  0.0650 -0.2603
   85POPC   GL1 1564   4.835   0.130   8.973 -0.2257  0.0885  0.0767
   85POPC   GL2 1565   4.622   0.375   8.845  0.3234 -0.1022  0.0446
   85POPC   C1A 1566   5.006   0.017   8.605 -0.1249 -0.0730  0.2878
   85POPC   D2A 1567   5.124   0.330   8.311 -0.2660 -0.1285  0.0225
   85POPC   C3A 1568   5.114   0.718   8.137 -0.2512 -0.2481 -0.3152
   85POPC   C4A 1569   5.061   0.941   7.702  0.5126  0.1869  0.2577
   85POPC   C1B 1570   4.713   0.562   8.423 -0.1622 -0.0829  0.0217
   85POPC   C2B 1571   4.768   0.420   7.970  0.2204  0.0692  0.0186
   85POPC   C3B 1572   4.766   0.563   7.549  0.2007  0.0720 -0.2058
   85POPC   C4B 1573   4.891   0.780   7.240 -0.2351 -0.4242  0.2017
   86POPC   NC3 1574   6.215   3.219   8.981  0.3535 -0.0258  0.1652
   86POPC   PO4 1575   5.861   2.980   9.092 -0.0451  0.0833 -0.1326
   86POPC   GL1 1576   5.561   2.637   8.873  0.0868 -0.0383  0.1344
   86POPC   GL2 1577   5.788   2.451   8.754  0.1792  0.3366 -0.1757
   86POPC   C1A 1578   5.301   2.601   8.454 -0.1062  0.2964 -0.1367
   86POPC   D2A 1579   5.217   2.217   8.157 -0.0206 -0.2181 -0.0589
   86POPC   C3A 1580   5.104   2.151   7.787  0.2746  0.0129 -0.0605
   86POPC   C4A 1581   4.767   2.320   7.416  0.2752 -0.1983  0.1301
   86POPC   C1B 1582   5.724   2.283   8.299 -0.0983 -0.0748 -0.0837
   86POPC   C2B 1583   5.681   2.075   7.894  0.0183 -0.3831  0.0345
   86POPC   C3B 1584   5.508   2.262   7.493  0.1812  0.1407 -0.0310
   86POPC   C4B 1585   5.312   2.137   7.141  0.0395  0.1509 -0.1442
   87POPC   NC3 1586   0.685   9.011   9.508  0.1842  0.0924  0.0606
   87POPC   PO4 1587   0.495   8.777   9.099  0.2897  0.0176 -0.0318
   87POPC   GL1 1588   0.330   8.676   8.723  0.0002 -0.0761  0.1059
   87POPC   GL2 1589   0.540   8.831   8.486 -0.0204 -0.3179 -0.3843
   87POPC   C1A 1590  -0.074   8.523   8.580 -0.2716  0.2780 -0.0408
   87POPC   D2A 1591  -0.347   8.738   8.305 -0.1338  0.1519  0.1111
   87POPC   C3A 1592  -0.235   8.919   7.954  0.1478 -0.2008  0.0653
   87POPC   C4A 1593  -0.386   9.163   7.673  0.2769 -0.1194  0.0257
   87POPC   C1B 1594   0.243   8.714   8.267  0.1207 -0.1609 -0.0126
   87POPC   C2B 1595   0.209   8.703   7.838 -0.1526 -0.1400  0.0258
   87POPC   C3B 1596   0.289   8.556   7.453 -0.0958 -0.2565  0.0318
   87POPC   C4B 1597   0.670   8.544   7.301 -0.1616 -0.1510 -0.0367
   88POPC   NC3 1598   1.788   4.852  10.136 -0.1313  0.2278 -0.1700
   88POPC   PO4 1599   1.759   4.482  10.071 -0.2313  0.1217  0.0697
   88POPC   GL1 1600   1.919   4.273   9.661  0.0423 -0.3017 -0.2842
   88POPC   GL2 1601   2.303   4.255   9.613 -0.0820  0.1854 -0.1120
   88POPC   C1A 1602   1.788   4.148   9.332  0.1162  0.1659  0.0721
   88POPC   D2A 1603   1.563   3.839   9.071 -0.0956 -0.1256 -0.1293
   88POPC   C3A 1604   1.466   3.988   8.663 -0.0725 -0.0823  0.0098
   88POPC   C4A 1605   1.708   4.197   8.494  0.1702  0.0878  0.4091
   88POPC   C1B 1606   2.163   4.562   9.270  0.1854  0.1016  0.0366
   88POPC   C2B 1607   2.020   4.997   9.135 -0.2110  0.1661  0.2701
   88POPC   C3B 1608   2.074   5.041   8.683 -0.2042 -0.4032  0.0131
   88POPC   C4B 1609   1.879   5.023   8.290  0.0704  0.0029  0.0495
   89POPC   NC3 1610   0.907   7.982   8.922  0.2656 -0.0904 -0.0161
   89POPC   PO4 1611   0.525   8.219   9.072 -0.3225  0.1948  0.0462
   89POPC   GL1 1612   0.501   8.175   8.654  0.2512 -0.0280  0.3805
   89POPC   GL2 1613   0.748   8.019   8.399 -0.0754  0.0834 -0.0919
   89POPC   C1A 1614   0.343   8.256   8.301 -0.2728 -0.0337  0.6521
   89POPC   D2A 1615   0.436   8.212   7.872 -0.1047  0.2248 -0.0846
   89POPC   C3A 1616   0.927   8.223   7.774 -0.1807 -0.0900 -0.0168
   89POPC   C4A 1617   1.117   8.052   7.388 -0.1056  0.2285 -0.3011
   89POPC   C1B 1618   1.150   7.950   8.202  0.3137  0.1331  0.0970
   89POPC   C2B 1619   1.285   7.809   7.879 -0.0840 -0.3277  0.1129
   89POPC   C3B 1620   1.451   7.607   7.464  0.0001 -0.3042 -0.0568
   89POPC   C4B 1621   1.358   7.267   7.217  0.1095  0.0555  0.0394
   90POPC   NC3 1622   9.566   9.561   9.623 -0.2694  0.1500 -0.0430
   90POPC   PO4 1623   9.627   9.843   9.415 -0.1440  0.0376  0.3554
   90POPC   GL1 1624   9.427  10.240   9.025 -0.0870 -0.1122  0.0995
   90POPC   GL2 1625   9.607  10.303   8.771  0.0492 -0.1536 -0.3740
   90POPC   C1A 1626   9.075  10.168   8.772  0.2088  0.0515 -0.0969
   90POPC   D2A 1627   8.695  10.515   8.708 -0.0408 -0.0950  0.0275
   90POPC   C3A 1628   8.548  10.428   8.315  0.0840 -0.0970  0.0831
   90POPC   C4A 1629   8.327  10.105   8.082  0.2293  0.1393 -0.3753
   90POPC   C1B 1630   9.529  10.148   8.467 -0.0025 -0.1286  0.2685
   90POPC   C2B 1631   9.341   9.892   8.238  0.2629  0.3064 -0.1915
   90POPC   C3B 1632   9.541   9.677   7.960  0.1649  0.0483  0.3448
   90POPC   C4B 1633   9.398   9.374   7.712  0.2070 -0.0828 -0.3460
   91POPC   NC3 1634   5.794   5.723   9.545  0.0919 -0.1352 -0.0243
   91POPC   PO4 1635   5.953   5.868   9.081  0.0132  0.0213 -0.0243
   91POPC   GL1 1636   5.762   5.873   8.693 -0.0673  0.0763  0.0729
   91POPC   GL2 1637   5.760   6.057   8.431 -0.0650  0.3663  0.0291
   91POPC   C1A 1638   5.468   5.616   8.369 -0.2217 -0.1201  0.1987
   91POPC   D2A 1639   5.225   5.788   8.135  0.1313  0.3715  0.0257
   91POPC   C3A 1640   5.457   5.671   7.763 -0.1529 -0.1261 -0.0340
   91POPC   C4A 1641   5.620   5.879   7.397  0.0304 -0.2492 -0.0349
   91POPC   C1B 1642   5.903   5.884   7.985  0.1673 -0.0513  0.0279
   91POPC   C2B 1643   5.911   5.442   7.772  0.0932  0.0222 -0.1516
   91POPC   C3B 1644   6.356   5.262   7.678 -0.2444  0.4440  0.0653
   91POPC   C4B 1645   6.694   5.029   7.461 -0.1613 -0.2400 -0.0797
   92POPC   NC3 1646   4.801   2.962  10.121  0.2558 -0.1251  0.1670
   92POPC   PO4 1647   4.491   3.103   9.753  0.1272  0.0920  0.0992
   92POPC   GL1 1648   4.236   3.307   9.382  0.0549  0.0278  0.1349
   92POPC   GL2 1649   3.986   3.522   9.380 -0.2231 -0.0693 -0.0410
   92POPC   C1A 1650   4.438   3.593   9.013  0.0208 -0.0959 -0.0740
   92POPC   D2A 1651   4.431   3.430   8.531  0.1521 -0.0822  0.1294
   92POPC   C3A 1652   4.778   3.558   8.251  0.2655  0.0271 -0.0755
   92POPC   C4A 1653   4.987   3.824   8.053 -0.0257 -0.0911 -0.0156
   92POPC   C1B 1654   3.969   3.539   8.895 -0.0887 -0.2132  0.0043
   92POPC   C2B 1655   3.932   3.277   8.486 -0.0616 -0.2057  0.0308
   92POPC   C3B 1656   3.647   3.016   8.469 -0.2591 -0.4927 -0.0045
   92POPC   C4B 1657   3.352   2.783   8.293  0.0417  0.3044  0.1834
   93POPC   NC3 1658   4.594   5.002   9.285 -0.2137 -0.1234  0.0617
   93POPC   PO4 1659   4.668   5.434   9.267  0.0119  0.0718 -0.0971
   93POPC   GL1 1660   4.550   5.288   8.816 -0.3197 -0.1468 -0.3450
   93POPC   GL2 1661   4.459   4.991   8.790  0.1398 -0.2580  0.0119
   93POPC   C1A 1662   4.334   5.388   8.508 -0.1069  0.1072  0.1427
   93POPC   D2A 1663   4.475   5.630   8.227  0.1715  0.1014 -0.0595
   93POPC   C3A 1664   4.749   5.876   8.202  0.1600 -0.3141  0.5123
   93POPC   C4A 1665   4.932   6.239   8.089  0.1202 -0.1381  0.0575
   93POPC   C1B 1666   4.473   4.940   8.349  0.1497  0.0138 -0.3926
   93POPC   C2B 1667   4.683   5.174   8.049 -0.1477  0.3138  0.0333
   93POPC   C3B 1668   4.771   5.533   7.805 -0.0218 -0.1162  0.1338
   93POPC   C4B 1669   4.944   5.892   7.679 -0.3081  0.1568 -0.1121
   94POPC   NC3 1670   5.929   5.343   9.202  0.0165  0.0957  0.0350
   94POPC   PO4 1671   6.024   5.124   8.819  0.1534 -0.1409 -0.1379
   94POPC   GL1 1672   5.885   5.360   8.523 -0.0846  0.1508  0.0292
   94POPC   GL2 1673   5.972   5.600   8.349 -0.2606  0.0766 -0.0386
   94POPC   C1A 1674   5.648   5.230   8.132 -0.0731 -0.1285 -0.1026
   94POPC   D2A 1675   5.304   5.280   8.030 -0.0891  0.1246 -0.1802
   94POPC   C3A 1676   5.077   4.925   7.669  0.0018 -0.1804 -0.1019
   94POPC   C4A 1677   5.225   4.918   7.134 -0.1806 -0.0029  0.2127
   94POPC   C1B 1678   6.188   5.273   8.134 -0.0849  0.1023  0.1144
   94POPC   C2B 1679   6.017   4.950   7.768  0.1140 -0.1272 -0.2679
   94POPC   C3B 1680   5.895   4.593   7.562  0.1345  0.1060 -0.1290
   94POPC   C4B 1681   5.458   4.437   7.478  0.0201 -0.3998 -0.0787
   95POPC   NC3 1682   9.123   0.366   9.373  0.1128  0.3161  0.0170
   95POPC   PO4 1683   8.942   0.575   9.173 -0.0960  0.1517  0.0431
   95POPC   GL1 1684   9.003   0.845   8.823  0.3304 -0.3786  0.3045
   95POPC   GL2 1685   8.760   1.100   8.540 -0.2474 -0.1613 -0.1422
   95POPC   C1A 1686   9.079   0.649   8.407  0.0747  0.1755 -0.2274
   95POPC   D2A 1687   8.982   0.606   7.913 -0.0449  0.0004 -0.0321
   95POPC   C3A 1688   8.969   0.900   7.525  0.0144  0.0479 -0.0928
   95POPC   C4A 1689   8.721   1.096   7.230  0.4640 -0.3147 -0.0549
   95POPC   C1B 1690   9.149   1.078   8.251 -0.0687  0.0748 -0.1858
   95POPC   C2B 1691   9.294   0.999   7.912 -0.2382 -0.0547  0.0515
   95POPC   C3B 1692   9.463   0.962   7.550  0.1432 -0.0122  0.2014
   95POPC   C4B 1693   9.783   1.154   7.241 -0.0833 -0.0194 -0.2208
   96POPC   NC3 1694   9.229   6.730   8.891  0.1201  0.0242 -0.1903
   96POPC   PO4 1695   9.338   7.075   8.983  0.0818  0.1866 -0.0910
   96POPC   GL1 1696   9.597   7.006   8.645  0.0360  0.0922  0.0662
   96POPC   GL2 1697   9.797   7.189   8.743 -0.2674  0.2407  0.1552
   96POPC   C1A 1698   9.561   6.963   8.166 -0.4756  0.3119 -0.0116
   96POPC   D2A 1699   9.401   6.636   7.958  0.3094  0.0298 -0.2355
   96POPC   C3A 1700   9.625   6.465   7.672  0.0410  0.1745  0.4983
   96POPC   C4A 1701   9.813   6.208   7.340  0.2077 -0.0667  0.1215
   96POPC   C1B 1702   9.917   7.363   8.291  0.2402  0.2490 -0.2079
   96POPC   C2B 1703   9.664   7.434   7.950  0.0281  0.0902  0.0546
   96POPC   C3B 1704   9.670   7.527   7.539  0.0162  0.0263  0.2340
   96POPC   C4B 1705   9.669   7.385   7.113  0.1408 -0.2121 -0.1630
   97POPC   NC3 1706   5.475   1.684   9.038 -0.5298 -0.0059 -0.1743
   97POPC   PO4 1707   5.939   1.557   9.019  0.2299 -0.1760  0.2739
   97POPC   GL1 1708   5.837   1.530   8.648  0.0740 -0.0204  0.0475
   97POPC   GL2 1709   5.814   1.887   8.558 -0.0099 -0.2797  0.0911
   97POPC   C1A 1710   5.841   1.329   8.266  0.1795 -0.0222  0.1489
   97POPC   D2A 1711   5.898   0.930   8.130  0.0881  0.0883 -0.2216
   97POPC   C3A 1712   5.884   0.914   7.689 -0.0608 -0.0370 -0.1524
   97POPC   C4A 1713   5.910   0.875   7.298  0.2625  0.1064  0.1397
   97POPC   C1B 1714   5.528   1.714   8.154  0.3425 -0.1213 -0.3336
   97POPC   C2B 1715   5.427   1.662   7.764  0.0312  0.0836  0.1513
   97POPC   C3B 1716   5.265   1.808   7.455 -0.1614  0.0018  0.0492
   97POPC   C4B 1717   4.880   1.816   7.236  0.2984 -0.0489  0.0144
   98POPC   NC3 1718   3.170   1.466   9.236  0.0938  0.1574 -0.2668
   98POPC   PO4 1719   3.450   1.755   9.250  0.0149  0.1653 -0.0263
   98POPC   GL1 1720   3.289   1.687   8.787  0.0107  0.1663  0.1099
   98POPC   GL2 1721   3.200   1.414   8.664  0.0261  0.2126  0.1227
   98POPC   C1A 1722   3.330   1.710   8.294 -0.0013 -0.0537 -0.1447
   98POPC   D2A 1723   3.653   1.454   8.095  0.0708  0.0473 -0.0553
   98POPC   C3A 1724   3.958   1.265   8.273 -0.1981  0.1189  0.0690
   98POPC   C4A 1725   4.009   0.805   8.387  0.0546  0.0127  0.1112
   98POPC   C1B 1726   3.348   1.168   8.287  0.2695  0.0678 -0.0496
   98POPC   C2B 1727   3.620   0.852   8.054  0.0067 -0.1701 -0.0136
   98POPC   C3B 1728   3.806   0.937   7.836 -0.1085 -0.3472  0.3709
   98POPC   C4B 1729   4.121   1.193   7.782  0.0540  0.0398  0.2276
   99POPC   NC3 1730   9.335   5.909   9.428  0.1432 -0.1325  0.2449
   99POPC   PO4 1731   9.518   6.208   9.096  0.1609 -0.3163  0.3925
   99POPC   GL1 1732   9.650   6.363   8.663 -0.1120 -0.2229  0.1527
   99POPC   GL2 1733   9.464   6.512   8.484  0.0443  0.0924  0.0005
   99POPC   C1A 1734   9.841   6.526   8.192  0.2432 -0.0235  0.0840
   99POPC   D2A 1735  10.041   6.773   7.896 -0.2378  0.0839  0.3123
   99POPC   C3A 1736  10.333   6.643   7.412  0.0343  0.0901 -0.0950
   99POPC   C4A 1737  10.429   6.788   7.058 -0.1944  0.0032  0.2886
   99POPC   C1B 1738   9.525   6.174   8.219  0.2533 -0.0127 -0.1129
   99POPC   C2B 1739   9.541   5.981   7.792 -0.1857  0.0966 -0.1337
   99POPC   C3B 1740   9.568   5.763   7.475 -0.2921  0.3856 -0.2894
   99POPC   C4B 1741   9.662   5.704   7.018  0.1000 -0.2564 -0.0847
  100POPC   NC3 1742   1.490   8.455   9.016 -0.0344  0.0124  0.1015
  100POPC   PO4 1743   1.366   8.030   8.872 -0.2058 -0.1440 -0.1828
  100POPC   GL1 1744   1.393   8.287   8.518 -0.1626 -0.0733 -0.3620
  100POPC   GL2 1745   1.571   8.495   8.318 -0.1417 -0.2313  0.0241
  100POPC   C1A 1746   1.052   8.451   8.209 -0.1062 -0.0670 -0.0538
  100POPC   D2A 1747   0.732   8.633   8.011 -0.1807 -0.1899  0.3620
  100POPC   C3A 1748   0.649   8.964   7.681  0.0321  0.1766  0.0366
  100POPC   C4A 1749   0.604   9.273   7.408 -0.2152  0.1883 -0.0631
  100POPC   C1B 1750   1.458   8.331   7.886 -0.0853 -0.1420 -0.2833
  100POPC   C2B 1751   1.563   8.114   7.518  0.2456 -0.2753 -0.1628
  100POPC   C3B 1752   1.898   7.833   7.294 -0.0516 -0.1380  0.4719
  100POPC   C4B 1753   1.893   7.481   7.116  0.0655  0.2229  0.1753
  101POPC   NC3 1754   3.094   3.301   9.957  0.1516 -0.0103  0.0194
  101POPC   PO4 1755   3.558   3.459   9.953  0.1228 -0.1628 -0.2808
  101POPC   GL1 1756   3.496   3.614   9.515 -0.1722  0.3805  0.2989
  101POPC   GL2 1757   3.441   3.938   9.397 -0.0827  0.0866  0.0536
  101POPC   C1A 1758   3.410   3.463   9.073  0.0336 -0.0332 -0.2822
  101POPC   D2A 1759   3.474   3.468   8.677 -0.0761  0.1216  0.1369
  101POPC   C3A 1760   3.685   3.738   8.480 -0.0981  0.0873  0.0402
  101POPC   C4A 1761   3.842   4.196   8.573  0.0169  0.0177 -0.0112
  101POPC   C1B 1762   3.075   3.739   9.251  0.2076 -0.3381  0.1909
  101POPC   C2B 1763   2.992   3.447   8.849  0.3248  0.0220  0.0530
  101POPC   C3B 1764   2.770   3.238   8.625 -0.2610 -0.2189  0.1500
  101POPC   C4B 1765   2.515   3.150   8.491  0.0897  0.0613  0.0462
  102POPC   NC3 1766   6.138   6.265   8.898 -0.0340 -0.2168 -0.0233
  102POPC   PO4 1767   6.064   6.724   8.755  0.0464 -0.4027  0.2975
  102POPC   GL1 1768   6.181   6.859   8.344  0.2784 -0.2684 -0.1857
  102POPC   GL2 1769   6.446   6.755   8.354 -0.2099 -0.2053  0.1049
  102POPC   C1A 1770   6.092   6.764   7.884 -0.1233 -0.3016  0.2491
  102POPC   D2A 1771   5.928   6.400   7.575 -0.1424  0.2542 -0.0883
  102POPC   C3A 1772   5.553   6.366   7.270  0.0798 -0.1828 -0.0414
  102POPC   C4A 1773   5.305   6.138   7.005 -0.1662  0.1174 -0.1247
  102POPC   C1B 1774   6.714   7.149   8.348 -0.1404  0.0307  0.0594
  102POPC   C2B 1775   6.635   7.609   8.406  0.0705  0.0257  0.2279
  102POPC   C3B 1776   6.690   8.016   8.406  0.3918  0.0340 -0.1741
  102POPC   C4B 1777   6.897   8.376   8.517 -0.0707 -0.2439  0.2780
  103POPC   NC3 1778   7.315   0.896   8.624 -0.2046 -0.3703  0.0228
  103POPC   PO4 1779   7.015   1.033   8.892  0.0689  0.2296 -0.0360
  103POPC   GL1 1780   6.966   1.135   8.394 -0.1797 -0.0681  0.0501
  103POPC   GL2 1781   7.309   1.095   8.171  0.0139  0.0188 -0.4050
  103POPC   C1A 1782   6.851   1.046   8.021 -0.0945  0.0493 -0.0232
  103POPC   D2A 1783   6.834   1.288   7.546 -0.3019  0.1972 -0.0549
  103POPC   C3A 1784   6.523   1.338   7.238  0.1858  0.0650  0.4975
  103POPC   C4A 1785   6.094   1.260   6.987  0.2428  0.1150 -0.0179
  103POPC   C1B 1786   7.294   1.336   7.794  0.0028  0.0890  0.1173
  103POPC   C2B 1787   7.019   1.721   7.643 -0.0228 -0.1971  0.0423
  103POPC   C3B 1788   6.888   2.098   7.302  0.4886 -0.0128  0.0903
  103POPC   C4B 1789   6.540   1.998   6.945 -0.0334 -0.1618 -0.0815
  104POPC   NC3 1790   4.324   0.048   9.059  0.3076  0.0557  0.0195
  104POPC   PO4 1791   4.030  -0.111   8.961 -0.0150 -0.2963  0.2435
  104POPC   GL1 1792   3.985  -0.203   8.533 -0.2550 -0.0094  0.0827
  104POPC   GL2 1793   3.649  -0.203   8.382 -0.2799 -0.0237  0.1233
  104POPC   C1A 1794   4.191  -0.036   8.125  0.0141 -0.2755 -0.1521
  104POPC   D2A 1795   4.294  -0.226   7.605 -0.5008  0.1757 -0.1256
  104POPC   C3A 1796   3.958  -0.493   7.444  0.1362 -0.2900 -0.1774
  104POPC   C4A 1797   3.904  -0.911   7.504 -0.2702 -0.0529 -0.2969
  104POPC   C1B 1798   3.240   0.039   8.388  0.1139 -0.3718  0.1802
  104POPC   C2B 1799   2.882   0.276   8.146  0.5787  0.2144 -0.3005
  104POPC   C3B 1800   2.831   0.479   7.719  0.3377  0.3082  0.3444
  104POPC   C4B 1801   3.040   0.661   7.357 -0.1238  0.1557  0.0430
  105POPC   NC3 1802   3.901   1.214   9.371 -0.2638  0.3849  0.1169
  105POPC   PO4 1803   3.889   1.601   9.443 -0.0725 -0.2789 -0.1035
  105POPC   GL1 1804   3.932   1.739   9.105  0.6441 -0.1964  0.0869
  105POPC   GL2 1805   4.217   1.706   9.057  0.0373 -0.1294 -0.1636
  105POPC   C1A 1806   3.787   1.657   8.671 -0.1473  0.0073 -0.0802
  105POPC   D2A 1807   3.797   1.897   8.271  0.0557 -0.4385  0.0872
  105POPC   C3A 1808   4.033   1.837   7.955 -0.1671 -0.0202 -0.3528
  105POPC   C4A 1809   3.970   1.785   7.500  0.2680  0.1951  0.0979
  105POPC   C1B 1810   4.222   1.917   8.673 -0.0954  0.0896 -0.0549
  105POPC   C2B 1811   4.221   2.243   8.287 -0.2498  0.0824  0.1504
  105POPC   C3B 1812   4.362   2.636   8.284  0.0980 -0.1073  0.0701
  105POPC   C4B 1813   4.306   2.970   8.485 -0.3142 -0.0819  0.0109
  106POPC   NC3 1814   3.010   8.475   8.711  0.1676 -0.0027  0.0993
  106POPC   PO4 1815   2.762   8.793   8.673  0.2342 -0.1132  0.0066
  106POPC   GL1 1816   2.807   8.785   8.321 -0.1866  0.0729 -0.4109
  106POPC   GL2 1817   2.689   9.050   8.188  0.2938  0.4855  0.3647
  106POPC   C1A 1818   2.806   8.677   7.894 -0.0300 -0.1161 -0.1808
  106POPC   D2A 1819   2.581   8.929   7.461 -0.0548 -0.0323 -0.1278
  106POPC   C3A 1820   2.377   9.250   7.516  0.2252  0.0359 -0.0453
  106POPC   C4A 1821   1.797   9.255   7.383 -0.0533  0.2339 -0.2009
  106POPC   C1B 1822   2.391   8.992   7.984 -0.2668  0.0612 -0.0455
  106POPC   C2B 1823   2.114   8.814   7.640 -0.3521 -0.1032 -0.1173
  106POPC   C3B 1824   2.053   8.875   7.273 -0.0877 -0.0679  0.0741
  106POPC   C4B 1825   2.015   8.730   6.817  0.1954 -0.0252  0.1089
  107POPC   NC3 1826   0.018   6.085   9.437  0.2285 -0.0673 -0.1710
  107POPC   PO4 1827  -0.343   5.832   9.281 -0.0365  0.0624 -0.0114
  107POPC   GL1 1828  -0.248   5.724   8.868 -0.1450 -0.2513  0.1914
  107POPC   GL2 1829  -0.607   5.889   8.743  0.1151 -0.0942  0.4613
  107POPC   C1A 1830  -0.006   5.554   8.451  0.1302  0.2025  0.0909
  107POPC   D2A 1831   0.457   5.411   8.262  0.2968 -0.0348 -0.2395
  107POPC   C3A 1832   0.511   5.436   7.816 -0.1787  0.0629  0.1286
  107POPC   C4A 1833   0.377   5.621   7.402 -0.0886 -0.1097  0.2711
  107POPC   C1B 1834  -0.495   5.738   8.333  0.0678 -0.1945  0.0215
  107POPC   C2B 1835  -0.240   5.790   7.973 -0.0429  0.0458  0.3170
  107POPC   C3B 1836  -0.167   5.719   7.605  0.0144 -0.2706  0.0200
  107POPC   C4B 1837  -0.068   5.797   7.184 -0.0981  0.3396  0.2933
  108POPC   NC3 1838   0.287   2.442   9.751 -0.2183 -0.2053 -0.3011
  108POPC   PO4 1839   0.701   2.376   9.450 -0.0201  0.1017  0.1784
  108POPC   GL1 1840   0.421   2.482   9.183 -0.0041  0.0221  0.1111
  108POPC   GL2 1841   0.756   2.491   8.954  0.0034  0.0749  0.2050
  108POPC   C1A 1842   0.318   2.676   8.759 -0.0704  0.1589  0.0124
  108POPC   D2A 1843   0.241   3.027   8.682  0.1342  0.1652  0.0952
  108POPC   C3A 1844   0.025   3.084   8.181  0.0945  0.0486 -0.2171
  108POPC   C4A 1845   0.088   2.831   7.819  0.0522 -0.0216 -0.1691
  108POPC   C1B 1846   0.826   2.434   8.492 -0.0498  0.0768 -0.1334
  108POPC   C2B 1847   1.048   2.536   8.163 -0.3107  0.2158  0.0687
  108POPC   C3B 1848   0.985   2.440   7.668 -0.0202  0.0488 -0.2424
  108POPC   C4B 1849   1.094   2.646   7.222  0.0365  0.0333 -0.1497
  109POPC   NC3 1850   9.496   2.009   9.300 -0.1462 -0.0831  0.0031
  109POPC   PO4 1851   9.506   1.721   8.909 -0.0817 -0.1967 -0.1172
  109POPC   GL1 1852   9.572   1.467   8.547 -0.0221 -0.4367  0.1238
  109POPC   GL2 1853   9.951   1.478   8.350  0.3578  0.2909  0.1475
  109POPC   C1A 1854   9.549   1.418   8.047 -0.1249 -0.0826 -0.0417
  109POPC   D2A 1855   9.704   1.467   7.617  0.3894 -0.0945  0.0925
  109POPC   C3A 1856   9.620   1.695   7.347  0.4362  0.2662  0.0259
  109POPC   C4A 1857   9.434   1.974   7.108  0.1303  0.1369  0.1314
  109POPC   C1B 1858  10.030   1.613   7.944 -0.3588  0.1280 -0.3025
  109POPC   C2B 1859  10.437   1.549   7.650  0.2495 -0.3968 -0.0309
  109POPC   C3B 1860  10.816   1.766   7.654 -0.1288  0.1294  0.1475
  109POPC   C4B 1861  10.926   2.109   7.346 -0.2168  0.1863  0.5008
  110POPC   NC3 1862   8.632   9.837   9.500  0.2949 -0.0946  0.1215
  110POPC   PO4 1863   9.088   9.659   9.406 -0.2226  0.4199 -0.1201
  110POPC   GL1 1864   9.234   9.769   8.955 -0.1605  0.0750  0.2080
  110POPC   GL2 1865   9.583   9.724   8.936  0.0626  0.3465 -0.0927
  110POPC   C1A 1866   9.146   9.637   8.668  0.1015  0.1869  0.0121
  110POPC   D2A 1867   9.127   9.437   8.239  0.3576  0.1955 -0.0816
  110POPC   C3A 1868   9.044   9.683   7.855  0.0976 -0.2022  0.1736
  110POPC   C4A 1869   8.806   9.784   7.508  0.1542 -0.1682 -0.2303
  110POPC   C1B 1870   9.635   9.588   8.576  0.4147 -0.1625 -0.2036
  110POPC   C2B 1871   9.824   9.410   8.292 -0.2723  0.0189 -0.1461
  110POPC   C3B 1872  10.225   9.256   8.184  0.0989 -0.0398  0.0603
  110POPC   C4B 1873  10.651   9.147   8.146  0.3501  0.0369 -0.1478
  111POPC   NC3 1874   6.602   1.730   9.148 -0.0712  0.0677 -0.2536
  111POPC   PO4 1875   6.576   2.224   9.381 -0.0068 -0.1022  0.1113
  111POPC   GL1 1876   6.587   2.437   8.948  0.2179  0.1657  0.3186
  111POPC   GL2 1877   6.302   2.630   8.859  0.3451  0.3103 -0.2016
  111POPC   C1A 1878   6.637   2.272   8.607 -0.0125 -0.2657 -0.0586
  111POPC   D2A 1879   6.906   2.412   8.255 -0.0897  0.0608 -0.0107
  111POPC   C3A 1880   6.602   2.482   7.970  0.0237 -0.0239  0.1224
  111POPC   C4A 1881   6.487   2.552   7.606 -0.2780 -0.0611 -0.0928
  111POPC   C1B 1882   6.300   2.632   8.352 -0.2815  0.0839 -0.2900
  111POPC   C2B 1883   6.104   2.617   7.921 -0.0508  0.1881  0.1645
  111POPC   C3B 1884   5.665   2.627   7.750  0.2290  0.3831  0.1727
  111POPC   C4B 1885   5.404   2.881   7.541  0.3355 -0.0080 -0.1111
  112POPC   NC3 1886   0.562   1.967   9.108 -0.1689 -0.0011  0.2728
  112POPC   PO4 1887   0.238   1.676   9.001 -0.0170  0.1229  0.1086
  112POPC   GL1 1888   0.484   1.693   8.587 -0.1192 -0.0383  0.1637
  112POPC   GL2 1889   0.186   1.632   8.419 -0.3329 -0.0843 -0.3414
  112POPC   C1A 1890   0.712   1.469   8.213  0.0657 -0.1318  0.1278
  112POPC   D2A 1891   1.001   1.539   7.962 -0.3277  0.3672 -0.0093
  112POPC   C3A 1892   1.028   1.452   7.521  0.1930  0.0717  0.1399
  112POPC   C4A 1893   0.995   1.668   7.134 -0.0007 -0.0512 -0.3494
  112POPC   C1B 1894   0.312   1.860   8.063  0.0675 -0.2323 -0.1070
  112POPC   C2B 1895   0.257   2.105   7.835  0.0755  0.3396 -0.0542
  112POPC   C3B 1896   0.082   2.297   7.559  0.1623  0.4261 -0.0201
  112POPC   C4B 1897  -0.140   2.297   7.167 -0.0416 -0.0533 -0.1232
  113POPC   NC3 1898   7.949   5.665   9.380 -0.2326 -0.2935 -0.0007
  113POPC   PO4 1899   8.116   5.316   9.245 -0.2708  0.2999 -0.2532
  113POPC   GL1 1900   8.109   5.588   8.866  0.1985  0.0565 -0.2614
  113POPC   GL2 1901   8.397   5.703   8.704  0.2178  0.0096  0.1788
  113POPC   C1A 1902   8.058   5.536   8.389  0.3615 -0.1485  0.4994
  113POPC   D2A 1903   8.215   5.675   8.001  0.0938  0.2401  0.1853
  113POPC   C3A 1904   8.579   5.735   7.941 -0.1778 -0.0460 -0.0561
  113POPC   C4A 1905   8.649   6.154   7.942 -0.0566 -0.0536  0.0412
  113POPC   C1B 1906   8.726   5.805   8.386 -0.4250  0.1376 -0.1614
  113POPC   C2B 1907   9.038   5.881   8.100  0.1343 -0.0618 -0.0807
  113POPC   C3B 1908   9.008   5.767   7.628  0.0795  0.0625 -0.1546
  113POPC   C4B 1909   9.138   5.767   7.185 -0.1326  0.0060 -0.1299
  114POPC   NC3 1910   5.457   4.605   8.980  0.2159 -0.0606  0.1697
  114POPC   PO4 1911   5.560   4.942   8.954 -0.0498 -0.4022  0.0914
  114POPC   GL1 1912   5.621   4.948   8.530 -0.0775 -0.0819  0.1678
  114POPC   GL2 1913   5.411   4.585   8.388  0.2022  0.2074  0.1904
  114POPC   C1A 1914   5.895   4.744   8.245 -0.0485  0.0782  0.2104
  114POPC   D2A 1915   5.687   4.325   7.920  0.3836  0.1298  0.2058
  114POPC   C3A 1916   5.240   4.386   7.946 -0.1177 -0.4120 -0.0872
  114POPC   C4A 1917   4.877   4.254   7.779  0.1026 -0.2461  0.0628
  114POPC   C1B 1918   5.539   4.799   7.907 -0.0113 -0.0364 -0.1835
  114POPC   C2B 1919   5.542   5.116   7.590 -0.1403 -0.2362 -0.3482
  114POPC   C3B 1920   5.140   5.444   7.412 -0.1079  0.0811 -0.1560
  114POPC   C4B 1921   4.884   5.282   7.119  0.2331 -0.2190 -0.1428
  115POPC   NC3 1922   9.003   6.355   9.265 -0.1987 -0.0675  0.0358
  115POPC   PO4 1923   8.644   6.217   8.995 -0.0840 -0.2078 -0.0883
  115POPC   GL1 1924   8.482   6.233   8.594  0.1008  0.1087 -0.1529
  115POPC   GL2 1925   8.342   6.588   8.444 -0.1620  0.4713 -0.2513
  115POPC   C1A 1926   8.275   6.093   8.352 -0.1118  0.6343  0.3694
  115POPC   D2A 1927   8.057   6.155   7.889  0.0542 -0.1975  0.0940
  115POPC   C3A 1928   7.971   6.229   7.471  0.0599  0.1407 -0.2309
  115POPC   C4A 1929   8.098   6.251   7.023  0.1781  0.1115  0.1274
  115POPC   C1B 1930   8.065   6.682   8.135  0.0843 -0.0826 -0.1555
  115POPC   C2B 1931   7.838   6.642   7.724 -0.0281  0.2246  0.0342
  115POPC   C3B 1932   8.046   6.687   7.302 -0.0881 -0.0843 -0.2023
  115POPC   C4B 1933   8.489   6.499   7.194 -0.0211 -0.0477 -0.2661
  116POPC   NC3 1934   4.200   8.570   8.746  0.0920 -0.1240  0.0589
  116POPC   PO4 1935   3.806   8.523   8.595  0.0932  0.0002 -0.1296
  116POPC   GL1 1936   3.563   8.247   8.281 -0.1019  0.1962 -0.0465
  116POPC   GL2 1937   3.264   8.211   8.366 -0.2688  0.1576 -0.0702
  116POPC   C1A 1938   3.707   8.232   7.886 -0.1982  0.1099  0.0211
  116POPC   D2A 1939   3.668   8.230   7.366  0.4229 -0.1156 -0.0856
  116POPC   C3A 1940   3.715   7.867   7.088 -0.1429 -0.1492 -0.3016
  116POPC   C4A 1941   3.922   7.372   7.053 -0.1066 -0.0312 -0.0513
  116POPC   C1B 1942   3.302   7.849   8.048 -0.1368 -0.2599 -0.1582
  116POPC   C2B 1943   3.267   7.807   7.674 -0.1445 -0.0617  0.3838
  116POPC   C3B 1944   3.328   7.554   7.281 -0.4438  0.1390  0.3932
  116POPC   C4B 1945   3.388   7.400   6.850  0.3386 -0.3441 -0.0471
  117POPC   NC3 1946   3.325   0.293   9.598 -0.0638 -0.0034 -0.2539
  117POPC   PO4 1947   3.482   0.561   9.265  0.0724 -0.1523 -0.0024
  117POPC   GL1 1948   3.427   0.466   8.854 -0.4123  0.3259 -0.0812
  117POPC   GL2 1949   3.655   0.182   8.693  0.1817 -0.0673 -0.0734
  117POPC   C1A 1950   3.388   0.519   8.366  0.2371 -0.4460  0.0529
  117POPC   D2A 1951   3.323   0.349   7.886 -0.0580 -0.1920  0.0945
  117POPC   C3A 1952   3.607   0.604   7.489  0.0841  0.1609  0.0692
  117POPC   C4A 1953   3.709   0.495   7.164 -0.0191  0.2396  0.3060
  117POPC   C1B 1954   3.815   0.311   8.290 -0.1561  0.1823 -0.1813
  117POPC   C2B 1955   3.838   0.396   7.927  0.0394  0.1833  0.0741
  117POPC   C3B 1956   4.005   0.217   7.591 -0.0660 -0.1651  0.0389
  117POPC   C4B 1957   3.956   0.021   7.270 -0.2339  0.1948  0.2453
  118POPC   NC3 1958   4.993   8.542   8.730  0.0128  0.2817 -0.0849
  118POPC   PO4 1959   4.601   8.388   8.575  0.1048  0.1062 -0.0339
  118POPC   GL1 1960   4.372   7.962   8.378 -0.1283 -0.2854 -0.0758
  118POPC   GL2 1961   4.059   8.232   8.295 -0.0917 -0.0538  0.1653
  118POPC   C1A 1962   4.270   7.864   7.863  0.1702  0.2582 -0.2349
  118POPC   D2A 1963   4.158   8.057   7.394 -0.2681 -0.0767  0.0716
  118POPC   C3A 1964   4.550   8.102   7.165 -0.1246 -0.0534  0.2852
  118POPC   C4A 1965   5.064   8.191   6.918  0.0243  0.1457  0.0937
  118POPC   C1B 1966   4.258   8.354   7.838 -0.0021  0.1013  0.2004
  118POPC   C2B 1967   4.326   8.531   7.442  0.0976  0.1070 -0.1178
  118POPC   C3B 1968   4.185   8.943   7.226  0.0465 -0.3015  0.1797
  118POPC   C4B 1969   4.302   9.351   7.270  0.3522 -0.0307  0.0651
  119POPC   NC3 1970   5.232   1.345   9.468  0.1169  0.3104  0.1622
  119POPC   PO4 1971   5.090   1.769   9.452  0.1686 -0.0297  0.0891
  119POPC   GL1 1972   5.052   1.902   9.074  0.1989 -0.0928  0.1969
  119POPC   GL2 1973   4.685   1.937   9.165  0.2059  0.1272  0.0007
  119POPC   C1A 1974   4.914   2.211   8.759  0.0749 -0.0340 -0.1566
  119POPC   D2A 1975   4.845   2.495   8.439  0.0027 -0.1114 -0.0438
  119POPC   C3A 1976   4.679   2.525   7.905  0.1469 -0.0541 -0.0214
  119POPC   C4A 1977   4.863   2.797   7.584 -0.2779  0.3981 -0.0362
  119POPC   C1B 1978   4.711   1.642   8.807  0.1128  0.0168 -0.1779
  119POPC   C2B 1979   4.764   1.366   8.367  0.1203 -0.1234 -0.2454
  119POPC   C3B 1980   5.054   1.248   8.147 -0.1706 -0.1191  0.2361
  119POPC   C4B 1981   5.434   1.157   7.943  0.0359  0.1501  0.0123
  120POPC   NC3 1982   2.083   6.782   9.913  0.1475  0.0524  0.1696
  120POPC   PO4 1983   2.412   6.647   9.697 -0.0836 -0.0612 -0.1047
  120POPC   GL1 1984   2.444   6.286   9.326  0.0935  0.3191  0.0140
  120POPC   GL2 1985   2.347   6.425   9.028 -0.2079  0.2218  0.3386
  120POPC   C1A 1986   2.218   5.941   9.213  0.4538  0.3316 -0.2785
  120POPC   D2A 1987   1.914   5.700   9.112 -0.2057 -0.2588 -0.2476
  120POPC   C3A 1988   1.745   5.326   9.281  0.0043 -0.2556  0.0157
  120POPC   C4A 1989   1.416   5.025   9.301  0.0792 -0.3127  0.0013
  120POPC   C1B 1990   2.531   6.405   8.631  0.1373  0.2888 -0.3005
  120POPC   C2B 1991   2.399   6.326   8.219 -0.0532 -0.1793  0.0610
  120POPC   C3B 1992   2.229   6.285   7.800  0.1653 -0.3154  0.1819
  120POPC   C4B 1993   1.988   6.343   7.350  0.3542 -0.0850 -0.0541
  121POPC   NC3 1994   7.088  10.120   9.612 -0.3497  0.1193  0.3922
  121POPC   PO4 1995   7.384   9.927   9.258 -0.2457  0.1001 -0.1546
  121POPC   GL1 1996   7.324   9.628   8.856  0.1356 -0.2167  0.0678
  121POPC   GL2 1997   7.100   9.332   8.822  0.0613  0.1120 -0.3900
  121POPC   C1A 1998   7.219   9.597   8.410 -0.1762  0.1390  0.2727
  121POPC   D2A 1999   6.931   9.545   8.094 -0.2705  0.0009 -0.0374
  121POPC   C3A 2000   7.039   9.139   7.977 -0.1321 -0.0714  0.0512
  121POPC   C4A 2001   7.447   9.064   7.734  0.0363 -0.1899 -0.1494
  121POPC   C1B 2002   7.308   9.121   8.465 -0.2628  0.2561 -0.4049
  121POPC   C2B 2003   7.654   8.916   8.125 -0.1343 -0.2133 -0.2399
  121POPC   C3B 2004   8.065   8.757   8.071 -0.0994 -0.0004 -0.4026
  121POPC   C4B 2005   8.505   9.062   8.224  0.2407  0.0343  0.0959
  122POPC   NC3 2006   2.307   1.586   9.336 -0.0506 -0.0597 -0.1180
  122POPC   PO4 2007   2.688   1.628   9.269  0.0650  0.0953  0.0451
  122POPC   GL1 2008   2.732   1.588   8.904  0.0133 -0.0117 -0.0342
  122POPC   GL2 2009   2.412   1.424   8.847  0.0009 -0.3431  0.0847
  122POPC   C1A 2010   2.834   1.653   8.442  0.0741 -0.0289  0.2146
  122POPC   D2A 2011   2.940   1.970   8.210 -0.0389  0.0313  0.0991
  122POPC   C3A 2012   2.773   2.406   8.210 -0.0460  0.1126  0.1755
  122POPC   C4A 2013   2.884   2.732   8.477 -0.0991 -0.3920  0.1700
  122POPC   C1B 2014   2.404   1.500   8.484  0.3504  0.1265  0.2856
  122POPC   C2B 2015   2.400   1.865   8.304  0.0831  0.2084  0.2750
  122POPC   C3B 2016   2.143   1.939   7.952  0.0200 -0.2412 -0.2706
  122POPC   C4B 2017   1.820   2.132   7.673  0.2988 -0.2682  0.2738
  123POPC   NC3 2018   5.174  10.051   9.191  0.3954 -0.1148  0.0708
  123POPC   PO4 2019   5.556  10.022   9.079  0.0286 -0.0406 -0.0887
  123POPC   GL1 2020   5.478  10.064   8.644 -0.0910  0.2027  0.4440
  123POPC   GL2 2021   5.719   9.928   8.573  0.3719 -0.2550 -0.0955
  123POPC   C1A 2022   5.555  10.301   8.330  0.3437  0.0790  0.0959
  123POPC   D2A 2023   5.553  10.352   7.870  0.1461  0.0996 -0.1750
  123POPC   C3A 2024   5.512  10.033   7.522 -0.0965  0.0853  0.1626
  123POPC   C4A 2025   5.875   9.952   7.168 -0.0667  0.0624  0.1060
  123POPC   C1B 2026   5.850   9.902   8.164 -0.1946 -0.0995 -0.0015
  123POPC   C2B 2027   6.191  10.096   7.952 -0.2662 -0.2763 -0.1159
  123POPC   C3B 2028   6.444  10.147   7.646 -0.1250 -0.1198  0.0393
  123POPC   C4B 2029   6.373  10.205   7.186 -0.4144 -0.1939  0.0112
  124POPC   NC3 2030   9.935   5.293   9.206  0.1367  0.0398 -0.0300
  124POPC   PO4 2031  10.311   5.101   9.440  0.3277 -0.0820 -0.0411
  124POPC   GL1 2032  10.293   5.001   8.984 -0.1332  0.0362 -0.0769
  124POPC   GL2 2033  10.304   5.302   8.850  0.3489  0.0404 -0.2017
  124POPC   C1A 2034  10.258   5.071   8.454  0.0229 -0.3339 -0.3948
  124POPC   D2A 2035  10.081   4.951   8.002  0.0432 -0.2265 -0.2432
  124POPC   C3A 2036   9.835   5.184   7.610  0.2176 -0.0376 -0.0956
  124POPC   C4A 2037   9.661   5.227   7.256 -0.0654  0.4062 -0.1876
  124POPC   C1B 2038  10.757   5.475   8.801  0.1061 -0.1998 -0.3801
  124POPC   C2B 2039  11.084   5.532   8.656  0.0521 -0.2093 -0.1605
  124POPC   C3B 2040  11.306   5.715   8.396 -0.3062 -0.0220  0.2039
  124POPC   C4B 2041  11.462   6.026   8.171 -0.0156  0.0699  0.0753
  125POPC   NC3 2042   8.605   4.087   9.063  0.0903 -0.1460  0.2215
  125POPC   PO4 2043   8.384   4.497   8.910  0.1603  0.2686  0.0731
  125POPC   GL1 2044   8.556   4.266   8.577  0.1395  0.0989 -0.1937
  125POPC   GL2 2045   8.810   4.032   8.604 -0.1244  0.4537 -0.0604
  125POPC   C1A 2046   8.471   4.153   8.173 -0.0361 -0.1160  0.1798
  125POPC   D2A 2047   8.261   4.221   7.842 -0.1910 -0.0673  0.0857
  125POPC   C3A 2048   8.612   4.320   7.530 -0.0264 -0.2126  0.0104
  125POPC   C4A 2049   8.941   4.502   7.240 -0.0633  0.0030  0.2099
  125POPC   C1B 2050   9.009   3.938   8.221 -0.0903 -0.0822  0.4368
  125POPC   C2B 2051   9.199   4.025   7.790 -0.0045 -0.1110  0.1162
  125POPC   C3B 2052   9.307   3.931   7.411 -0.2234 -0.0868 -0.3714
  125POPC   C4B 2053   9.346   3.626   7.104  0.2395 -0.2035 -0.2572
  126POPC   NC3 2054   9.476   9.309   9.184  0.0683  0.0523 -0.0593
  126POPC   PO4 2055   9.759   8.921   8.991  0.0505 -0.1170 -0.1325
  126POPC   GL1 2056   9.667   9.032   8.557  0.0387  0.0205 -0.2257
  126POPC   GL2 2057   9.367   9.142   8.692  0.4026 -0.4240  0.0198
  126POPC   C1A 2058   9.438   9.038   8.150 -0.0484  0.2290 -0.1464
  126POPC   D2A 2059   9.352   8.844   7.738  0.0200  0.0171  0.1662
  126POPC   C3A 2060   9.189   8.365   7.741 -0.1542 -0.0928 -0.1079
  126POPC   C4A 2061   8.941   8.160   7.416  0.1156  0.0894  0.1378
  126POPC   C1B 2062   8.873   9.233   8.751  0.2273 -0.1187  0.1802
  126POPC   C2B 2063   8.568   9.457   8.573  0.5582 -0.0181  0.0609
  126POPC   C3B 2064   8.521   9.596   8.080  0.1149 -0.1216 -0.1085
  126POPC   C4B 2065   8.321   9.653   7.755 -0.0347  0.0513  0.0207
  127POPC   NC3 2066   4.613   6.760   9.012  0.1117  0.0142  0.3003
  127POPC   PO4 2067   4.251   7.100   9.008  0.0275  0.0220  0.2847
  127POPC   GL1 2068   4.085   6.899   8.645  0.1819  0.1925  0.1947
  127POPC   GL2 2069   4.267   6.663   8.545 -0.3976 -0.1023 -0.2550
  127POPC   C1A 2070   3.770   6.842   8.322  0.0513 -0.2276  0.0115
  127POPC   D2A 2071   3.354   6.831   8.080  0.3457 -0.0549 -0.1855
  127POPC   C3A 2072   3.211   6.772   7.669  0.1715 -0.2002 -0.0003
  127POPC   C4A 2073   2.921   6.728   7.462  0.0473 -0.0691  0.4011
  127POPC   C1B 2074   4.175   6.751   8.072 -0.1164  0.0461  0.3289
  127POPC   C2B 2075   4.205   6.891   7.617 -0.2295  0.0696 -0.0103
  127POPC   C3B 2076   4.290   7.113   7.215 -0.2503 -0.0282  0.0548
  127POPC   C4B 2077   4.418   7.641   7.030  0.3397 -0.3365 -0.2506
  128POPC   NC3 2078   7.238   0.586   9.049  0.0124 -0.1350  0.2165
  128POPC   PO4 2079   7.702   0.621   8.816 -0.2150  0.0638  0.0044
  128POPC   GL1 2080   8.082   0.545   8.567  0.0239 -0.1389 -0.3188
  128POPC   GL2 2081   8.425   0.705   8.647  0.2192 -0.0871  0.0094
  128POPC   C1A 2082   8.136   0.410   8.135 -0.1203 -0.0993  0.0626
  128POPC   D2A 2083   8.499   0.410   7.874 -0.0233  0.1415 -0.0857
  128POPC   C3A 2084   8.784   0.198   7.605 -0.0919  0.3600  0.2185
  128POPC   C4A 2085   9.015  -0.007   7.294  0.1083  0.2839 -0.2423
  128POPC   C1B 2086   8.515   0.747   8.242 -0.0347 -0.1408 -0.1900
  128POPC   C2B 2087   8.511   0.922   7.955  0.0440 -0.0349 -0.0368
  128POPC   C3B 2088   8.518   0.689   7.433 -0.2628 -0.1825  0.0701
  128POPC   C4B 2089   8.479   0.558   7.070  0.1961  0.3560  0.0685
  129POPC   NC3 2090   9.335   3.067   9.563  0.0081 -0.2897  0.2145
  129POPC   PO4 2091   9.323   2.999   9.094  0.1383 -0.0211 -0.0075
  129POPC   GL1 2092   9.178   2.876   8.633 -0.1066 -0.1067 -0.0243
  129POPC   GL2 2093   9.167   2.515   8.543  0.1508 -0.1194  0.0402
  129POPC   C1A 2094   9.098   2.808   8.162 -0.1699 -0.0973 -0.1536
  129POPC   D2A 2095   9.116   2.890   7.745 -0.4441  0.1150 -0.1775
  129POPC   C3A 2096   9.425   2.667   7.558  0.2397  0.2429 -0.1770
  129POPC   C4A 2097   9.476   2.516   7.203  0.4019 -0.3469  0.0029
  129POPC   C1B 2098   8.749   2.406   8.347  0.0160 -0.1017 -0.0326
  129POPC   C2B 2099   8.618   2.453   7.871  0.2330  0.1191  0.1148
  129POPC   C3B 2100   8.695   2.766   7.584 -0.1654  0.0265  0.2369
  129POPC   C4B 2101   9.007   2.845   7.263  0.0153 -0.0449 -0.1058
  130POPC   NC3 2102   7.174   5.074   8.781 -0.0058 -0.5569  0.0406
  130POPC   PO4 2103   7.339   4.792   8.560  0.1853  0.0245 -0.1349
  130POPC   GL1 2104   7.290   4.670   8.157  0.0055  0.2078  0.2504
  130POPC   GL2 2105   6.959   4.620   8.056 -0.1358  0.1487 -0.1965
  130POPC   C1A 2106   7.549   4.634   7.789  0.1821 -0.1721  0.0502
  130POPC   D2A 2107   7.857   4.486   7.550 -0.0878 -0.1419 -0.0904
  130POPC   C3A 2108   8.241   4.658   7.462  0.1384 -0.0791  0.2284
  130POPC   C4A 2109   8.426   4.633   7.142  0.1636  0.0854  0.1410
  130POPC   C1B 2110   6.727   4.607   7.713 -0.2601 -0.1877 -0.1150
  130POPC   C2B 2111   6.366   4.632   7.370  0.1120  0.1015  0.1349
  130POPC   C3B 2112   6.112   4.915   7.262  0.2096  0.3832  0.0240
  130POPC   C4B 2113   5.702   4.810   7.052  0.1642 -0.3301  0.0200
  131POPC   NC3 2114   0.143   8.358   9.346  0.0644 -0.0546 -0.0822
  131POPC   PO4 2115   0.206   7.949   9.376 -0.1598 -0.2359 -0.1777
  131POPC   GL1 2116   0.122   7.919   8.947 -0.1607  0.0890 -0.2256
  131POPC   GL2 2117  -0.127   7.677   8.943  0.3030  0.0590  0.0795
  131POPC   C1A 2118  -0.019   7.991   8.541  0.1535 -0.1975 -0.1969
  131POPC   D2A 2119  -0.221   7.800   8.132 -0.1483  0.0071  0.1929
  131POPC   C3A 2120   0.017   7.723   7.829  0.0934  0.2533 -0.0998
  131POPC   C4A 2121   0.264   7.883   7.466 -0.0535  0.2778  0.1435
  131POPC   C1B 2122   0.113   7.490   8.637  0.0619  0.0608  0.0052
  131POPC   C2B 2123   0.309   7.760   8.222 -0.0773 -0.0396 -0.0035
  131POPC   C3B 2124   0.585   7.737   8.027 -0.0218 -0.2245 -0.2057
  131POPC   C4B 2125   0.857   7.726   7.673 -0.4429  0.0495  0.1709
  132POPC   NC3 2126   8.450   6.991   8.907  0.0208  0.2080 -0.1517
  132POPC   PO4 2127   8.748   6.677   8.870 -0.0946 -0.0148 -0.0796
  132POPC   GL1 2128   8.842   6.653   8.513 -0.0622 -0.0697  0.0618
  132POPC   GL2 2129   9.137   6.855   8.366 -0.0617  0.2432 -0.3388
  132POPC   C1A 2130   9.085   6.314   8.282  0.2342 -0.0417 -0.1528
  132POPC   D2A 2131   9.136   6.272   7.772 -0.4543 -0.0652 -0.3342
  132POPC   C3A 2132   8.818   6.221   7.464 -0.5032 -0.2212 -0.1071
  132POPC   C4A 2133   8.488   5.999   7.505 -0.0338 -0.3762 -0.3947
  132POPC   C1B 2134   9.090   6.998   8.008 -0.2634  0.2756 -0.3761
  132POPC   C2B 2135   9.465   7.086   7.730 -0.1775  0.1863 -0.0235
  132POPC   C3B 2136   9.774   6.964   7.513  0.2920  0.3016 -0.2875
  132POPC   C4B 2137   9.923   6.965   7.041  0.0678 -0.1428 -0.4427
  133POPC   NC3 2138   0.313  10.042   8.978  0.1342 -0.0974 -0.2430
  133POPC   PO4 2139   0.731  10.117   9.091  0.0921  0.0459 -0.2040
  133POPC   GL1 2140   0.670  10.177   8.650 -0.1251  0.0706 -0.1100
  133POPC   GL2 2141   0.442  10.057   8.488  0.3285  0.0004  0.0951
  133POPC   C1A 2142   0.746  10.221   8.144  0.1995 -0.0029 -0.0384
  133POPC   D2A 2143   0.691  10.129   7.704 -0.1816 -0.0068 -0.0258
  133POPC   C3A 2144   0.573   9.842   7.379 -0.2182 -0.1114  0.0425
  133POPC   C4A 2145   0.222   9.980   6.994 -0.2126  0.1863 -0.1286
  133POPC   C1B 2146   0.425   9.769   8.135  0.1174 -0.2538 -0.0454
  133POPC   C2B 2147   0.532   9.544   7.812 -0.0362 -0.1193  0.0029
  133POPC   C3B 2148   0.982   9.525   7.657  0.1559 -0.4506 -0.3008
  133POPC   C4B 2149   1.359   9.186   7.615  0.1906  0.1425  0.1186
  134POPC   NC3 2150   1.552   1.132   9.021  0.4811 -0.0321  0.1130
  134POPC   PO4 2151   1.950   1.255   9.118  0.1048  0.1276  0.1022
  134POPC   GL1 2152   1.917   1.349   8.651 -0.3632  0.1276 -0.4831
  134POPC   GL2 2153   1.734   1.598   8.605 -0.3119 -0.2305  0.0261
  134POPC   C1A 2154   1.705   1.073   8.439 -0.1008  0.1677  0.2892
  134POPC   D2A 2155   1.546   1.200   8.081 -0.0921 -0.0948  0.0052
  134POPC   C3A 2156   1.624   1.126   7.671  0.1202  0.0177 -0.2533
  134POPC   C4A 2157   1.650   0.793   7.302 -0.2571  0.0556  0.1229
  134POPC   C1B 2158   1.949   1.507   8.207  0.1690 -0.0233 -0.1255
  134POPC   C2B 2159   2.425   1.473   7.871 -0.1733 -0.3471 -0.3466
  134POPC   C3B 2160   2.703   1.866   7.758  0.0796  0.1101 -0.0417
  134POPC   C4B 2161   3.032   2.306   7.649  0.1055 -0.0445 -0.0145
  135POPC   NC3 2162   8.298   9.182   9.513 -0.0967  0.1075 -0.3070
  135POPC   PO4 2163   8.281   9.601   9.262  0.0822 -0.1864 -0.0487
  135POPC   GL1 2164   8.192   9.627   8.827 -0.0119  0.1689  0.1040
  135POPC   GL2 2165   7.918   9.914   8.750 -0.0510  0.4183 -0.0254
  135POPC   C1A 2166   8.133   9.690   8.358 -0.0173 -0.0296 -0.0988
  135POPC   D2A 2167   7.921   9.771   8.072 -0.0157 -0.0411 -0.3625
  135POPC   C3A 2168   7.851   9.914   7.701 -0.1344 -0.0890 -0.2209
  135POPC   C4A 2169   7.705  10.172   7.348 -0.1285 -0.1373 -0.1990
  135POPC   C1B 2170   7.575   9.901   8.464 -0.1385 -0.1705  0.1473
  135POPC   C2B 2171   7.317   9.938   8.093  0.3145 -0.4764 -0.0503
  135POPC   C3B 2172   7.380  10.322   7.858  0.2259  0.3746  0.0537
  135POPC   C4B 2173   7.390  10.646   7.590 -0.0794 -0.0755  0.1183
  136POPC   NC3 2174   1.801   2.141   9.995  0.3232 -0.1166 -0.4299
  136POPC   PO4 2175   1.616   2.497   9.943 -0.1704 -0.1596  0.0702
  136POPC   GL1 2176   1.730   2.411   9.561  0.2543 -0.0158 -0.0419
  136POPC   GL2 2177   2.034   2.316   9.476 -0.0793 -0.1704 -0.0449
  136POPC   C1A 2178   1.597   2.687   9.182 -0.1359  0.2098  0.0162
  136POPC   D2A 2179   1.890   2.927   8.914  0.2118  0.1661  0.0172
  136POPC   C3A 2180   2.017   3.341   8.669 -0.0309  0.4513 -0.3684
  136POPC   C4A 2181   2.478   3.651   8.668  0.0761  0.1848  0.0557
  136POPC   C1B 2182   1.937   2.319   8.987 -0.2349  0.0300  0.1335
  136POPC   C2B 2183   1.696   2.476   8.629 -0.2286 -0.2091  0.2980
  136POPC   C3B 2184   1.537   2.460   8.181 -0.0746 -0.2498 -0.0302
  136POPC   C4B 2185   1.366   2.193   7.938  0.1130 -0.2777  0.1106
  137POPC   NC3 2186   9.282   4.590   9.238  0.1101  0.0873 -0.1365
  137POPC   PO4 2187   9.496   4.995   9.237 -0.0618 -0.2724  0.0939
  137POPC   GL1 2188   9.325   5.030   8.869 -0.0442  0.0882  0.0546
  137POPC   GL2 2189   9.396   4.845   8.537 -0.2357 -0.2032 -0.1352
  137POPC   C1A 2190   9.182   5.350   8.459  0.0188  0.1875  0.0895
  137POPC   D2A 2191   8.860   5.375   8.058  0.2743  0.0046  0.3662
  137POPC   C3A 2192   8.926   5.305   7.710  0.0026  0.3317 -0.0337
  137POPC   C4A 2193   9.158   5.162   7.310  0.0743  0.0335  0.0432
  137POPC   C1B 2194   9.502   4.517   8.272  0.0665 -0.3098  0.2546
  137POPC   C2B 2195   9.570   4.517   7.921 -0.0264 -0.1097  0.5029
  137POPC   C3B 2196   9.525   4.388   7.520 -0.2382  0.0585 -0.4591
  137POPC   C4B 2197   9.427   4.591   7.103  0.0830  0.3640 -0.1235
  138POPC   NC3 2198   4.083   6.607   9.135  0.3463  0.0209  0.1946
  138POPC   PO4 2199   3.894   6.589   9.518  0.0214 -0.1350  0.1563
  138POPC   GL1 2200   3.660   6.402   9.268 -0.3102  0.0038  0.1809
  138POPC   GL2 2201   3.497   6.496   9.052  0.0457 -0.2286  0.0833
  138POPC   C1A 2202   3.640   6.012   8.919 -0.2942 -0.0733 -0.0777
  138POPC   D2A 2203   3.796   5.731   8.896  0.2930 -0.0582 -0.0718
  138POPC   C3A 2204   3.865   5.384   8.743 -0.0513 -0.1181  0.1761
  138POPC   C4A 2205   3.937   5.091   8.408 -0.0331  0.3553  0.1116
  138POPC   C1B 2206   3.616   6.497   8.646 -0.0849 -0.2422  0.2967
  138POPC   C2B 2207   3.673   6.333   8.243 -0.0111  0.1472 -0.0425
  138POPC   C3B 2208   3.496   5.989   7.844 -0.1528  0.1292  0.1691
  138POPC   C4B 2209   3.137   5.761   7.655 -0.0397  0.0893  0.0310
  139POPC   NC3 2210   6.272   4.251   9.095  0.1949  0.4196 -0.0790
  139POPC   PO4 2211   5.986   3.961   9.021 -0.2680 -0.1548  0.1098
  139POPC   GL1 2212   6.384   4.037   8.649  0.0906  0.0532 -0.2478
  139POPC   GL2 2213   6.328   3.784   8.426 -0.0199  0.1744  0.2474
  139POPC   C1A 2214   6.491   4.171   8.206 -0.1678 -0.2326  0.2630
  139POPC   D2A 2215   6.243   4.428   7.920 -0.1709  0.0131 -0.3647
  139POPC   C3A 2216   6.404   4.798   7.968 -0.2539 -0.0822 -0.1366
  139POPC   C4A 2217   6.709   5.156   8.124  0.0880 -0.1199 -0.0876
  139POPC   C1B 2218   6.043   3.937   8.122 -0.0227 -0.0621 -0.0913
  139POPC   C2B 2219   5.885   3.992   7.626 -0.1501  0.0022 -0.0762
  139POPC   C3B 2220   5.713   3.966   7.352 -0.0596  0.2188 -0.3085
  139POPC   C4B 2221   5.383   3.730   7.121  0.0216  0.1163 -0.1930
  140POPC   NC3 2222   8.043   3.584   8.694  0.0915  0.0498 -0.1290
  140POPC   PO4 2223   8.416   3.733   8.750  0.0683 -0.1302  0.2228
  140POPC   GL1 2224   8.478   3.695   8.313 -0.2404 -0.0836 -0.0038
  140POPC   GL2 2225   8.609   3.624   8.103  0.4593  0.1559  0.1298
  140POPC   C1A 2226   8.038   3.876   8.123  0.1687 -0.0075  0.0611
  140POPC   D2A 2227   7.751   4.204   7.948  0.0530  0.3263 -0.0853
  140POPC   C3A 2228   7.555   4.040   7.577  0.2065 -0.0475 -0.0278
  140POPC   C4A 2229   7.322   3.773   7.600  0.0705 -0.1489 -0.0274
  140POPC   C1B 2230   8.634   3.849   7.690 -0.0298 -0.3391  0.1808
  140POPC   C2B 2231   8.766   3.998   7.170 -0.2440  0.2976  0.1060
  140POPC   C3B 2232   8.613   4.264   6.864  0.1129 -0.2714 -0.0554
  140POPC   C4B 2233   8.502   4.243   6.427  0.1130 -0.1433 -0.4281
  141POPC   NC3 2234   3.885   0.757   9.160 -0.1145 -0.0656 -0.1979
  141POPC   PO4 2235   4.189   0.583   8.985  0.1795 -0.0889 -0.2896
  141POPC   GL1 2236   4.160   0.283   8.617  0.2329 -0.2904 -0.1635
  141POPC   GL2 2237   4.417   0.013   8.572  0.1565 -0.1749  0.1297
  141POPC   C1A 2238   4.271   0.491   8.160 -0.3088  0.0434  0.1859
  141POPC   D2A 2239   4.323   0.665   7.788 -0.0937 -0.3680  0.1769
  141POPC   C3A 2240   4.095   0.758   7.443  0.0214 -0.2580 -0.1554
  141POPC   C4A 2241   4.038   0.781   6.974  0.1718  0.1873  0.2728
  141POPC   C1B 2242   4.695   0.030   8.248 -0.0857  0.1533 -0.3505
  141POPC   C2B 2243   4.647  -0.011   7.838 -0.0232  0.1685 -0.1808
  141POPC   C3B 2244   4.602   0.115   7.341 -0.2837  0.1022  0.0719
  141POPC   C4B 2245   5.004   0.305   7.137  0.2927 -0.0651  0.0158
  142POPC   NC3 2246   0.765   7.372   9.330 -0.1772 -0.1246  0.0179
  142POPC   PO4 2247   1.073   7.582   9.087  0.2958 -0.4578 -0.1353
  142POPC   GL1 2248   1.052   7.616   8.616  0.1372  0.1273  0.3280
  142POPC   GL2 2249   1.390   7.686   8.537 -0.1861 -0.2011  0.0814
  142POPC   C1A 2250   1.046   7.479   8.156 -0.0777  0.0705  0.1772
  142POPC   D2A 2251   1.188   7.305   7.759  0.0964  0.2707 -0.0102
  142POPC   C3A 2252   0.919   7.315   7.358 -0.1338 -0.0245 -0.2385
  142POPC   C4A 2253   1.027   7.528   6.991  0.0502  0.0872  0.0580
  142POPC   C1B 2254   1.704   7.869   8.327 -0.0733 -0.0068  0.1339
  142POPC   C2B 2255   1.880   7.855   7.888  0.1308 -0.0866 -0.0521
  142POPC   C3B 2256   2.128   7.607   7.610 -0.0193 -0.1636  0.0222
  142POPC   C4B 2257   2.383   7.542   7.277  0.1568 -0.0166 -0.2453
  143POPC   NC3 2258   7.679   7.401   8.878 -0.2463 -0.0624 -0.1647
  143POPC   PO4 2259   7.536   7.780   9.030 -0.3304 -0.2566 -0.2496
  143POPC   GL1 2260   7.589   7.798   8.570 -0.1255  0.1226  0.2556
  143POPC   GL2 2261   7.907   7.603   8.437 -0.0159  0.0033  0.0515
  143POPC   C1A 2262   7.356   8.159   8.321  0.1984  0.0161  0.3376
  143POPC   D2A 2263   7.391   8.580   8.450  0.0134 -0.1400  0.0274
  143POPC   C3A 2264   7.201   8.685   8.056 -0.1342 -0.0917 -0.0861
  143POPC   C4A 2265   7.172   8.690   7.607 -0.2932 -0.1423 -0.3702
  143POPC   C1B 2266   8.155   7.659   8.093  0.1856  0.0354  0.0999
  143POPC   C2B 2267   8.499   7.892   7.869  0.1292  0.3404 -0.0030
  143POPC   C3B 2268   8.751   7.712   7.463  0.1138  0.1635  0.2092
  143POPC   C4B 2269   8.785   7.399   7.062  0.0235 -0.0298  0.1610
  144POPC   NC3 2270   3.509   9.858   8.845  0.0074  0.0063  0.2264
  144POPC   PO4 2271   3.084   9.598   8.755 -0.2246  0.1909 -0.1038
  144POPC   GL1 2272   3.250   9.655   8.340  0.3360  0.1686  0.0781
  144POPC   GL2 2273   3.097   9.362   8.256  0.0884 -0.0764  0.2714
  144POPC   C1A 2274   3.050   9.932   7.972 -0.3447  0.2198 -0.0175
  144POPC   D2A 2275   2.842  10.197   7.742 -0.3785  0.0238 -0.1910
  144POPC   C3A 2276   2.777  10.237   7.391  0.0504 -0.0771 -0.3910
  144POPC   C4A 2277   3.078  10.182   6.988  0.0425  0.1450  0.1158
  144POPC   C1B 2278   3.406   9.474   7.943 -0.0120 -0.2705  0.1222
  144POPC   C2B 2279   3.457   9.546   7.503 -0.1372  0.1205  0.1615
  144POPC   C3B 2280   3.418   9.352   7.185  0.3666  0.3567  0.4318
  144POPC   C4B 2281   3.732   9.149   7.027  0.0466 -0.0868  0.0831
  145POPC   NC3 2282   9.543   3.775   8.933  0.0569 -0.0724  0.0025
  145POPC   PO4 2283   9.349   3.427   8.890  0.1871  0.0216 -0.3039
  145POPC   GL1 2284   9.217   3.512   8.537  0.1350 -0.0497 -0.1184
  145POPC   GL2 2285   8.968   3.540   8.510  0.3080 -0.1752 -0.2175
  145POPC   C1A 2286   9.241   3.305   8.122  0.1567 -0.0685 -0.2468
  145POPC   D2A 2287   9.011   3.362   7.752  0.1788 -0.0355 -0.2786
  145POPC   C3A 2288   9.360   3.376   7.530 -0.3981 -0.3079 -0.3137
  145POPC   C4A 2289   9.656   3.131   7.303 -0.1434  0.0706 -0.3323
  145POPC   C1B 2290   8.806   3.224   8.285  0.2530 -0.1854 -0.0505
  145POPC   C2B 2291   8.552   3.051   7.962  0.3245 -0.1415 -0.1191
  145POPC   C3B 2292   8.192   2.767   7.724  0.0611  0.1336 -0.2049
  145POPC   C4B 2293   8.183   2.393   7.490 -0.1732  0.1444 -0.0895
  146POPC   NC3 2294   0.509   4.932   9.757  0.0949  0.0413 -0.2234
  146POPC   PO4 2295   0.912   4.661   9.802  0.2841 -0.2303  0.2304
  146POPC   GL1 2296   0.910   5.024   9.490  0.2004 -0.0715 -0.0942
  146POPC   GL2 2297   0.608   5.215   9.234 -0.0768  0.1691  0.1008
  146POPC   C1A 2298   1.065   5.327   9.063  0.0972 -0.3423 -0.1098
  146POPC   D2A 2299   1.338   5.384   8.819  0.0242 -0.2862  0.0501
  146POPC   C3A 2300   1.628   5.048   8.851 -0.1162  0.2932 -0.0609
  146POPC   C4A 2301   1.704   4.649   9.036 -0.1893 -0.4996 -0.0215
  146POPC   C1B 2302   0.677   5.000   8.835 -0.0918 -0.2178  0.1311
  146POPC   C2B 2303   0.490   4.879   8.519 -0.0292  0.1185 -0.4157
  146POPC   C3B 2304   0.441   4.880   8.085  0.1458  0.0662  0.3039
  146POPC   C4B 2305   0.231   4.672   7.821  0.1716 -0.0301 -0.0021
  147POPC   NC3 2306   3.885   4.208  10.163  0.4076  0.2071  0.0416
  147POPC   PO4 2307   3.806   4.004   9.822 -0.0035 -0.0824  0.2412
  147POPC   GL1 2308   4.021   4.218   9.411  0.1058 -0.2056 -0.5051
  147POPC   GL2 2309   4.214   4.011   9.266 -0.4064  0.1353  0.0934
  147POPC   C1A 2310   3.726   4.404   9.167 -0.1253 -0.3402 -0.4450
  147POPC   D2A 2311   3.524   4.571   8.906 -0.0446  0.0005  0.2785
  147POPC   C3A 2312   3.544   4.606   8.457 -0.1417 -0.0665  0.0047
  147POPC   C4A 2313   3.348   4.684   8.112 -0.1941 -0.4640  0.0239
  147POPC   C1B 2314   3.785   3.946   9.053  0.3670  0.1271  0.2262
  147POPC   C2B 2315   3.363   3.955   8.904 -0.1655  0.0788  0.1302
  147POPC   C3B 2316   3.110   3.781   8.510  0.0281  0.3536 -0.0574
  147POPC   C4B 2317   3.018   3.991   8.159 -0.0153 -0.0514 -0.0730
  148POPC   NC3 2318   5.725   9.506   9.205 -0.1736  0.2637  0.1420
  148POPC   PO4 2319   5.600   9.216   8.956 -0.1088 -0.0253  0.1422
  148POPC   GL1 2320   5.855   9.310   8.535  0.0183  0.0339 -0.1830
  148POPC   GL2 2321   6.030   9.040   8.476 -0.1411  0.4255  0.1931
  148POPC   C1A 2322   5.839   9.379   8.102 -0.0542 -0.1305  0.1363
  148POPC   D2A 2323   5.982   9.210   7.751  0.1710 -0.1665 -0.0680
  148POPC   C3A 2324   5.848   9.467   7.465 -0.1848  0.0105  0.1035
  148POPC   C4A 2325   5.520   9.620   7.149 -0.2601  0.2044  0.2551
  148POPC   C1B 2326   5.947   8.870   8.084 -0.3049  0.2346 -0.1212
  148POPC   C2B 2327   5.801   8.653   7.704  0.0744  0.1301  0.0548
  148POPC   C3B 2328   5.949   8.345   7.443 -0.2627 -0.0394 -0.1810
  148POPC   C4B 2329   5.990   8.096   6.993 -0.0435  0.1100 -0.0015
  149POPC   NC3 2330   7.726   8.243   9.215 -0.1197 -0.0031  0.0890
  149POPC   PO4 2331   7.336   8.249   9.063 -0.2123  0.3111 -0.1646
  149POPC   GL1 2332   7.704   8.734   8.986  0.1120  0.0334  0.1777
  149POPC   GL2 2333   8.128   8.610   9.052  0.1342  0.4317 -0.0824
  149POPC   C1A 2334   7.706   8.991   8.666  0.3733 -0.0281 -0.0899
  149POPC   D2A 2335   7.747   9.453   8.601 -0.1213 -0.1927 -0.2031
  149POPC   C3A 2336   7.640   9.421   8.223  0.0523 -0.3204  0.1585
  149POPC   C4A 2337   7.402   9.527   7.836 -0.2603 -0.0148 -0.0964
  149POPC   C1B 2338   8.014   8.648   8.539 -0.0618 -0.1849  0.1993
  149POPC   C2B 2339   7.795   8.399   8.196 -0.3309 -0.1519 -0.0317
  149POPC   C3B 2340   7.896   8.031   8.050  0.4948 -0.0928  0.0934
  149POPC   C4B 2341   7.816   7.620   7.744  0.0424  0.2336  0.2720
  150POPC   NC3 2342   1.743   6.401   9.568  0.0171  0.5761  0.0171
  150POPC   PO4 2343   2.010   6.644   9.368 -0.1850  0.2348  0.1844
  150POPC   GL1 2344   2.291   6.947   8.943 -0.2372  0.3177 -0.2826
  150POPC   GL2 2345   2.055   7.195   8.762 -0.0880 -0.3581  0.0472
  150POPC   C1A 2346   2.693   7.007   8.692 -0.1998 -0.2152  0.1088
  150POPC   D2A 2347   2.904   7.162   8.357 -0.0749 -0.2214 -0.0931
  150POPC   C3A 2348   2.888   7.056   7.994  0.0784  0.1678  0.2178
  150POPC   C4A 2349   2.562   6.777   7.785 -0.1191  0.1363 -0.1670
  150POPC   C1B 2350   1.778   7.400   8.520  0.0166  0.1077  0.0607
  150POPC   C2B 2351   1.537   7.359   8.178  0.0560  0.1404  0.1081
  150POPC   C3B 2352   1.599   7.090   7.833  0.1905  0.0604 -0.1311
  150POPC   C4B 2353   1.781   7.275   7.604  0.1062  0.2191  0.0954
  151POPC   NC3 2354   6.921   9.800   9.144  0.2608 -0.1519 -0.1758
  151POPC   PO4 2355   6.983  10.325   9.039  0.0049  0.0096 -0.3101
  151POPC   GL1 2356   6.866  10.257   8.605 -0.0025 -0.0213  0.0031
  151POPC   GL2 2357   6.917   9.939   8.542  0.1200 -0.0190 -0.1896
  151POPC   C1A 2358   7.081  10.372   8.246  0.2190  0.0386  0.2306
  151POPC   D2A 2359   7.099  10.781   7.972 -0.0584 -0.0924  0.1022
  151POPC   C3A 2360   7.270  11.092   7.674 -0.1017 -0.0895 -0.0250
  151POPC   C4A 2361   7.634  11.088   7.310 -0.2280 -0.0187  0.2192
  151POPC   C1B 2362   6.674   9.981   8.190  0.2505 -0.2461 -0.0512
  151POPC   C2B 2363   6.921   9.985   7.770 -0.0492 -0.0863 -0.1716
  151POPC   C3B 2364   6.974  10.332   7.409  0.4293  0.2153 -0.1447
  151POPC   C4B 2365   7.067  10.550   7.040 -0.2311 -0.3032  0.0631
  152POPC   NC3 2366   6.658   0.613   9.084  0.1477  0.0716 -0.3077
  152POPC   PO4 2367   6.547   0.875   8.706  0.5155 -0.0518 -0.1080
  152POPC   GL1 2368   6.484   1.378   8.657 -0.3162  0.0136  0.2805
  152POPC   GL2 2369   6.706   1.631   8.535 -0.1696  0.1182  0.1577
  152POPC   C1A 2370   6.260   1.765   8.375 -0.1586  0.2160  0.0832
  152POPC   D2A 2371   6.217   2.108   8.069 -0.3298  0.2632 -0.3084
  152POPC   C3A 2372   6.117   2.167   7.578 -0.2900 -0.0972  0.1937
  152POPC   C4A 2373   5.865   2.174   7.125  0.0330  0.0851  0.1749
  152POPC   C1B 2374   6.653   1.978   8.210  0.1045  0.0091 -0.1413
  152POPC   C2B 2375   6.561   2.004   7.739 -0.0623  0.2259 -0.0062
  152POPC   C3B 2376   6.469   1.750   7.454 -0.1098 -0.3593  0.1805
  152POPC   C4B 2377   6.172   1.736   7.116 -0.0464  0.1751  0.1027
  153POPC   NC3 2378   8.680   1.788   9.060  0.1137 -0.0085 -0.0975
  153POPC   PO4 2379   9.068   1.776   9.166  0.2003  0.0540  0.1386
  153POPC   GL1 2380   9.049   1.554   8.778 -0.1686 -0.0193 -0.2650
  153POPC   GL2 2381   8.697   1.587   8.521  0.1859  0.1471 -0.0223
  153POPC   C1A 2382   9.138   1.574   8.295  0.4939 -0.0715 -0.1683
  153POPC   D2A 2383   9.068   1.428   7.839 -0.0953 -0.0245  0.1862
  153POPC   C3A 2384   8.907   1.685   7.480  0.1770  0.0099  0.0048
  153POPC   C4A 2385   8.600   2.014   7.545  0.1354 -0.0019 -0.0073
  153POPC   C1B 2386   8.605   1.427   8.106 -0.2777  0.4607 -0.0919
  153POPC   C2B 2387   8.454   1.324   7.583 -0.3598 -0.0727  0.3276
  153POPC   C3B 2388   8.282   1.519   7.264 -0.3832  0.1240 -0.0092
  153POPC   C4B 2389   7.998   1.569   7.123 -0.0321 -0.1237 -0.4540
  154POPC   NC3 2390   5.218   7.120   9.038  0.1807  0.3653 -0.2075
  154POPC   PO4 2391   5.101   6.804   9.171 -0.0447 -0.3618 -0.0372
  154POPC   GL1 2392   5.148   6.732   8.755 -0.2792 -0.0019  0.1218
  154POPC   GL2 2393   4.918   6.577   8.549  0.0812  0.1722 -0.2338
  154POPC   C1A 2394   5.422   6.801   8.491 -0.4280  0.2633 -0.1656
  154POPC   D2A 2395   5.741   6.692   8.226  0.0958 -0.4229 -0.1545
  154POPC   C3A 2396   5.724   6.332   8.019 -0.0552  0.2036  0.0240
  154POPC   C4A 2397   5.480   6.189   7.737  0.0623  0.0850  0.1218
  154POPC   C1B 2398   4.746   6.689   8.230  0.1968 -0.1951  0.2735
  154POPC   C2B 2399   4.721   6.874   7.825 -0.2166  0.3342  0.0313
  154POPC   C3B 2400   4.662   6.733   7.408  0.1682  0.0289  0.0969
  154POPC   C4B 2401   4.487   6.642   7.011 -0.0999  0.0428  0.1281
  155POPC   NC3 2402   9.403   1.209   8.946 -0.2469  0.1194 -0.0218
  155POPC   PO4 2403   9.733   0.915   9.172 -0.0356  0.1423  0.0839
  155POPC   GL1 2404   9.711   0.832   8.737 -0.0659  0.0992 -0.2374
  155POPC   GL2 2405   9.845   0.934   8.482  0.0760 -0.1250  0.3620
  155POPC   C1A 2406   9.568   0.528   8.372  0.1957 -0.2896 -0.3166
  155POPC   D2A 2407   9.193   0.158   8.225  0.1475  0.0170  0.2514
  155POPC   C3A 2408   9.269  -0.092   7.816 -0.0228  0.0750 -0.1359
  155POPC   C4A 2409   9.327  -0.421   7.448  0.1708 -0.0862 -0.2195
  155POPC   C1B 2410   9.812   1.010   8.060  0.0523  0.3550  0.0772
  155POPC   C2B 2411   9.939   0.771   7.686 -0.0064 -0.0470  0.2741
  155POPC   C3B 2412   9.706   0.574   7.327 -0.0159 -0.0848 -0.2548
  155POPC   C4B 2413   9.830   0.604   6.867  0.1644 -0.2697 -0.2441
  156POPC   NC3 2414   6.786   9.226   9.178  0.3363 -0.1127  0.1286
  156POPC   PO4 2415   6.658   9.533   8.870  0.0081 -0.1684  0.1732
  156POPC   GL1 2416   6.656   9.394   8.456 -0.1956 -0.0746  0.1110
  156POPC   GL2 2417   6.334   9.460   8.392  0.0651 -0.0889 -0.2627
  156POPC   C1A 2418   6.438   9.018   8.158 -0.1937  0.4615  0.2222
  156POPC   D2A 2419   6.510   9.131   7.807 -0.1443  0.0461 -0.0468
  156POPC   C3A 2420   6.768   9.002   7.579 -0.0704  0.0394  0.2434
  156POPC   C4A 2421   6.737   8.631   7.410  0.1150 -0.3053  0.0962
  156POPC   C1B 2422   6.297   9.508   8.041 -0.0989 -0.0997 -0.3004
  156POPC   C2B 2423   6.623   9.627   7.735 -0.6088  0.1496 -0.0228
  156POPC   C3B 2424   6.730   9.889   7.340 -0.0883  0.1719  0.2203
  156POPC   C4B 2425   6.846  10.165   6.901  0.0106  0.1808 -0.1323
  157POPC   NC3 2426   9.641   7.974   5.440 -0.0342  0.0124 -0.0977
  157POPC   PO4 2427   9.436   8.387   5.536  0.1281  0.0088  0.0701
  157POPC   GL1 2428   9.640   8.175   5.925 -0.0534 -0.1978 -0.0971
  157POPC   GL2 2429   9.404   8.109   6.114  0.2728  0.0383 -0.0874
  157POPC   C1A 2430   9.820   8.227   6.335  0.0388 -0.1124  0.3127
  157POPC   D2A 2431   9.862   8.161   6.777 -0.1141  0.1379 -0.2862
  157POPC   C3A 2432   9.573   7.809   6.891 -0.4304  0.2859 -0.0861
  157POPC   C4A 2433   9.234   7.562   6.808  0.1374  0.1724  0.0759
  157POPC   C1B 2434   9.693   7.782   6.349 -0.1986 -0.1306  0.0075
  157POPC   C2B 2435  10.175   7.876   6.487  0.1152  0.2253  0.2060
  157POPC   C3B 2436  10.437   7.658   6.624 -0.2177 -0.3206  0.0316
  157POPC   C4B 2437  10.426   7.184   6.663  0.0315 -0.1504  0.2995
  158POPC   NC3 2438   8.209  10.075   5.525 -0.1000 -0.5826  0.0161
  158POPC   PO4 2439   8.608   9.912   5.474  0.1618 -0.1147 -0.1764
  158POPC   GL1 2440   8.547   9.821   5.763 -0.2678  0.1654  0.1042
  158POPC   GL2 2441   8.273   9.647   5.874  0.1701 -0.2346  0.1747
  158POPC   C1A 2442   8.720   9.799   6.199  0.1528 -0.1187 -0.1703
  158POPC   D2A 2443   8.994   9.806   6.532  0.0055 -0.0860 -0.0974
  158POPC   C3A 2444   8.894   9.736   6.922 -0.0440  0.0061 -0.1481
  158POPC   C4A 2445   8.663   9.492   7.080  0.1721 -0.0236 -0.0955
  158POPC   C1B 2446   8.410   9.390   6.158  0.2661 -0.2006  0.3348
  158POPC   C2B 2447   8.532   9.424   6.507  0.0779 -0.1224  0.0727
  158POPC   C3B 2448   8.969   9.327   6.693 -0.2326 -0.1695  0.1428
  158POPC   C4B 2449   9.291   9.017   6.777 -0.1351 -0.0578  0.0614
  159POPC   NC3 2450   5.947   5.498   5.233  0.1758 -0.0570 -0.1697
  159POPC   PO4 2451   6.000   5.983   5.374 -0.0655 -0.1542 -0.3655
  159POPC   GL1 2452   6.033   6.070   5.818  0.0197  0.0913 -0.2536
  159POPC   GL2 2453   6.159   6.363   5.946  0.2595 -0.1081  0.1038
  159POPC   C1A 2454   6.001   5.696   6.244 -0.0916  0.0340 -0.1800
  159POPC   D2A 2455   6.113   5.814   6.659  0.0046 -0.0837  0.2799
  159POPC   C3A 2456   5.665   5.711   6.905 -0.1410  0.2689 -0.0182
  159POPC   C4A 2457   5.500   5.321   7.048 -0.0827 -0.1145 -0.0009
  159POPC   C1B 2458   6.081   6.352   6.371  0.1147 -0.0660 -0.0905
  159POPC   C2B 2459   6.321   6.247   6.803 -0.1842 -0.2434 -0.0708
  159POPC   C3B 2460   6.625   6.102   7.123 -0.2324 -0.1879  0.0162
  159POPC   C4B 2461   7.011   6.003   7.221  0.1588  0.0626 -0.1453
  160POPC   NC3 2462   3.661   5.879   4.232  0.0643 -0.3437 -0.2386
  160POPC   PO4 2463   3.425   6.298   4.434  0.1932  0.1312 -0.1991
  160POPC   GL1 2464   3.545   6.212   4.894 -0.0429 -0.3096  0.0186
  160POPC   GL2 2465   3.265   6.204   5.007 -0.3608  0.1240  0.0344
  160POPC   C1A 2466   3.817   5.892   5.151  0.4364  0.1471  0.0441
  160POPC   D2A 2467   3.961   5.756   5.501 -0.0932 -0.2916  0.1410
  160POPC   C3A 2468   3.835   5.967   5.911 -0.1487 -0.0110  0.2813
  160POPC   C4A 2469   3.432   5.965   6.277 -0.1877  0.2468  0.0548
  160POPC   C1B 2470   3.146   5.931   5.376  0.3082 -0.0515 -0.1378
  160POPC   C2B 2471   3.122   5.703   5.719 -0.0638  0.1431  0.0983
  160POPC   C3B 2472   3.577   5.590   5.822 -0.1193 -0.0552  0.0641
  160POPC   C4B 2473   3.828   5.533   6.157  0.0062 -0.4749  0.1417
  161POPC   NC3 2474   3.832   1.482   4.599  0.2185  0.1906  0.2637
  161POPC   PO4 2475   3.379   1.500   4.744 -0.0774  0.0088 -0.3060
  161POPC   GL1 2476   3.359   1.403   5.196 -0.2644 -0.2658 -0.2617
  161POPC   GL2 2477   3.631   1.368   5.319  0.4389  0.1932  0.0080
  161POPC   C1A 2478   3.243   1.705   5.574  0.0870 -0.2712  0.0407
  161POPC   D2A 2479   3.107   1.941   5.860 -0.0402  0.0933  0.0873
  161POPC   C3A 2480   3.176   1.952   6.307 -0.1385  0.1615  0.0018
  161POPC   C4A 2481   2.963   1.559   6.521 -0.1178 -0.0073  0.4276
  161POPC   C1B 2482   3.726   1.529   5.694 -0.2040  0.0889 -0.0780
  161POPC   C2B 2483   3.837   1.890   5.957  0.0193 -0.3839  0.2524
  161POPC   C3B 2484   4.231   1.870   6.142  0.1046  0.0613  0.2950
  161POPC   C4B 2485   4.501   1.573   6.345  0.2031 -0.0525 -0.2254
  162POPC   NC3 2486   9.186   3.952   4.239 -0.0048  0.1618 -0.0310
  162POPC   PO4 2487   9.176   4.284   4.466 -0.1573  0.1030 -0.0325
  162POPC   GL1 2488   9.236   4.107   4.904  0.1481  0.3309 -0.2229
  162POPC   GL2 2489   9.087   3.895   5.287  0.5846 -0.3687  0.0399
  162POPC   C1A 2490   9.518   4.102   5.219  0.1713  0.0343  0.1708
  162POPC   D2A 2491   9.717   4.415   5.392 -0.0930 -0.5707  0.0673
  162POPC   C3A 2492   9.917   4.448   5.751  0.1336  0.3813 -0.0332
  162POPC   C4A 2493  10.110   4.673   5.924 -0.3481 -0.2193  0.0213
  162POPC   C1B 2494   8.989   3.854   5.818 -0.2260  0.1090  0.0414
  162POPC   C2B 2495   9.314   3.759   6.112  0.0585 -0.1387  0.0478
  162POPC   C3B 2496   9.453   3.794   6.612  0.2945 -0.0809 -0.0662
  162POPC   C4B 2497   9.723   3.994   7.007 -0.0464 -0.0998 -0.0405
  163POPC   NC3 2498   3.051   7.334   5.092 -0.0070  0.2607 -0.1305
  163POPC   PO4 2499   2.861   7.711   5.135  0.0450 -0.2311  0.0892
  163POPC   GL1 2500   2.636   7.441   5.424 -0.0103  0.2811  0.0932
  163POPC   GL2 2501   2.911   7.323   5.604  0.1116  0.0146 -0.2941
  163POPC   C1A 2502   2.309   7.170   5.558 -0.1125  0.1360 -0.2718
  163POPC   D2A 2503   2.080   7.131   5.868  0.4770 -0.0294  0.0406
  163POPC   C3A 2504   2.021   6.633   6.058  0.2544 -0.0536  0.1437
  163POPC   C4A 2505   2.076   6.189   6.226 -0.3028  0.1150 -0.1504
  163POPC   C1B 2506   2.679   6.959   5.835 -0.0437  0.0937 -0.1886
  163POPC   C2B 2507   2.665   6.746   6.197  0.1335 -0.0025  0.1957
  163POPC   C3B 2508   2.851   6.604   6.491 -0.0271  0.2151  0.2073
  163POPC   C4B 2509   2.713   6.765   6.920  0.0454  0.0631  0.1591
  164POPC   NC3 2510   5.586   6.222   5.578 -0.0790  0.0815  0.2817
  164POPC   PO4 2511   5.637   6.616   5.593  0.0330  0.0744 -0.1401
  164POPC   GL1 2512   5.744   6.621   6.039 -0.3002  0.0689 -0.0048
  164POPC   GL2 2513   5.652   6.310   6.134 -0.1138  0.1358  0.2007
  164POPC   C1A 2514   5.684   6.700   6.480 -0.2644 -0.0873 -0.1917
  164POPC   D2A 2515   5.379   6.569   6.745 -0.1196 -0.2755  0.0348
  164POPC   C3A 2516   5.063   6.755   7.047 -0.3376  0.0473  0.1108
  164POPC   C4A 2517   5.121   6.542   7.441  0.0715  0.1395 -0.2185
  164POPC   C1B 2518   5.560   6.069   6.544 -0.0223 -0.1523  0.2083
  164POPC   C2B 2519   5.801   6.236   6.813 -0.1895  0.1440  0.2093
  164POPC   C3B 2520   5.978   6.135   7.166 -0.2218  0.1685  0.2248
  164POPC   C4B 2521   6.190   5.764   7.363 -0.1361 -0.0458 -0.0488
  165POPC   NC3 2522   4.141   9.649   4.838  0.0552 -0.0855 -0.0179
  165POPC   PO4 2523   3.742   9.479   4.999 -0.1645  0.2330 -0.1312
  165POPC   GL1 2524   3.747   9.604   5.389 -0.0224 -0.1037 -0.1515
  165POPC   GL2 2525   3.537   9.783   5.555 -0.0869 -0.1259  0.1502
  165POPC   C1A 2526   4.080   9.617   5.789 -0.1672  0.0045 -0.0048
  165POPC   D2A 2527   3.866   9.613   6.177  0.1996 -0.4049 -0.0084
  165POPC   C3A 2528   3.982   9.986   6.513 -0.2011 -0.0580  0.0194
  165POPC   C4A 2529   4.017   9.886   6.926 -0.0580  0.0503  0.0681
  165POPC   C1B 2530   3.413   9.450   5.894  0.0758 -0.2161 -0.0041
  165POPC   C2B 2531   3.328   9.479   6.393  0.0525 -0.3042  0.2706
  165POPC   C3B 2532   3.201   9.194   6.693 -0.0402  0.2233  0.2166
  165POPC   C4B 2533   2.867   8.964   6.831 -0.1252  0.0228 -0.0059
  166POPC   NC3 2534   1.555   9.009   4.719  0.0045  0.0696  0.2237
  166POPC   PO4 2535   1.327   9.143   5.061 -0.0178 -0.1232  0.0167
  166POPC   GL1 2536   1.406   9.593   5.267  0.2543 -0.0008  0.1498
  166POPC   GL2 2537   1.664   9.691   5.445  0.1828  0.3179  0.0598
  166POPC   C1A 2538   1.176   9.529   5.563 -0.0564  0.1814 -0.3526
  166POPC   D2A 2539   0.785   9.530   5.717 -0.1499 -0.2042 -0.1707
  166POPC   C3A 2540   0.733   9.789   6.039  0.2418  0.0777  0.2895
  166POPC   C4A 2541   0.752   9.810   6.409 -0.2922 -0.1206 -0.3203
  166POPC   C1B 2542   1.696   9.652   5.950  0.1848 -0.0870  0.0851
  166POPC   C2B 2543   1.581   9.781   6.421  0.4840 -0.1516  0.1591
  166POPC   C3B 2544   1.737   9.582   6.769 -0.0978 -0.0007  0.1698
  166POPC   C4B 2545   1.849   9.202   6.805 -0.0737 -0.1277  0.0882
  167POPC   NC3 2546   4.138   8.666   5.222 -0.0885 -0.0859 -0.0351
  167POPC   PO4 2547   4.229   9.193   5.038 -0.0017  0.1835  0.1699
  167POPC   GL1 2548   4.011   9.165   5.470  0.0802  0.0254  0.0700
  167POPC   GL2 2549   4.145   8.841   5.670  0.3215 -0.1466  0.1549
  167POPC   C1A 2550   3.798   9.209   5.822 -0.1252  0.1724 -0.3786
  167POPC   D2A 2551   3.797   9.024   6.168  0.1170  0.0526  0.0537
  167POPC   C3A 2552   3.757   9.273   6.505 -0.0842  0.3038  0.0530
  167POPC   C4A 2553   4.089   9.380   6.797 -0.0104  0.4157  0.4438
  167POPC   C1B 2554   4.292   9.227   5.996  0.1003 -0.1610  0.0985
  167POPC   C2B 2555   4.266   9.065   6.404 -0.1505  0.1949 -0.0985
  167POPC   C3B 2556   3.989   8.785   6.664 -0.0529  0.1470 -0.0291
  167POPC   C4B 2557   3.677   8.365   6.648 -0.1608 -0.0825  0.2132
  168POPC   NC3 2558   9.543   6.743   4.888  0.1387  0.1541 -0.1024
  168POPC   PO4 2559   9.382   6.389   4.733  0.1323  0.1389  0.4142
  168POPC   GL1 2560   9.562   6.247   5.045 -0.0391 -0.2735  0.2107
  168POPC   GL2 2561   9.756   6.228   5.235 -0.1441 -0.2112 -0.1809
  168POPC   C1A 2562   9.398   6.139   5.482 -0.1860 -0.3249  0.0288
  168POPC   D2A 2563   9.336   5.802   5.882  0.3310 -0.0857  0.2636
  168POPC   C3A 2564   9.748   5.855   6.144 -0.2437 -0.2157  0.3408
  168POPC   C4A 2565   9.652   5.591   6.518  0.1359 -0.2241 -0.3000
  168POPC   C1B 2566   9.765   6.439   5.560 -0.1490 -0.1413  0.0126
  168POPC   C2B 2567   9.576   6.342   5.966  0.0205  0.0469 -0.2516
  168POPC   C3B 2568   9.368   6.004   6.362 -0.3973 -0.0321  0.2033
  168POPC   C4B 2569   9.176   5.840   6.731 -0.1201  0.0152  0.2165
  169POPC   NC3 2570   6.732   1.526   4.738 -0.1542 -0.1885 -0.1206
  169POPC   PO4 2571   6.364   1.662   4.920 -0.0054 -0.1349 -0.1630
  169POPC   GL1 2572   6.531   1.884   5.341 -0.1950  0.0043  0.2882
  169POPC   GL2 2573   6.441   2.182   5.496  0.0108 -0.3226  0.3744
  169POPC   C1A 2574   6.688   1.758   5.838  0.3100 -0.1426  0.0910
  169POPC   D2A 2575   6.482   1.731   6.277 -0.2064 -0.1173 -0.2373
  169POPC   C3A 2576   6.697   1.637   6.642 -0.0617  0.0925 -0.1187
  169POPC   C4A 2577   6.848   1.657   7.106 -0.0644  0.1464  0.1048
  169POPC   C1B 2578   6.291   2.044   5.893  0.0009 -0.1700  0.0777
  169POPC   C2B 2579   6.109   2.121   6.283 -0.0449 -0.4507  0.2881
  169POPC   C3B 2580   6.121   2.362   6.663  0.0907  0.1198 -0.0082
  169POPC   C4B 2581   6.345   2.449   7.079  0.1294  0.0674 -0.2878
  170POPC   NC3 2582   2.384   4.699   3.379 -0.2793 -0.1267 -0.0128
  170POPC   PO4 2583   2.759   4.966   3.499 -0.0592 -0.3179  0.0630
  170POPC   GL1 2584   2.758   4.901   3.941  0.1102 -0.1181  0.0729
  170POPC   GL2 2585   2.947   5.174   4.193 -0.1203 -0.0484  0.3199
  170POPC   C1A 2586   2.694   4.944   4.467  0.0466 -0.2113 -0.0536
  170POPC   D2A 2587   2.573   4.848   4.888 -0.0393 -0.1521  0.4881
  170POPC   C3A 2588   2.789   4.957   5.163 -0.1606  0.0873 -0.0796
  170POPC   C4A 2589   2.959   5.396   5.289  0.0806 -0.1282  0.2160
  170POPC   C1B 2590   3.312   4.963   4.417 -0.2098 -0.1914  0.0127
  170POPC   C2B 2591   3.026   4.700   4.754 -0.2377 -0.0811  0.1203
  170POPC   C3B 2592   3.119   4.551   5.234  0.0973  0.1349 -0.0911
  170POPC   C4B 2593   3.438   4.557   5.473 -0.0374 -0.1461  0.2460
  171POPC   NC3 2594   6.732   2.202   4.906 -0.5376  0.2549  0.1999
  171POPC   PO4 2595   7.087   2.427   4.868 -0.1128  0.0609 -0.0001
  171POPC   GL1 2596   7.049   2.518   5.295  0.0043 -0.0577 -0.1452
  171POPC   GL2 2597   6.790   2.760   5.311  0.0446  0.0978  0.1366
  171POPC   C1A 2598   7.114   2.575   5.730 -0.2372  0.4026  0.0880
  171POPC   D2A 2599   7.358   2.607   6.141  0.4347 -0.1620 -0.0727
  171POPC   C3A 2600   7.153   2.302   6.432 -0.2756  0.3951  0.1228
  171POPC   C4A 2601   6.731   2.138   6.490  0.1954 -0.0127 -0.1821
  171POPC   C1B 2602   6.650   2.658   5.717 -0.2995 -0.2149  0.0074
  171POPC   C2B 2603   6.372   2.928   5.968 -0.1136  0.0762  0.0848
  171POPC   C3B 2604   5.997   3.091   5.837 -0.1579  0.1211 -0.0008
  171POPC   C4B 2605   5.771   3.295   5.565  0.3451  0.0971  0.0393
  172POPC   NC3 2606   4.570   8.826   5.344  0.0936 -0.0913 -0.1073
  172POPC   PO4 2607   4.995   8.794   5.357  0.2776  0.0818 -0.1729
  172POPC   GL1 2608   4.846   8.988   5.654 -0.0778 -0.2266 -0.1017
  172POPC   GL2 2609   4.718   8.722   5.855  0.1510  0.2449 -0.2874
  172POPC   C1A 2610   4.861   9.125   6.063 -0.4626 -0.0874  0.4735
  172POPC   D2A 2611   4.646   9.385   6.399 -0.0158 -0.1669 -0.0002
  172POPC   C3A 2612   4.474   9.684   6.829 -0.4976 -0.0333  0.1083
  172POPC   C4A 2613   4.583   9.802   7.223 -0.1223  0.1223  0.1831
  172POPC   C1B 2614   5.024   8.474   6.051 -0.2946  0.0450 -0.1745
  172POPC   C2B 2615   5.425   8.566   6.382 -0.0910 -0.1738  0.0774
  172POPC   C3B 2616   5.440   8.739   6.894 -0.1545 -0.0389 -0.1591
  172POPC   C4B 2617   5.463   8.707   7.366 -0.1951  0.0592  0.1451
  173POPC   NC3 2618   7.667   3.442   5.049  0.0367 -0.0930 -0.0434
  173POPC   PO4 2619   7.241   3.532   5.084 -0.0452 -0.0454 -0.1884
  173POPC   GL1 2620   7.411   3.687   5.411 -0.0785 -0.4844  0.2596
  173POPC   GL2 2621   7.643   3.518   5.586 -0.2095 -0.1035 -0.1161
  173POPC   C1A 2622   7.506   3.892   5.839  0.1129 -0.2252 -0.3688
  173POPC   D2A 2623   7.588   3.968   6.247  0.2501 -0.1023 -0.0785
  173POPC   C3A 2624   7.370   3.760   6.614  0.1526  0.3613 -0.1593
  173POPC   C4A 2625   7.030   3.533   6.701  0.1179  0.0278 -0.0294
  173POPC   C1B 2626   8.014   3.697   5.909 -0.1210  0.2815  0.1879
  173POPC   C2B 2627   8.092   3.876   6.291 -0.0015  0.1074 -0.0295
  173POPC   C3B 2628   8.248   3.972   6.769  0.0424  0.0144  0.1295
  173POPC   C4B 2629   8.211   4.051   7.232 -0.0999 -0.4136 -0.2558
  174POPC   NC3 2630   7.357   4.316   4.860  0.1513 -0.1707 -0.0045
  174POPC   PO4 2631   7.093   4.085   5.181  0.0800 -0.1452  0.1440
  174POPC   GL1 2632   7.186   4.248   5.543  0.2234 -0.1949 -0.0026
  174POPC   GL2 2633   7.127   4.504   5.733  0.0364 -0.1653 -0.0625
  174POPC   C1A 2634   7.058   4.153   6.026 -0.2338  0.1943 -0.0180
  174POPC   D2A 2635   6.985   3.941   6.373  0.1558 -0.3311  0.1068
  174POPC   C3A 2636   6.825   4.100   6.744  0.0365 -0.0883 -0.1601
  174POPC   C4A 2637   6.773   4.418   7.069  0.2924  0.0942  0.0679
  174POPC   C1B 2638   6.900   4.737   6.103 -0.2018 -0.0931  0.0337
  174POPC   C2B 2639   6.706   4.459   6.423  0.2144  0.1123  0.2925
  174POPC   C3B 2640   6.508   4.641   6.715 -0.1506  0.0393  0.0845
  174POPC   C4B 2641   6.108   4.718   6.560  0.1644  0.0325 -0.1487
  175POPC   NC3 2642   2.150   6.486   4.243  0.0989  0.0642  0.1079
  175POPC   PO4 2643   1.794   6.538   4.439  0.2246  0.2379  0.0111
  175POPC   GL1 2644   1.944   6.623   4.753  0.2358 -0.1781  0.1940
  175POPC   GL2 2645   2.252   6.626   4.754 -0.0296 -0.3284 -0.0022
  175POPC   C1A 2646   1.860   6.758   5.138 -0.1894  0.0222 -0.0243
  175POPC   D2A 2647   2.009   6.685   5.595  0.0988  0.0409  0.4270
  175POPC   C3A 2648   1.868   6.220   5.666 -0.5328 -0.0204  0.2069
  175POPC   C4A 2649   1.680   5.879   5.538  0.0797  0.1504  0.1142
  175POPC   C1B 2650   2.568   6.595   4.997 -0.0360 -0.3159  0.0804
  175POPC   C2B 2651   2.803   6.331   5.247 -0.2428  0.1670  0.2464
  175POPC   C3B 2652   2.940   6.346   5.617 -0.2463 -0.0220  0.0906
  175POPC   C4B 2653   3.027   6.654   5.780  0.2385  0.0103  0.0633
  176POPC   NC3 2654  10.176   2.868   4.456  0.3175 -0.2438 -0.1035
  176POPC   PO4 2655   9.841   2.512   4.590 -0.2097  0.0785  0.0026
  176POPC   GL1 2656  10.137   2.556   4.920  0.0508  0.0942 -0.1977
  176POPC   GL2 2657  10.374   2.702   4.918  0.3613  0.3008 -0.0441
  176POPC   C1A 2658  10.000   2.584   5.360 -0.0714  0.2495 -0.0049
  176POPC   D2A 2659   9.693   2.296   5.450  0.0152 -0.0018 -0.0407
  176POPC   C3A 2660   9.387   2.398   5.837  0.2384 -0.0723 -0.3916
  176POPC   C4A 2661   9.248   2.283   6.174 -0.0736 -0.0614 -0.0801
  176POPC   C1B 2662  10.479   2.537   5.270  0.0607  0.1226  0.0561
  176POPC   C2B 2663  10.634   2.349   5.643 -0.2565 -0.1025  0.2717
  176POPC   C3B 2664  10.803   2.460   5.969  0.2943 -0.0787 -0.0078
  176POPC   C4B 2665  10.851   2.692   6.374  0.0293  0.3903  0.3826
  177POPC   NC3 2666   5.227   6.740   5.334  0.1441 -0.2684  0.0669
  177POPC   PO4 2667   4.962   6.700   4.997  0.0438  0.2155  0.3509
  177POPC   GL1 2668   4.711   6.462   5.215  0.2003 -0.0086  0.0638
  177POPC   GL2 2669   4.633   6.204   5.062  0.1857 -0.0274 -0.3731
  177POPC   C1A 2670   4.736   6.150   5.646  0.3039 -0.5436 -0.0796
  177POPC   D2A 2671   4.606   5.936   6.098 -0.1617  0.4687 -0.2146
  177POPC   C3A 2672   4.733   6.058   6.563 -0.0301  0.0367 -0.3032
  177POPC   C4A 2673   4.901   6.332   6.872 -0.0155  0.3698  0.3411
  177POPC   C1B 2674   4.280   6.165   5.413 -0.3582  0.0315 -0.0846
  177POPC   C2B 2675   4.310   6.282   5.848 -0.2043  0.2022  0.0722
  177POPC   C3B 2676   4.306   6.425   6.261 -0.1953 -0.3011 -0.1165
  177POPC   C4B 2677   4.174   6.310   6.663  0.4069  0.2267 -0.2204
  178POPC   NC3 2678   6.865   0.688   4.868 -0.0417  0.1854 -0.0071
  178POPC   PO4 2679   6.962   1.124   4.946 -0.2459 -0.2108 -0.2893
  178POPC   GL1 2680   7.047   0.988   5.297  0.2979  0.1648 -0.1426
  178POPC   GL2 2681   7.311   1.223   5.361 -0.2705 -0.1728 -0.1523
  178POPC   C1A 2682   7.122   0.947   5.685  0.2073  0.2572 -0.2271
  178POPC   D2A 2683   7.176   0.602   5.955  0.0474  0.0250 -0.3882
  178POPC   C3A 2684   7.419   0.783   6.319  0.2110  0.0270  0.1227
  178POPC   C4A 2685   7.715   0.735   6.482  0.0766 -0.1618  0.0461
  178POPC   C1B 2686   7.554   1.347   5.775 -0.0947  0.0441 -0.1320
  178POPC   C2B 2687   7.723   1.172   6.052 -0.4859  0.0539  0.2254
  178POPC   C3B 2688   7.660   1.201   6.527 -0.1625 -0.1531 -0.3387
  178POPC   C4B 2689   7.793   1.147   6.861  0.1685 -0.3581 -0.1171
  179POPC   NC3 2690   0.927   6.378   4.472 -0.0900  0.1480  0.0294
  179POPC   PO4 2691   1.094   6.767   4.554 -0.1025 -0.1470 -0.1968
  179POPC   GL1 2692   1.448   6.739   4.876  0.0700  0.1370  0.1569
  179POPC   GL2 2693   1.450   6.444   4.796  0.0814 -0.2599  0.2893
  179POPC   C1A 2694   1.392   6.754   5.302 -0.0695  0.1432  0.2320
  179POPC   D2A 2695   1.509   6.714   5.866 -0.3226 -0.2427  0.2617
  179POPC   C3A 2696   1.430   6.560   6.215 -0.4354 -0.0617 -0.0870
  179POPC   C4A 2697   1.219   6.449   6.606 -0.1941 -0.0497  0.0160
  179POPC   C1B 2698   1.538   6.280   5.213  0.1169 -0.1273 -0.2084
  179POPC   C2B 2699   1.376   6.220   5.736 -0.0065  0.0654 -0.0516
  179POPC   C3B 2700   1.588   6.089   6.044  0.3402 -0.0633 -0.2979
  179POPC   C4B 2701   1.440   5.745   6.364 -0.0670  0.0230  0.1084
  180POPC   NC3 2702   1.588   7.238   4.810  0.2463  0.0507  0.0837
  180POPC   PO4 2703   1.804   7.576   4.800 -0.1064  0.2821  0.0192
  180POPC   GL1 2704   1.924   7.428   5.201 -0.0243 -0.0564  0.1800
  180POPC   GL2 2705   2.063   7.726   5.371  0.0661 -0.2850  0.1928
  180POPC   C1A 2706   1.656   7.120   5.456 -0.1522  0.1573  0.2017
  180POPC   D2A 2707   1.580   7.201   5.947 -0.1863  0.2981 -0.0296
  180POPC   C3A 2708   1.671   6.948   6.342 -0.0342 -0.1698  0.3118
  180POPC   C4A 2709   1.539   6.809   6.625 -0.0119 -0.1698  0.0551
  180POPC   C1B 2710   1.849   7.588   5.762 -0.1434 -0.2608 -0.4104
  180POPC   C2B 2711   1.897   7.581   6.163 -0.0610  0.0415 -0.2612
  180POPC   C3B 2712   1.746   7.776   6.616  0.2097  0.5131  0.0554
  180POPC   C4B 2713   1.435   7.835   7.007 -0.0984  0.0373 -0.0217
  181POPC   NC3 2714   7.054   5.655   5.608  0.2932 -0.1178 -0.0879
  181POPC   PO4 2715   6.904   5.337   5.602 -0.1516 -0.3836 -0.3159
  181POPC   GL1 2716   6.687   5.273   5.964  0.1268  0.2217 -0.2065
  181POPC   GL2 2717   6.940   5.363   6.183  0.0405 -0.0531  0.2456
  181POPC   C1A 2718   6.257   5.290   6.057  0.0189 -0.1423 -0.1780
  181POPC   D2A 2719   6.031   5.202   6.386  0.0930 -0.0878  0.0525
  181POPC   C3A 2720   6.201   5.288   6.813  0.1984  0.0901 -0.2699
  181POPC   C4A 2721   5.937   5.351   7.296 -0.1354 -0.3560 -0.1253
  181POPC   C1B 2722   6.976   5.796   6.386 -0.2353  0.2946 -0.0443
  181POPC   C2B 2723   6.825   6.089   6.678  0.0819  0.1473 -0.0704
  181POPC   C3B 2724   7.119   6.441   6.799  0.1203 -0.4526 -0.0330
  181POPC   C4B 2725   7.182   6.758   7.083  0.0109 -0.0738 -0.0666
  182POPC   NC3 2726   2.439   5.631   3.682 -0.0426  0.2785  0.1467
  182POPC   PO4 2727   2.755   5.804   4.064 -0.0047 -0.0560 -0.1483
  182POPC   GL1 2728   2.762   5.591   4.489 -0.3766  0.0281  0.4790
  182POPC   GL2 2729   2.417   5.716   4.584  0.0296 -0.1815 -0.0039
  182POPC   C1A 2730   2.878   5.789   4.929 -0.2129  0.2968  0.3561
  182POPC   D2A 2731   2.581   5.679   5.168  0.3402  0.4364 -0.0400
  182POPC   C3A 2732   2.504   5.358   5.513 -0.1121  0.1113  0.1891
  182POPC   C4A 2733   2.921   5.231   5.797 -0.0237  0.0009  0.1626
  182POPC   C1B 2734   2.099   5.584   4.844 -0.2385 -0.3611 -0.0687
  182POPC   C2B 2735   2.084   5.236   5.094 -0.2059 -0.1000  0.1851
  182POPC   C3B 2736   1.794   5.128   5.458  0.2927 -0.1982  0.0812
  182POPC   C4B 2737   1.420   5.091   5.730  0.0467 -0.1070  0.1470
  183POPC   NC3 2738   3.739   8.972   5.044  0.4016  0.2371  0.1346
  183POPC   PO4 2739   3.309   8.728   5.115 -0.0942  0.1407 -0.0580
  183POPC   GL1 2740   3.076   8.433   5.519 -0.1583 -0.3894  0.0866
  183POPC   GL2 2741   3.035   8.059   5.505 -0.0347  0.1921  0.1607
  183POPC   C1A 2742   3.208   8.356   5.917 -0.0255  0.4011 -0.0184
  183POPC   D2A 2743   3.055   8.142   6.234 -0.0547 -0.0290  0.0109
  183POPC   C3A 2744   3.120   8.403   6.693  0.1650  0.0568  0.0757
  183POPC   C4A 2745   3.290   8.352   7.043 -0.2814  0.1081 -0.0849
  183POPC   C1B 2746   2.916   7.834   5.856 -0.1542  0.1905 -0.0030
  183POPC   C2B 2747   2.858   7.397   6.106  0.0392  0.0255  0.3595
  183POPC   C3B 2748   2.764   7.158   6.514 -0.0582  0.0942  0.2719
  183POPC   C4B 2749   3.124   7.015   6.716  0.0123  0.2074 -0.1041
  184POPC   NC3 2750   9.410   0.295   4.703  0.0118  0.0749 -0.2108
  184POPC   PO4 2751   9.512   0.404   5.112  0.1458  0.1619 -0.2348
  184POPC   GL1 2752   9.576   0.479   5.579 -0.1753 -0.0964 -0.2666
  184POPC   GL2 2753   9.466   0.293   5.684  0.0328 -0.0015 -0.1532
  184POPC   C1A 2754   9.803   0.540   5.934  0.0130  0.0875 -0.0006
  184POPC   D2A 2755   9.996   0.561   6.399  0.0395  0.3604 -0.1379
  184POPC   C3A 2756  10.350   0.920   6.378  0.1718  0.0067  0.0946
  184POPC   C4A 2757  10.689   0.943   6.017 -0.0197  0.2027  0.2066
  184POPC   C1B 2758   9.644   0.057   5.855 -0.3010  0.4095  0.0973
  184POPC   C2B 2759   9.701  -0.024   6.179  0.3329  0.1704  0.1550
  184POPC   C3B 2760   9.693  -0.303   6.527  0.1056  0.0492 -0.0435
  184POPC   C4B 2761   9.882  -0.313   6.950  0.0884 -0.0524  0.0715
  185POPC   NC3 2762   7.501   9.350   5.262  0.1046  0.0241  0.0352
  185POPC   PO4 2763   7.356   9.274   5.614 -0.1720 -0.2041 -0.1049
  185POPC   GL1 2764   7.295   9.531   6.038  0.1401  0.2105 -0.2330
  185POPC   GL2 2765   7.103   9.322   6.193 -0.0803 -0.1235 -0.0642
  185POPC   C1A 2766   7.366   9.675   6.551 -0.1028 -0.1151  0.0280
  185POPC   D2A 2767   7.658   9.718   6.779 -0.0364  0.0261  0.1633
  185POPC   C3A 2768   7.948  10.063   6.944 -0.2776  0.0948  0.0171
  185POPC   C4A 2769   8.288  10.310   6.623  0.3241 -0.3145  0.1687
  185POPC   C1B 2770   6.801   9.577   6.201 -0.1025 -0.3856 -0.0249
  185POPC   C2B 2771   6.863   9.723   6.639 -0.1668 -0.2736  0.1118
  185POPC   C3B 2772   7.148   9.763   6.992 -0.2092 -0.1607 -0.1238
  185POPC   C4B 2773   7.286   9.956   7.441  0.0991 -0.2480  0.1527
  186POPC   NC3 2774   4.159   2.119   4.628  0.1980  0.3533 -0.3297
  186POPC   PO4 2775   4.331   1.679   4.513  0.0794 -0.1228 -0.0181
  186POPC   GL1 2776   4.257   1.706   4.918 -0.0167 -0.0586  0.2794
  186POPC   GL2 2777   4.351   1.405   4.995 -0.3690 -0.1632 -0.0244
  186POPC   C1A 2778   4.011   1.747   5.313 -0.2242  0.0553  0.0033
  186POPC   D2A 2779   4.202   1.633   5.685 -0.0972  0.1456  0.1344
  186POPC   C3A 2780   4.620   1.655   5.732 -0.1852  0.0244 -0.1729
  186POPC   C4A 2781   4.999   1.796   5.438 -0.1131  0.0042  0.0428
  186POPC   C1B 2782   4.131   1.197   5.288 -0.3659  0.0595  0.2636
  186POPC   C2B 2783   3.973   1.035   5.674 -0.0714  0.1759 -0.1727
  186POPC   C3B 2784   3.657   1.077   5.889 -0.2179  0.3946  0.0528
  186POPC   C4B 2785   3.552   1.032   6.251 -0.5333 -0.0713 -0.1000
  187POPC   NC3 2786   0.836   4.784   3.759  0.1905  0.0148  0.1926
  187POPC   PO4 2787   0.996   5.262   3.887 -0.1450  0.0722  0.1077
  187POPC   GL1 2788   1.250   5.080   4.184  0.0619  0.1635  0.0445
  187POPC   GL2 2789   1.547   5.207   4.164 -0.0771  0.2837  0.3467
  187POPC   C1A 2790   1.196   5.028   4.608  0.0025 -0.0546  0.1800
  187POPC   D2A 2791   0.974   4.880   4.935 -0.2198  0.2635  0.0131
  187POPC   C3A 2792   0.707   4.586   4.770 -0.0254  0.0964 -0.3994
  187POPC   C4A 2793   0.286   4.454   4.568  0.0225  0.0319 -0.1164
  187POPC   C1B 2794   1.780   5.327   4.542  0.0530 -0.1081  0.0536
  187POPC   C2B 2795   1.640   5.171   4.802 -0.1550  0.4616  0.1980
  187POPC   C3B 2796   1.478   4.773   5.149  0.2146 -0.2351 -0.1112
  187POPC   C4B 2797   1.673   4.605   5.603 -0.0238 -0.2240  0.1078
  188POPC   NC3 2798   3.003   3.889   3.721 -0.0978  0.2806 -0.0220
  188POPC   PO4 2799   3.242   4.179   3.468 -0.2337 -0.0783 -0.1311
  188POPC   GL1 2800   3.258   4.282   3.944 -0.0203  0.2518  0.0941
  188POPC   GL2 2801   3.130   4.033   4.162 -0.1502 -0.2844  0.2755
  188POPC   C1A 2802   2.937   4.470   4.219  0.0861 -0.0055  0.0942
  188POPC   D2A 2803   2.757   4.252   4.499 -0.0404  0.0638  0.1251
  188POPC   C3A 2804   2.787   4.301   4.903  0.0764  0.0039 -0.2411
  188POPC   C4A 2805   2.650   4.467   5.263  0.2635  0.2027  0.1734
  188POPC   C1B 2806   3.468   3.833   4.304 -0.2061 -0.1992  0.2569
  188POPC   C2B 2807   3.725   3.643   4.630  0.1430  0.4114 -0.0369
  188POPC   C3B 2808   3.812   3.657   5.112  0.0316 -0.0029 -0.1743
  188POPC   C4B 2809   3.795   3.470   5.479  0.0190 -0.2958 -0.0490
  189POPC   NC3 2810   1.062   4.700   3.332  0.1997  0.1080 -0.2355
  189POPC   PO4 2811   1.104   4.369   3.670 -0.1591  0.1310  0.1734
  189POPC   GL1 2812   1.162   4.441   4.001 -0.2544 -0.1363 -0.1756
  189POPC   GL2 2813   1.195   4.192   4.168  0.3467 -0.1124 -0.4044
  189POPC   C1A 2814   1.054   4.580   4.404 -0.1645 -0.0757 -0.0750
  189POPC   D2A 2815   1.164   4.407   4.800 -0.1242 -0.0984 -0.2394
  189POPC   C3A 2816   1.416   4.040   4.784 -0.0617  0.0033  0.3974
  189POPC   C4A 2817   1.612   3.816   5.069 -0.1703  0.1940  0.2797
  189POPC   C1B 2818   1.117   3.873   4.402  0.0545 -0.0312  0.2890
  189POPC   C2B 2819   1.080   3.711   4.887  0.3121  0.1491 -0.1531
  189POPC   C3B 2820   1.093   3.582   5.301 -0.1010  0.0027 -0.0234
  189POPC   C4B 2821   1.174   3.487   5.762  0.1522 -0.0565 -0.1525
  190POPC   NC3 2822   7.851   6.391   5.564  0.3397 -0.1243 -0.0736
  190POPC   PO4 2823   7.446   6.142   5.736 -0.3627 -0.0980 -0.0536
  190POPC   GL1 2824   7.597   6.072   6.108 -0.2150  0.0757 -0.5150
  190POPC   GL2 2825   7.884   6.357   6.156 -0.1328 -0.0756 -0.3720
  190POPC   C1A 2826   7.488   5.720   6.345 -0.0495  0.0011 -0.1270
  190POPC   D2A 2827   7.363   5.337   6.558 -0.2665  0.1140  0.2551
  190POPC   C3A 2828   6.970   5.355   6.656 -0.0563  0.0327 -0.0118
  190POPC   C4A 2829   6.669   5.111   6.927  0.0103 -0.0606 -0.2507
  190POPC   C1B 2830   7.803   6.116   6.658  0.2221 -0.0376 -0.0256
  190POPC   C2B 2831   7.765   5.682   6.801  0.0336 -0.0477  0.0436
  190POPC   C3B 2832   7.899   5.286   6.665  0.1299 -0.1275  0.2190
  190POPC   C4B 2833   7.819   5.219   6.233  0.0124 -0.1862 -0.1891
  191POPC   NC3 2834   0.632   8.293   4.940 -0.0401  0.0275  0.1272
  191POPC   PO4 2835   0.861   8.606   5.284 -0.1456 -0.2165  0.0731
  191POPC   GL1 2836   0.744   8.604   5.685 -0.1873 -0.0121  0.0860
  191POPC   GL2 2837   0.752   8.794   5.782 -0.0486 -0.2904 -0.0068
  191POPC   C1A 2838   0.768   8.409   6.115 -0.0103 -0.0151 -0.2200
  191POPC   D2A 2839   0.801   8.458   6.554 -0.2479  0.0111  0.0015
  191POPC   C3A 2840   1.050   8.753   6.823 -0.1103  0.1927  0.4235
  191POPC   C4A 2841   0.993   8.991   7.229 -0.2154 -0.2660  0.2888
  191POPC   C1B 2842   0.982   9.109   5.926  0.1591 -0.0409  0.1719
  191POPC   C2B 2843   1.473   9.167   6.065  0.0573 -0.2758  0.2043
  191POPC   C3B 2844   1.786   9.320   6.318 -0.0221  0.0982 -0.0835
  191POPC   C4B 2845   2.155   9.347   6.440 -0.1797  0.1601  0.3148
  192POPC   NC3 2846   5.077   9.565   5.093 -0.2541 -0.0924  0.4591
  192POPC   PO4 2847   5.574   9.611   5.171 -0.0128 -0.1735 -0.0339
  192POPC   GL1 2848   5.414   9.620   5.480  0.2582  0.3235 -0.2210
  192POPC   GL2 2849   5.323   9.892   5.571 -0.2095  0.3726 -0.0039
  192POPC   C1A 2850   5.444   9.446   5.861 -0.1557  0.0571  0.0044
  192POPC   D2A 2851   5.411   9.486   6.250 -0.1160 -0.0229 -0.0296
  192POPC   C3A 2852   5.207   9.041   6.432 -0.0106 -0.2563 -0.0275
  192POPC   C4A 2853   4.984   9.060   6.732  0.0353 -0.1956 -0.4017
  192POPC   C1B 2854   5.371  10.001   6.061  0.1100 -0.0883 -0.3248
  192POPC   C2B 2855   5.374  10.169   6.508 -0.3096  0.0897 -0.1314
  192POPC   C3B 2856   5.568  10.212   6.909 -0.2251 -0.3801  0.0215
  192POPC   C4B 2857   5.584  10.469   7.297 -0.1674  0.4353  0.1316
  193POPC   NC3 2858   5.158   7.982   4.927  0.0712  0.0457  0.0650
  193POPC   PO4 2859   5.502   7.934   5.145  0.2850 -0.3082  0.0491
  193POPC   GL1 2860   5.425   7.886   5.567  0.2401 -0.0347 -0.0597
  193POPC   GL2 2861   5.532   7.642   5.727 -0.0660  0.0556  0.0986
  193POPC   C1A 2862   5.180   7.934   5.984 -0.1931 -0.1763  0.1358
  193POPC   D2A 2863   5.014   8.003   6.397 -0.1525  0.0077 -0.1385
  193POPC   C3A 2864   4.779   7.783   6.700  0.0408  0.0907  0.1180
  193POPC   C4A 2865   4.952   7.712   7.075  0.2081 -0.2599  0.2466
  193POPC   C1B 2866   5.479   7.508   6.172 -0.0340  0.0087 -0.0430
  193POPC   C2B 2867   5.393   7.122   6.349  0.0082 -0.3761 -0.0834
  193POPC   C3B 2868   5.440   7.028   6.730 -0.1459 -0.1599 -0.1413
  193POPC   C4B 2869   5.251   7.296   7.098 -0.1132 -0.0735  0.0590
  194POPC   NC3 2870   5.929   0.973   4.988 -0.2441  0.3449 -0.2839
  194POPC   PO4 2871   5.707   0.718   5.105  0.0663 -0.3592 -0.0966
  194POPC   GL1 2872   5.634   0.783   5.486  0.0532  0.0320  0.3488
  194POPC   GL2 2873   5.975   0.813   5.527  0.1790 -0.1486  0.1440
  194POPC   C1A 2874   5.482   0.777   5.887  0.1090  0.0662  0.1878
  194POPC   D2A 2875   5.451   0.485   6.262 -0.0171 -0.0191  0.2054
  194POPC   C3A 2876   5.466   0.533   6.783  0.0457  0.0026 -0.2050
  194POPC   C4A 2877   5.399   0.756   7.213  0.0047 -0.3025  0.0865
  194POPC   C1B 2878   6.106   0.863   5.916  0.0739  0.1408 -0.3553
  194POPC   C2B 2879   6.471   0.665   6.023 -0.0595 -0.0839  0.1698
  194POPC   C3B 2880   6.746   0.556   6.273  0.1808 -0.0962  0.2242
  194POPC   C4B 2881   6.964   0.421   6.484  0.2810  0.2767  0.3091
  195POPC   NC3 2882   6.162   3.623   5.245  0.1809 -0.0435 -0.2963
  195POPC   PO4 2883   6.193   3.990   5.101  0.1520  0.0380  0.0783
  195POPC   GL1 2884   6.159   3.988   5.551 -0.2285  0.0028 -0.2685
  195POPC   GL2 2885   5.813   3.992   5.498 -0.1002  0.0582 -0.0105
  195POPC   C1A 2886   6.107   3.934   5.985 -0.3078 -0.1537 -0.2967
  195POPC   D2A 2887   6.461   3.905   6.240  0.0422 -0.4704  0.0787
  195POPC   C3A 2888   6.416   3.838   6.711  0.1035  0.2592  0.0978
  195POPC   C4A 2889   5.969   3.880   6.921  0.4138  0.0195  0.1700
  195POPC   C1B 2890   5.498   4.182   5.735  0.0042 -0.0174 -0.0584
  195POPC   C2B 2891   5.218   4.137   6.084 -0.1402  0.1879  0.1855
  195POPC   C3B 2892   5.152   4.041   6.436 -0.2576 -0.0751  0.0489
  195POPC   C4B 2893   5.056   3.924   6.797 -0.0515  0.2777 -0.0804
  196POPC   NC3 2894   4.216   7.620   5.144  0.0884  0.1942  0.0942
  196POPC   PO4 2895   3.843   7.479   5.053 -0.0998  0.1684  0.1968
  196POPC   GL1 2896   3.562   7.231   5.237  0.0280 -0.0317  0.0484
  196POPC   GL2 2897   3.657   6.901   5.160  0.0563 -0.0007  0.4063
  196POPC   C1A 2898   3.366   7.027   5.612  0.1958  0.0356  0.1736
  196POPC   D2A 2899   3.294   7.163   5.984  0.0644 -0.3366 -0.1652
  196POPC   C3A 2900   3.331   6.793   6.213  0.0002 -0.0029  0.2449
  196POPC   C4A 2901   3.354   6.514   6.558  0.0948 -0.1224 -0.0998
  196POPC   C1B 2902   3.814   6.513   5.241 -0.0516  0.0920  0.0709
  196POPC   C2B 2903   3.799   6.255   5.458 -0.0130  0.1428 -0.2510
  196POPC   C3B 2904   3.375   6.124   5.779  0.1210  0.0519  0.3226
  196POPC   C4B 2905   3.176   6.299   6.132  0.0979 -0.1845 -0.0092
  197POPC   NC3 2906   0.497   9.531   5.176  0.0745  0.1046  0.0435
  197POPC   PO4 2907   0.720  10.024   5.194  0.3304  0.0325 -0.2331
  197POPC   GL1 2908   0.902  10.032   5.537 -0.1807 -0.2546  0.1124
  197POPC   GL2 2909   1.220   9.975   5.565 -0.1742  0.1078 -0.2078
  197POPC   C1A 2910   0.971  10.273   5.856 -0.0890 -0.1149 -0.0073
  197POPC   D2A 2911   1.089  10.296   6.239  0.0400 -0.0352 -0.2411
  197POPC   C3A 2912   0.998  10.445   6.590 -0.0919 -0.2360 -0.3303
  197POPC   C4A 2913   1.218  10.690   6.763  0.1913 -0.3287  0.1011
  197POPC   C1B 2914   1.251   9.862   5.990  0.0717 -0.3007  0.1281
  197POPC   C2B 2915   1.167   9.557   6.157  0.0759 -0.1478  0.3007
  197POPC   C3B 2916   1.019   9.411   6.435  0.0204  0.1440  0.3801
  197POPC   C4B 2917   0.822   9.210   6.735 -0.0036 -0.2285  0.2358
  198POPC   NC3 2918   9.374   2.593   4.481 -0.3366 -0.1821 -0.1556
  198POPC   PO4 2919   9.198   2.273   4.860 -0.0531 -0.0888 -0.0169
  198POPC   GL1 2920   9.090   2.565   5.193 -0.1330  0.2186  0.0533
  198POPC   GL2 2921   8.734   2.493   5.181 -0.1152 -0.1708 -0.1470
  198POPC   C1A 2922   9.429   2.708   5.495 -0.0088 -0.0675 -0.0996
  198POPC   D2A 2923   9.736   2.685   5.778  0.2296  0.2585  0.0039
  198POPC   C3A 2924   9.738   3.012   6.006  0.3175 -0.1006  0.2823
  198POPC   C4A 2925   9.678   3.433   6.148 -0.0584  0.0400  0.1063
  198POPC   C1B 2926   8.723   2.118   5.548  0.0405 -0.1872  0.3596
  198POPC   C2B 2927   8.834   2.061   5.997 -0.1811 -0.1346 -0.0832
  198POPC   C3B 2928   8.645   2.042   6.504 -0.0898  0.1473 -0.0895
  198POPC   C4B 2929   8.751   2.094   7.005 -0.0583 -0.0077  0.2385
  199POPC   NC3 2930   9.267   8.755   5.184  0.2484  0.2899  0.1773
  199POPC   PO4 2931   9.165   9.158   5.441 -0.0071  0.0263 -0.0720
  199POPC   GL1 2932   9.513   9.353   5.785 -0.1061 -0.4190  0.3073
  199POPC   GL2 2933   9.696   9.655   5.653 -0.2192 -0.1251  0.3164
  199POPC   C1A 2934   9.710   9.326   6.269  0.1032  0.0127  0.2453
  199POPC   D2A 2935   9.774   8.962   6.572 -0.1667  0.0655  0.0940
  199POPC   C3A 2936  10.074   8.744   6.311 -0.1373  0.3431 -0.0399
  199POPC   C4A 2937  10.568   8.761   6.421  0.0137  0.4360  0.0365
  199POPC   C1B 2938   9.889   9.735   6.093 -0.1235  0.0063 -0.0565
  199POPC   C2B 2939  10.107   9.578   6.552  0.3845 -0.2190  0.1935
  199POPC   C3B 2940  10.244   9.455   6.968 -0.1424 -0.1532  0.0002
  199POPC   C4B 2941  10.394   9.585   7.336  0.2035 -0.3506 -0.2364
  200POPC   NC3 2942   8.328   4.597   4.933 -0.3388 -0.0835  0.0168
  200POPC   PO4 2943   8.600   4.672   5.295  0.1312  0.0953 -0.1978
  200POPC   GL1 2944   8.380   4.600   5.719  0.1656 -0.0686  0.1355
  200POPC   GL2 2945   8.120   4.754   5.706 -0.1696  0.0325 -0.2789
  200POPC   C1A 2946   8.501   4.620   6.180  0.4820  0.2189 -0.2395
  200POPC   D2A 2947   8.630   4.719   6.633  0.0097 -0.2254  0.3145
  200POPC   C3A 2948   9.004   4.505   6.710 -0.0398 -0.2893  0.0533
  200POPC   C4A 2949   9.157   4.140   6.918  0.1283  0.0934 -0.0801
  200POPC   C1B 2950   8.253   5.035   6.073 -0.0640 -0.1169  0.1111
  200POPC   C2B 2951   8.196   4.904   6.479  0.1186 -0.0492  0.0965
  200POPC   C3B 2952   8.154   4.605   6.736 -0.2226 -0.2714  0.0779
  200POPC   C4B 2953   7.924   4.442   7.024  0.1743  0.1743 -0.0358
  201POPC   NC3 2954   2.293   1.415   4.534 -0.1787 -0.0226 -0.2980
  201POPC   PO4 2955   2.004   1.145   4.689 -0.3127  0.1486  0.1080
  201POPC   GL1 2956   2.112   1.371   5.037  0.2923 -0.0583 -0.0127
  201POPC   GL2 2957   1.782   1.390   5.171  0.2586 -0.1798  0.3818
  201POPC   C1A 2958   2.170   1.413   5.420  0.2928  0.0427  0.0335
  201POPC   D2A 2959   1.860   1.452   5.712  0.1282 -0.0382 -0.0875
  201POPC   C3A 2960   1.844   1.749   5.931 -0.1155  0.0273 -0.2848
  201POPC   C4A 2961   1.982   1.803   6.386 -0.1172 -0.0746 -0.0687
  201POPC   C1B 2962   1.847   1.000   5.361  0.0627  0.0619  0.1187
  201POPC   C2B 2963   2.024   0.983   5.709 -0.0890 -0.0671  0.2178
  201POPC   C3B 2964   2.119   1.083   6.039 -0.0171  0.2124  0.3801
  201POPC   C4B 2965   2.029   1.022   6.440  0.2192  0.2441 -0.0790
  202POPC   NC3 2966   5.109   2.076   4.476  0.1355  0.0583 -0.0371
  202POPC   PO4 2967   5.425   2.353   4.661  0.3331 -0.0662  0.3001
  202POPC   GL1 2968   5.167   2.165   4.967 -0.0818 -0.0616  0.1727
  202POPC   GL2 2969   5.394   2.357   5.298  0.0862  0.1650  0.3347
  202POPC   C1A 2970   4.846   2.238   5.284 -0.3020 -0.0969  0.0656
  202POPC   D2A 2971   4.409   1.984   5.375 -0.1136 -0.0257  0.0332
  202POPC   C3A 2972   4.206   2.137   5.740 -0.1966 -0.2810  0.0707
  202POPC   C4A 2973   4.113   2.320   6.206  0.0378 -0.1746  0.0244
  202POPC   C1B 2974   5.232   2.362   5.720  0.1112 -0.0540 -0.2761
  202POPC   C2B 2975   5.164   2.219   6.077 -0.3680 -0.1034 -0.1448
  202POPC   C3B 2976   5.308   1.945   6.451 -0.1844 -0.1755 -0.4915
  202POPC   C4B 2977   5.121   1.763   6.785 -0.0534  0.0219 -0.0999
  203POPC   NC3 2978  10.168   1.543   4.831  0.2745  0.0648  0.1437
  203POPC   PO4 2979  10.454   1.359   4.819 -0.0825  0.1121 -0.0486
  203POPC   GL1 2980  10.829   1.389   4.995  0.0084  0.1672  0.1567
  203POPC   GL2 2981  11.008   1.704   4.920 -0.0156  0.0177  0.0699
  203POPC   C1A 2982  11.012   1.291   5.306  0.0072  0.2418  0.0752
  203POPC   D2A 2983  11.121   1.454   5.766  0.3864  0.1921  0.0628
  203POPC   C3A 2984  11.481   1.524   6.026  0.0509 -0.0545 -0.1412
  203POPC   C4A 2985  11.715   1.571   6.474  0.2049 -0.1322  0.0418
  203POPC   C1B 2986  11.128   1.823   5.389  0.1244 -0.1731  0.0429
  203POPC   C2B 2987  11.148   2.024   5.778  0.1851  0.2307 -0.4112
  203POPC   C3B 2988  11.257   2.330   6.060 -0.0773  0.0403 -0.2585
  203POPC   C4B 2989  11.347   2.714   6.228  0.0872 -0.3291  0.1057
  204POPC   NC3 2990   5.999   1.746   4.524 -0.1171  0.0218  0.0179
  204POPC   PO4 2991   5.846   1.448   4.903 -0.5294  0.0326 -0.1967
  204POPC   GL1 2992   6.025   1.493   5.309 -0.3920  0.0855  0.3202
  204POPC   GL2 2993   6.037   1.784   5.488  0.1130 -0.0062 -0.2541
  204POPC   C1A 2994   6.176   1.284   5.634  0.0050 -0.2600 -0.1761
  204POPC   D2A 2995   6.312   1.373   6.024  0.2725 -0.0533 -0.0281
  204POPC   C3A 2996   6.244   1.107   6.454 -0.0655  0.3574  0.0018
  204POPC   C4A 2997   6.301   0.667   6.622 -0.0584  0.0130  0.0050
  204POPC   C1B 2998   5.942   1.717   5.890 -0.0010 -0.0268 -0.1063
  204POPC   C2B 2999   5.594   1.698   6.133 -0.0909 -0.0082  0.1332
  204POPC   C3B 3000   5.415   1.473   6.381 -0.1208 -0.2134  0.1209
  204POPC   C4B 3001   4.983   1.360   6.474 -0.2404 -0.0767 -0.4053
  205POPC   NC3 3002   5.137   6.183   4.428  0.0918  0.2428  0.0853
  205POPC   PO4 3003   5.006   5.983   4.824  0.2054  0.3525  0.0064
  205POPC   GL1 3004   5.073   5.631   5.057 -0.0303  0.2633  0.1439
  205POPC   GL2 3005   4.799   5.728   5.321  0.0021  0.2902 -0.2381
  205POPC   C1A 3006   5.231   5.586   5.470  0.0347  0.1094 -0.1701
  205POPC   D2A 3007   5.278   5.926   5.793 -0.0060  0.2661  0.1250
  205POPC   C3A 3008   5.505   5.658   6.057 -0.5410  0.1012 -0.0291
  205POPC   C4A 3009   5.597   5.468   6.488 -0.2326  0.2597 -0.1137
  205POPC   C1B 3010   4.469   5.674   5.565 -0.1107  0.1041 -0.0799
  205POPC   C2B 3011   4.188   5.416   5.891  0.1804 -0.0351  0.0816
  205POPC   C3B 3012   4.100   5.085   6.145 -0.0600  0.0606 -0.1604
  205POPC   C4B 3013   3.579   5.057   6.232  0.0205  0.0375  0.3905
  206POPC   NC3 3014   5.393   3.736   4.429 -0.0185 -0.0219  0.1651
  206POPC   PO4 3015   5.093   3.436   4.346  0.1753  0.3241  0.0315
  206POPC   GL1 3016   4.953   3.599   4.772  0.1693  0.0410 -0.0843
  206POPC   GL2 3017   5.282   3.789   4.898  0.0679 -0.0702  0.0447
  206POPC   C1A 3018   4.703   3.737   5.164  0.0649 -0.1209 -0.2085
  206POPC   D2A 3019   4.625   4.049   5.404  0.0223  0.1752 -0.1049
  206POPC   C3A 3020   4.165   4.128   5.464 -0.1133  0.0472 -0.2895
  206POPC   C4A 3021   3.897   4.297   5.772  0.0766 -0.0448  0.0707
  206POPC   C1B 3022   5.433   3.669   5.446 -0.2861  0.0029  0.1460
  206POPC   C2B 3023   5.397   3.430   5.860 -0.3665  0.0862  0.1533
  206POPC   C3B 3024   5.149   3.199   6.256  0.2323  0.1779  0.0352
  206POPC   C4B 3025   4.964   2.982   6.639 -0.3867  0.2339 -0.0405
  207POPC   NC3 3026   8.740   4.240   5.038 -0.0903  0.2300  0.0887
  207POPC   PO4 3027   8.806   4.699   4.747  0.0155 -0.2095  0.0287
  207POPC   GL1 3028   9.058   4.639   5.124 -0.0335 -0.0036  0.0417
  207POPC   GL2 3029   9.153   4.423   5.398 -0.0665 -0.1603  0.0440
  207POPC   C1A 3030   9.426   4.832   5.269 -0.0208 -0.3137  0.0927
  207POPC   D2A 3031   9.843   4.920   5.598  0.1312 -0.2419  0.0972
  207POPC   C3A 3032  10.236   4.710   5.410  0.0134 -0.0547 -0.0575
  207POPC   C4A 3033  10.443   4.445   5.092  0.1267 -0.0026 -0.2966
  207POPC   C1B 3034   9.336   4.641   5.680 -0.0333  0.0732 -0.1375
  207POPC   C2B 3035   9.454   4.949   5.979 -0.1284  0.2506  0.3931
  207POPC   C3B 3036   9.319   5.315   6.195 -0.2346 -0.3312  0.0262
  207POPC   C4B 3037   9.024   5.448   6.334 -0.1608 -0.3166 -0.1736
  208POPC   NC3 3038   8.276   6.332   5.231  0.1410 -0.3014  0.0692
  208POPC   PO4 3039   8.062   5.988   4.951 -0.0238  0.2317 -0.1396
  208POPC   GL1 3040   8.066   5.969   5.537 -0.0607 -0.2649  0.3366
  208POPC   GL2 3041   7.995   5.820   5.718 -0.2325  0.0455  0.3606
  208POPC   C1A 3042   8.274   6.071   6.014 -0.2785  0.0521 -0.0391
  208POPC   D2A 3043   8.339   6.073   6.511  0.0667 -0.2127  0.0552
  208POPC   C3A 3044   8.669   5.867   6.846  0.0901  0.1125  0.1006
  208POPC   C4A 3045   8.814   5.487   6.777  0.0447  0.1256  0.1796
  208POPC   C1B 3046   7.955   5.668   6.148 -0.1672  0.1638 -0.2086
  208POPC   C2B 3047   8.188   5.630   6.508 -0.0096  0.0975  0.0871
  208POPC   C3B 3048   8.347   5.317   6.897  0.3216 -0.1394  0.2773
  208POPC   C4B 3049   8.288   5.112   7.215 -0.1458 -0.1009  0.0243
  209POPC   NC3 3050   2.934   8.249   4.998 -0.1607  0.1601 -0.0675
  209POPC   PO4 3051   2.616   8.527   5.303 -0.0067  0.1141  0.2577
  209POPC   GL1 3052   2.635   8.229   5.718  0.1605 -0.0821 -0.0458
  209POPC   GL2 3053   2.428   7.930   5.666 -0.1817  0.1340 -0.1366
  209POPC   C1A 3054   2.519   8.204   6.100  0.4174  0.1732  0.0203
  209POPC   D2A 3055   2.650   8.195   6.537  0.0370 -0.2739  0.0216
  209POPC   C3A 3056   2.301   8.210   6.842 -0.2298 -0.1078  0.2021
  209POPC   C4A 3057   2.301   8.106   7.222  0.0926  0.1085  0.4227
  209POPC   C1B 3058   2.426   7.568   5.879 -0.2019  0.0586 -0.0345
  209POPC   C2B 3059   2.386   7.285   6.184  0.5719  0.1282 -0.0198
  209POPC   C3B 3060   2.212   6.988   6.385  0.3270 -0.1940 -0.3175
  209POPC   C4B 3061   2.319   6.552   6.540  0.0355 -0.2248  0.1855
  210POPC   NC3 3062  10.056   7.521   4.948 -0.0409 -0.1816 -0.0187
  210POPC   PO4 3063  10.481   7.800   4.942 -0.0651  0.2686  0.0823
  210POPC   GL1 3064  10.501   7.707   5.268 -0.1792 -0.0160 -0.1942
  210POPC   GL2 3065  10.648   8.073   5.431  0.0327 -0.0102 -0.1079
  210POPC   C1A 3066  10.442   7.542   5.674 -0.2138  0.3530 -0.3723
  210POPC   D2A 3067  10.517   7.319   5.902 -0.2056  0.0975 -0.1290
  210POPC   C3A 3068  10.670   7.474   6.235  0.0938 -0.2325  0.1548
  210POPC   C4A 3069  10.961   7.362   6.600  0.2765 -0.1589  0.1127
  210POPC   C1B 3070  10.709   7.898   5.922 -0.2027 -0.0778 -0.0497
  210POPC   C2B 3071  10.730   7.972   6.391 -0.0872  0.0737  0.1863
  210POPC   C3B 3072  10.907   7.877   6.828  0.0574 -0.1102  0.1404
  210POPC   C4B 3073  10.866   8.039   7.287  0.0633 -0.1668 -0.0799
  211POPC   NC3 3074   7.499   2.081   4.821  0.0905  0.0437 -0.0827
  211POPC   PO4 3075   7.050   1.905   4.715  0.2649  0.0886  0.3220
  211POPC   GL1 3076   7.011   1.899   5.200 -0.0676  0.4211 -0.1931
  211POPC   GL2 3077   6.971   1.608   5.206  0.3291  0.1306 -0.0624
  211POPC   C1A 3078   6.933   2.123   5.616 -0.2385  0.2487  0.1839
  211POPC   D2A 3079   6.766   2.239   5.980 -0.2041  0.0521 -0.0261
  211POPC   C3A 3080   6.792   2.653   6.248  0.6053 -0.1849  0.0145
  211POPC   C4A 3081   6.545   2.571   6.626 -0.0378  0.0109 -0.2075
  211POPC   C1B 3082   6.652   1.358   5.499  0.0040 -0.2343  0.0058
  211POPC   C2B 3083   6.630   1.117   5.774 -0.1060  0.1422  0.0236
  211POPC   C3B 3084   6.720   1.140   6.241  0.2223  0.1288 -0.2396
  211POPC   C4B 3085   6.766   0.943   6.603 -0.1326  0.1725  0.2546
  212POPC   NC3 3086   6.589   4.031   4.819  0.0859 -0.4477  0.0148
  212POPC   PO4 3087   6.631   3.660   5.124  0.1579  0.0558  0.0085
  212POPC   GL1 3088   6.907   3.568   5.410 -0.1538 -0.3372  0.3379
  212POPC   GL2 3089   6.879   3.880   5.641  0.0838 -0.3973  0.0193
  212POPC   C1A 3090   7.251   3.400   5.729  0.1634  0.0024 -0.0038
  212POPC   D2A 3091   7.291   3.494   6.155 -0.0432 -0.0140  0.2008
  212POPC   C3A 3092   7.310   3.161   6.459  0.0217  0.0782 -0.1176
  212POPC   C4A 3093   7.590   2.779   6.586 -0.1267 -0.1296  0.1744
  212POPC   C1B 3094   6.835   3.657   6.001  0.1152  0.0036  0.1120
  212POPC   C2B 3095   6.557   3.460   6.390 -0.0410 -0.0617  0.3434
  212POPC   C3B 3096   6.190   3.351   6.552  0.0563  0.0165 -0.2340
  212POPC   C4B 3097   5.798   3.394   6.665 -0.0266  0.1629  0.2074
  213POPC   NC3 3098   2.963   2.024   3.958  0.0122 -0.0271 -0.0164
  213POPC   PO4 3099   3.145   2.361   3.931 -0.2293  0.0774  0.1517
  213POPC   GL1 3100   3.243   2.505   4.363 -0.0697 -0.1731 -0.1468
  213POPC   GL2 3101   3.090   2.883   4.462  0.0918  0.0875  0.2217
  213POPC   C1A 3102   3.213   2.260   4.778 -0.0819 -0.3777  0.1973
  213POPC   D2A 3103   3.114   1.859   5.003 -0.0718  0.0158 -0.2491
  213POPC   C3A 3104   2.657   1.802   5.069 -0.2114 -0.1014 -0.1837
  213POPC   C4A 3105   2.145   1.856   5.005  0.0171  0.0972  0.0891
  213POPC   C1B 3106   2.770   2.788   4.752  0.0160 -0.1334 -0.1678
  213POPC   C2B 3107   2.667   2.863   5.158 -0.0151 -0.3498 -0.1348
  213POPC   C3B 3108   2.440   2.928   5.466  0.1056 -0.0600 -0.1637
  213POPC   C4B 3109   2.552   2.862   5.960  0.3258  0.1183  0.0894
  214POPC   NC3 3110   6.310   0.569   5.095 -0.2487  0.0173  0.2627
  214POPC   PO4 3111   6.563   0.273   5.218  0.0089 -0.0386 -0.1551
  214POPC   GL1 3112   6.426   0.204   5.641  0.2134 -0.1494 -0.2711
  214POPC   GL2 3113   6.227   0.199   5.807 -0.1296  0.0852 -0.2610
  214POPC   C1A 3114   6.801   0.172   5.950 -0.0325 -0.1392 -0.0422
  214POPC   D2A 3115   6.838  -0.069   6.388  0.0754 -0.0970  0.3556
  214POPC   C3A 3116   7.265  -0.019   6.535  0.1014  0.0481 -0.1807
  214POPC   C4A 3117   7.396   0.007   6.970 -0.3004 -0.1244 -0.0834
  214POPC   C1B 3118   6.339   0.160   6.180 -0.3805  0.1370 -0.3133
  214POPC   C2B 3119   6.410   0.160   6.615  0.4091  0.0734 -0.2305
  214POPC   C3B 3120   6.592   0.423   6.980  0.1995  0.1607  0.1834
  214POPC   C4B 3121   6.442   0.896   7.027 -0.0462  0.0734  0.0382
  215POPC   NC3 3122   4.511   2.955   3.724 -0.2874 -0.1151  0.0905
  215POPC   PO4 3123   4.464   2.681   4.109 -0.1273 -0.0653  0.0556
  215POPC   GL1 3124   4.526   2.864   4.487  0.2184 -0.0947  0.2326
  215POPC   GL2 3125   4.865   3.080   4.688 -0.0520 -0.1325  0.0932
  215POPC   C1A 3126   4.342   2.868   4.809  0.0840 -0.1965  0.0019
  215POPC   D2A 3127   4.095   3.142   5.073 -0.1335 -0.3200  0.4112
  215POPC   C3A 3128   3.590   3.237   4.931 -0.0592  0.2186  0.1124
  215POPC   C4A 3129   3.111   3.124   4.939 -0.0683  0.2101  0.0184
  215POPC   C1B 3130   4.724   3.149   5.000  0.1533  0.2159 -0.1063
  215POPC   C2B 3131   4.584   2.904   5.404 -0.2312  0.2513  0.1002
  215POPC   C3B 3132   4.587   2.606   5.668 -0.3241  0.0340 -0.1681
  215POPC   C4B 3133   4.715   2.140   5.755 -0.0503  0.1363  0.0433
  216POPC   NC3 3134   4.641   1.112   4.723  0.1117  0.0371 -0.0422
  216POPC   PO4 3135   4.832   0.670   4.761  0.0935  0.1526  0.0215
  216POPC   GL1 3136   4.747   0.838   5.181  0.1131  0.1570 -0.2694
  216POPC   GL2 3137   4.497   0.838   5.176 -0.0540  0.2666 -0.0962
  216POPC   C1A 3138   4.578   1.217   5.521  0.1186  0.2210  0.1653
  216POPC   D2A 3139   4.649   1.213   5.919 -0.1524  0.2001 -0.0791
  216POPC   C3A 3140   4.301   1.218   6.049  0.2288 -0.1638 -0.0103
  216POPC   C4A 3141   3.996   1.410   6.222  0.0218 -0.0249  0.0698
  216POPC   C1B 3142   4.506   0.760   5.677  0.2941  0.0985  0.1273
  216POPC   C2B 3143   4.217   0.786   6.079 -0.0109  0.1960 -0.1649
  216POPC   C3B 3144   4.093   0.944   6.426  0.1370  0.1753 -0.1070
  216POPC   C4B 3145   4.081   1.230   6.754 -0.0719  0.0806  0.0149
  217POPC   NC3 3146   7.923   2.823   4.411 -0.1608 -0.2232  0.2517
  217POPC   PO4 3147   8.095   2.680   4.776  0.4361  0.2500  0.1178
  217POPC   GL1 3148   8.220   2.649   5.152 -0.0669  0.1409  0.5746
  217POPC   GL2 3149   8.009   3.003   5.253  0.2238 -0.2356  0.0176
  217POPC   C1A 3150   8.508   2.837   5.477 -0.0193  0.1691 -0.2258
  217POPC   D2A 3151   8.513   2.822   5.900  0.1574  0.1500 -0.1351
  217POPC   C3A 3152   8.834   2.980   6.239  0.1851 -0.1320  0.0010
  217POPC   C4A 3153   8.937   3.071   6.605 -0.1450  0.1935  0.1789
  217POPC   C1B 3154   7.989   2.785   5.595 -0.1648  0.1689  0.2762
  217POPC   C2B 3155   7.915   2.744   5.957 -0.1320  0.4740 -0.0706
  217POPC   C3B 3156   8.047   2.768   6.379  0.0849 -0.0173 -0.1650
  217POPC   C4B 3157   8.477   2.838   6.555 -0.1241  0.2662  0.2354
  218POPC   NC3 3158   3.386   6.669   4.776 -0.0943 -0.2930 -0.1104
  218POPC   PO4 3159   3.153   6.992   4.777 -0.2415 -0.1422  0.3272
  218POPC   GL1 3160   3.109   6.735   5.159  0.2753  0.0614 -0.3248
  218POPC   GL2 3161   2.856   6.894   5.311 -0.0652 -0.2861 -0.2113
  218POPC   C1A 3162   3.336   6.532   5.401  0.1303  0.2196  0.2963
  218POPC   D2A 3163   3.606   6.593   5.752  0.2973 -0.1591  0.3778
  218POPC   C3A 3164   3.828   6.682   6.182 -0.1068  0.0190 -0.4169
  218POPC   C4A 3165   3.790   6.323   6.276 -0.0763 -0.1373 -0.1436
  218POPC   C1B 3166   2.526   6.657   5.514 -0.0660 -0.0566 -0.0757
  218POPC   C2B 3167   2.411   6.430   5.837  0.1803  0.1849 -0.0389
  218POPC   C3B 3168   2.648   6.175   6.061  0.1849  0.1232  0.2010
  218POPC   C4B 3169   2.501   5.942   6.462 -0.0632  0.0286  0.0268
  219POPC   NC3 3170   2.761   1.037   4.499  0.3368  0.2119  0.0737
  219POPC   PO4 3171   2.535   0.896   4.685 -0.0392 -0.1022 -0.2455
  219POPC   GL1 3172   2.536   1.114   4.973 -0.1185  0.1738 -0.4017
  219POPC   GL2 3173   2.458   1.024   5.319  0.1163 -0.2066 -0.2204
  219POPC   C1A 3174   2.842   1.367   5.228 -0.0087 -0.2469 -0.1466
  219POPC   D2A 3175   2.700   1.663   5.597  0.0329 -0.1647 -0.0339
  219POPC   C3A 3176   2.650   2.052   5.716 -0.0318  0.0159 -0.0507
  219POPC   C4A 3177   2.779   2.541   5.677 -0.1980 -0.1202  0.0825
  219POPC   C1B 3178   2.566   1.227   5.674  0.3836 -0.1919 -0.0484
  219POPC   C2B 3179   2.300   1.525   6.020 -0.2532 -0.0655  0.2599
  219POPC   C3B 3180   2.358   1.335   6.414 -0.0451  0.1135  0.2008
  219POPC   C4B 3181   2.568   1.231   6.748 -0.0871  0.2305  0.0386
  220POPC   NC3 3182   5.981   8.530   4.569  0.1058  0.1883 -0.2697
  220POPC   PO4 3183   5.720   8.409   4.890  0.0484  0.2228  0.0721
  220POPC   GL1 3184   5.778   8.312   5.468  0.2462 -0.1216 -0.0025
  220POPC   GL2 3185   5.864   8.044   5.570 -0.2866 -0.2685  0.2254
  220POPC   C1A 3186   5.528   8.319   5.850  0.0402  0.1931 -0.1361
  220POPC   D2A 3187   5.555   8.096   6.254  0.2020  0.2040 -0.4250
  220POPC   C3A 3188   5.548   8.230   6.689 -0.0178 -0.1175  0.0221
  220POPC   C4A 3189   5.552   8.285   7.132 -0.1051 -0.1154 -0.3377
  220POPC   C1B 3190   5.959   7.923   6.006 -0.1378 -0.1705  0.1240
  220POPC   C2B 3191   6.004   7.588   6.356 -0.0192 -0.1154  0.0808
  220POPC   C3B 3192   6.192   7.658   6.782  0.2671  0.0321 -0.1326
  220POPC   C4B 3193   6.334   7.316   7.024 -0.1181  0.3932  0.0682
  221POPC   NC3 3194   8.804   8.815   5.401 -0.0545 -0.5922  0.0007
  221POPC   PO4 3195   8.504   8.542   5.274 -0.1330  0.0526  0.1865
  221POPC   GL1 3196   8.642   8.565   5.769  0.1645 -0.3321  0.2095
  221POPC   GL2 3197   8.977   8.324   5.853 -0.1027  0.0702  0.0814
  221POPC   C1A 3198   8.676   8.755   6.121  0.4386  0.0042 -0.1069
  221POPC   D2A 3199   8.812   8.839   6.489  0.0430 -0.0021 -0.0590
  221POPC   C3A 3200   8.754   8.876   6.823  0.3490  0.0773 -0.1003
  221POPC   C4A 3201   8.611   8.880   7.234  0.0453  0.1052 -0.0626
  221POPC   C1B 3202   9.131   8.499   6.290 -0.1025  0.2442  0.1092
  221POPC   C2B 3203   9.471   8.570   6.604  0.1162  0.2529  0.2631
  221POPC   C3B 3204   9.635   8.675   7.004 -0.0888 -0.1047  0.0494
  221POPC   C4B 3205   9.486   8.948   7.289  0.2384 -0.1282 -0.0901
  222POPC   NC3 3206   7.790   9.861   5.293  0.1676  0.1543 -0.0999
  222POPC   PO4 3207   7.697  10.232   5.554 -0.2678  0.1165 -0.1528
  222POPC   GL1 3208   7.978  10.417   5.920  0.2069 -0.0475  0.1688
  222POPC   GL2 3209   8.217  10.168   5.997 -0.1351  0.1440 -0.2334
  222POPC   C1A 3210   8.134  10.665   6.299  0.0860  0.1173 -0.0949
  222POPC   D2A 3211   8.250  10.840   6.596 -0.0292  0.1684 -0.3990
  222POPC   C3A 3212   8.004  10.800   6.962 -0.1732 -0.0520  0.0452
  222POPC   C4A 3213   7.653  10.579   7.149  0.0301 -0.2029 -0.0180
  222POPC   C1B 3214   7.837  10.152   6.393 -0.0314 -0.0471 -0.0814
  222POPC   C2B 3215   7.789  10.438   6.664  0.4674 -0.0826  0.0356
  222POPC   C3B 3216   7.426  10.694   6.724 -0.0262 -0.2355 -0.2354
  222POPC   C4B 3217   7.271  11.134   6.804 -0.0253  0.2898  0.0882
  223POPC   NC3 3218   8.767   7.272   5.056  0.0285  0.0355 -0.1792
  223POPC   PO4 3219   8.856   7.306   5.526 -0.5942 -0.0781  0.1370
  223POPC   GL1 3220   8.890   7.174   5.965 -0.2852 -0.0841  0.0291
  223POPC   GL2 3221   8.725   6.924   5.979 -0.2091  0.1868  0.0387
  223POPC   C1A 3222   9.238   7.105   6.192 -0.2167  0.1058  0.2744
  223POPC   D2A 3223   9.395   6.726   6.283 -0.1124 -0.0287 -0.0054
  223POPC   C3A 3224   9.611   6.509   6.493 -0.0905  0.4619  0.0889
  223POPC   C4A 3225   9.533   6.180   6.842 -0.2027  0.1141  0.2374
  223POPC   C1B 3226   8.786   6.751   6.390  0.1278  0.3310  0.1228
  223POPC   C2B 3227   8.727   6.531   6.785 -0.2263  0.1071  0.0842
  223POPC   C3B 3228   9.005   6.206   6.992 -0.3629 -0.0195 -0.0367
  223POPC   C4B 3229   9.315   6.198   7.315 -0.1175  0.1866  0.1093
  224POPC   NC3 3230   8.961   7.706   5.264  0.2287 -0.3594 -0.0026
  224POPC   PO4 3231   9.318   7.490   5.427  0.1395 -0.0521  0.0705
  224POPC   GL1 3232   9.341   7.067   5.560 -0.1348  0.0970 -0.0754
  224POPC   GL2 3233   9.561   6.898   5.489  0.1614  0.0921 -0.1092
  224POPC   C1A 3234   9.204   6.702   5.826 -0.1029  0.0273  0.0977
  224POPC   D2A 3235   9.066   6.350   5.984 -0.1085  0.0025 -0.0164
  224POPC   C3A 3236   8.704   6.311   6.102  0.2843  0.2502  0.2153
  224POPC   C4A 3237   8.319   6.518   6.291 -0.0044 -0.2260 -0.1953
  224POPC   C1B 3238   9.725   6.856   5.880  0.2451  0.4200  0.0432
  224POPC   C2B 3239  10.020   6.529   6.024  0.1984  0.0578 -0.1166
  224POPC   C3B 3240  10.044   6.312   6.409 -0.3093 -0.0891  0.1880
  224POPC   C4B 3241   9.969   6.024   6.690 -0.2049 -0.1777  0.0357
  225POPC   NC3 3242   3.931   8.111   5.196  0.0481 -0.1178 -0.2188
  225POPC   PO4 3243   3.794   8.465   4.922 -0.0377 -0.4313 -0.1272
  225POPC   GL1 3244   3.658   8.569   5.440  0.0754 -0.0180 -0.1338
  225POPC   GL2 3245   3.648   8.326   5.597  0.1223 -0.0453  0.2662
  225POPC   C1A 3246   3.492   8.736   5.844  0.0122 -0.0688 -0.2134
  225POPC   D2A 3247   3.165   8.897   5.906 -0.0041 -0.1043 -0.2067
  225POPC   C3A 3248   2.977   9.138   6.268 -0.2149 -0.0349  0.2217
  225POPC   C4A 3249   2.594   9.170   6.464  0.1158 -0.2616  0.1760
  225POPC   C1B 3250   3.871   8.448   5.940 -0.0019 -0.1532  0.0220
  225POPC   C2B 3251   4.268   8.672   6.116 -0.1192 -0.0493  0.2162
  225POPC   C3B 3252   4.738   8.751   6.377 -0.0593  0.1349  0.2364
  225POPC   C4B 3253   4.999   8.541   6.606 -0.1549  0.1714  0.0209
  226POPC   NC3 3254   4.926   7.905   5.386 -0.1436 -0.1054 -0.0513
  226POPC   PO4 3255   4.478   8.046   5.184 -0.0452  0.0643  0.1238
  226POPC   GL1 3256   4.256   8.111   5.632  0.4154  0.0537 -0.0277
  226POPC   GL2 3257   4.373   8.327   5.802 -0.3188 -0.1536 -0.2213
  226POPC   C1A 3258   3.865   7.934   5.944  0.2076 -0.0295  0.0458
  226POPC   D2A 3259   3.564   8.097   6.215 -0.0431 -0.1761  0.0810
  226POPC   C3A 3260   3.416   7.958   6.550  0.1223  0.2512  0.0134
  226POPC   C4A 3261   3.184   7.896   6.944 -0.0444  0.0851  0.1927
  226POPC   C1B 3262   4.579   8.304   6.236  0.0152 -0.3311 -0.1696
  226POPC   C2B 3263   4.602   8.279   6.687 -0.2800 -0.0320 -0.1143
  226POPC   C3B 3264   4.546   8.682   6.955 -0.0256  0.2451  0.3008
  226POPC   C4B 3265   4.517   9.136   6.875 -0.1346 -0.4316  0.3159
  227POPC   NC3 3266   0.208   9.909   5.309 -0.2640  0.0152 -0.1953
  227POPC   PO4 3267  -0.170   9.894   5.279  0.0575 -0.0078 -0.0423
  227POPC   GL1 3268  -0.107  10.088   5.716  0.1195 -0.0015 -0.1911
  227POPC   GL2 3269   0.312  10.084   5.776 -0.0502  0.0811  0.0980
  227POPC   C1A 3270  -0.031  10.221   6.170 -0.2653 -0.1069 -0.0777
  227POPC   D2A 3271  -0.088  10.142   6.587 -0.0495 -0.0397 -0.1379
  227POPC   C3A 3272  -0.500  10.412   6.667 -0.2280 -0.0038 -0.2136
  227POPC   C4A 3273  -0.841  10.624   6.977 -0.1893 -0.1040  0.2676
  227POPC   C1B 3274   0.537  10.275   6.212 -0.2628 -0.2798 -0.2368
  227POPC   C2B 3275   0.573  10.198   6.698 -0.0290  0.1480  0.0993
  227POPC   C3B 3276   0.840  10.161   6.983  0.0452  0.2246 -0.1399
  227POPC   C4B 3277   1.249  10.321   7.035 -0.1339  0.0063 -0.1518
  228POPC   NC3 3278   2.235   0.544   4.579  0.2573  0.4577 -0.1115
  228POPC   PO4 3279   2.531   0.203   4.762  0.0835 -0.0958  0.0441
  228POPC   GL1 3280   2.532   0.542   5.066  0.1700  0.0770 -0.2443
  228POPC   GL2 3281   2.869   0.673   5.133  0.0304 -0.0753 -0.1990
  228POPC   C1A 3282   2.336   0.620   5.552 -0.0506 -0.0174  0.1377
  228POPC   D2A 3283   2.363   0.695   5.979 -0.1146 -0.1079  0.0950
  228POPC   C3A 3284   2.448   0.780   6.359  0.1261  0.1302  0.0180
  228POPC   C4A 3285   2.298   0.596   6.754  0.2143 -0.1810  0.1582
  228POPC   C1B 3286   2.915   0.837   5.515  0.3015  0.0104 -0.0958
  228POPC   C2B 3287   3.063   1.156   5.770 -0.2007  0.2890  0.2156
  228POPC   C3B 3288   3.317   1.402   6.000 -0.0774  0.0100 -0.0666
  228POPC   C4B 3289   3.540   1.613   6.347  0.1183 -0.2537 -0.0280
  229POPC   NC3 3290   8.345   9.467   5.356 -0.0505 -0.3208  0.1675
  229POPC   PO4 3291   7.873   9.440   5.569  0.1872  0.0876 -0.4604
  229POPC   GL1 3292   7.842   9.384   5.970  0.2651 -0.3286  0.0221
  229POPC   GL2 3293   7.573   9.054   6.036 -0.1320 -0.1030  0.1220
  229POPC   C1A 3294   7.849   9.640   6.337 -0.4349  0.0804  0.0783
  229POPC   D2A 3295   8.256   9.873   6.459  0.1036  0.2840 -0.3477
  229POPC   C3A 3296   8.360   9.797   6.851  0.1079  0.2375  0.1209
  229POPC   C4A 3297   8.197   9.722   7.239 -0.1754  0.1286 -0.3261
  229POPC   C1B 3298   7.666   9.225   6.479  0.2036 -0.2034  0.1229
  229POPC   C2B 3299   7.631   9.265   6.926 -0.1008 -0.0406 -0.2262
  229POPC   C3B 3300   7.473   9.494   7.291  0.0453 -0.1412 -0.3289
  229POPC   C4B 3301   7.013   9.459   7.410 -0.0565  0.0105  0.1140
  230POPC   NC3 3302   9.166   5.089   4.680 -0.0362 -0.0677  0.2058
  230POPC   PO4 3303   9.548   5.180   4.582  0.2298  0.0068  0.1386
  230POPC   GL1 3304   9.673   5.062   4.961 -0.1977  0.2170  0.0218
  230POPC   GL2 3305   9.878   5.276   5.171 -0.0231  0.1011  0.1066
  230POPC   C1A 3306   9.965   4.776   5.016 -0.0207 -0.2377  0.2697
  230POPC   D2A 3307   9.982   4.390   4.920 -0.1073  0.0612  0.3620
  230POPC   C3A 3308  10.070   4.104   5.352 -0.0735 -0.2471  0.4288
  230POPC   C4A 3309   9.912   3.719   5.371 -0.0426 -0.0676  0.0725
  230POPC   C1B 3310   9.996   5.684   5.044 -0.0208  0.0246  0.0267
  230POPC   C2B 3311  10.186   5.970   5.303  0.1883  0.2045 -0.1157
  230POPC   C3B 3312  10.715   6.130   5.306  0.1694  0.0976  0.3052
  230POPC   C4B 3313  11.129   6.381   5.071  0.1977  0.1917 -0.0903
  231POPC   NC3 3314   5.816   7.524   5.270  0.0697 -0.2473  0.1360
  231POPC   PO4 3315   5.549   7.108   5.299 -0.1214  0.0440  0.4208
  231POPC   GL1 3316   5.408   7.199   5.607 -0.2267  0.1449 -0.3382
  231POPC   GL2 3317   5.438   6.982   5.847  0.0187 -0.0514 -0.0199
  231POPC   C1A 3318   5.098   7.429   5.895  0.2213 -0.2207  0.3219
  231POPC   D2A 3319   4.966   7.530   6.300  0.1941 -0.1808  0.1939
  231POPC   C3A 3320   5.319   7.549   6.657  0.0607 -0.1397  0.0093
  231POPC   C4A 3321   5.712   7.653   6.752 -0.2950  0.1967 -0.1620
  231POPC   C1B 3322   5.781   7.144   6.025  0.1533  0.0802 -0.1346
  231POPC   C2B 3323   5.887   7.165   6.566 -0.2054  0.0351  0.1200
  231POPC   C3B 3324   5.787   7.270   7.086 -0.2044 -0.0074  0.0409
  231POPC   C4B 3325   5.587   7.307   7.528 -0.1313  0.5189 -0.0925
  232POPC   NC3 3326  10.124   4.220   3.758  0.0469  0.0895 -0.1845
  232POPC   PO4 3327  10.525   4.143   3.913  0.0092 -0.3553 -0.1201
  232POPC   GL1 3328  10.586   3.902   4.289  0.1262  0.1676  0.2667
  232POPC   GL2 3329  10.885   3.666   4.333  0.0412 -0.1094  0.2005
  232POPC   C1A 3330  10.825   4.076   4.693  0.1833 -0.0807 -0.1237
  232POPC   D2A 3331  11.042   4.109   5.005 -0.0707  0.2053 -0.2384
  232POPC   C3A 3332  11.163   4.436   5.270  0.2411  0.0966  0.1099
  232POPC   C4A 3333  11.351   4.561   5.634  0.0012 -0.1571  0.1414
  232POPC   C1B 3334  10.945   3.390   4.711  0.2744  0.0878 -0.2208
  232POPC   C2B 3335  10.600   3.224   5.063 -0.0754  0.1338 -0.0181
  232POPC   C3B 3336  10.296   3.024   5.354  0.0453  0.0108 -0.4015
  232POPC   C4B 3337  10.233   2.878   5.739  0.2686 -0.1634 -0.0920
  233POPC   NC3 3338   5.131   7.200   5.072 -0.0706 -0.1699 -0.0045
  233POPC   PO4 3339   5.258   7.543   5.281 -0.1928  0.2920  0.0956
  233POPC   GL1 3340   4.884   7.375   5.459 -0.4236  0.2106 -0.2414
  233POPC   GL2 3341   4.943   7.002   5.676 -0.1544  0.0979  0.0743
  233POPC   C1A 3342   4.469   7.199   5.755 -0.0074 -0.0159 -0.2346
  233POPC   D2A 3343   4.191   7.480   5.960 -0.1661  0.0411  0.2250
  233POPC   C3A 3344   4.311   7.843   6.153 -0.0968  0.2862 -0.1045
  233POPC   C4A 3345   4.112   8.205   6.351  0.2051 -0.2947 -0.1059
  233POPC   C1B 3346   4.763   6.936   6.079  0.2296 -0.0149 -0.0549
  233POPC   C2B 3347   4.649   6.834   6.470 -0.0283 -0.1232  0.1815
  233POPC   C3B 3348   4.676   7.217   6.845  0.2824  0.1172  0.1700
  233POPC   C4B 3349   4.777   7.253   7.300  0.3847 -0.0724  0.2806
  234POPC   NC3 3350   8.206   8.443   5.633  0.0213  0.1119 -0.0750
  234POPC   PO4 3351   8.110   7.929   5.599 -0.0740  0.0042 -0.2394
  234POPC   GL1 3352   8.238   7.983   6.044 -0.1255  0.1928  0.0278
  234POPC   GL2 3353   8.397   8.278   6.063  0.3553 -0.1046 -0.2363
  234POPC   C1A 3354   8.458   8.035   6.461  0.2974  0.0760  0.1097
  234POPC   D2A 3355   8.384   7.938   6.913 -0.2477 -0.0707 -0.1862
  234POPC   C3A 3356   8.425   8.099   7.255 -0.1872 -0.1807 -0.3904
  234POPC   C4A 3357   8.539   8.373   7.557  0.1293  0.2607  0.1973
  234POPC   C1B 3358   8.907   8.041   6.209 -0.0218 -0.0227 -0.0670
  234POPC   C2B 3359   9.248   8.100   6.548 -0.1032 -0.1293  0.0333
  234POPC   C3B 3360   9.351   8.234   6.981 -0.2815  0.1085 -0.0547
  234POPC   C4B 3361   9.591   8.340   7.375 -0.0845 -0.1105  0.1958
  235POPC   NC3 3362   9.921   8.407   4.498  0.4668 -0.0074  0.0881
  235POPC   PO4 3363   9.773   8.322   4.994 -0.0539  0.0581 -0.0118
  235POPC   GL1 3364   9.968   8.403   5.388 -0.2909 -0.0508  0.3763
  235POPC   GL2 3365  10.287   8.466   5.544 -0.0120  0.2871 -0.1974
  235POPC   C1A 3366   9.935   8.651   5.808  0.0203  0.1252 -0.0819
  235POPC   D2A 3367   9.566   8.659   6.007 -0.1566 -0.0913  0.0825
  235POPC   C3A 3368   9.310   8.980   6.189 -0.0907  0.0165 -0.1209
  235POPC   C4A 3369   8.945   9.308   6.180  0.2049 -0.0829 -0.1529
  235POPC   C1B 3370  10.221   8.124   5.711  0.3677 -0.1934  0.2310
  235POPC   C2B 3371  10.079   7.742   5.936 -0.0719 -0.0154 -0.0616
  235POPC   C3B 3372  10.127   7.445   6.261 -0.1122 -0.1147  0.4347
  235POPC   C4B 3373   9.967   7.357   6.661 -0.3894  0.2331 -0.0151
  236POPC   NC3 3374   6.747   6.987   5.127 -0.1284  0.0654  0.1963
  236POPC   PO4 3375   6.659   7.454   5.327  0.1069 -0.0553 -0.0945
  236POPC   GL1 3376   6.583   7.700   5.648  0.1123 -0.1526  0.2592
  236POPC   GL2 3377   6.530   7.564   5.920  0.0823 -0.0482  0.1012
  236POPC   C1A 3378   6.744   7.961   5.885 -0.0463 -0.1177 -0.0259
  236POPC   D2A 3379   6.822   8.136   6.289  0.0911 -0.2633  0.2535
  236POPC   C3A 3380   6.999   8.002   6.634 -0.0237  0.0584  0.0166
  236POPC   C4A 3381   7.065   7.783   7.019 -0.1953 -0.1072 -0.2635
  236POPC   C1B 3382   6.351   7.253   6.202 -0.0175  0.2644 -0.0703
  236POPC   C2B 3383   6.564   7.126   6.634 -0.2824  0.1757  0.1467
  236POPC   C3B 3384   6.895   7.152   6.894 -0.0213 -0.1021 -0.4231
  236POPC   C4B 3385   7.236   7.367   7.144 -0.1732  0.0910  0.0601
  237POPC   NC3 3386   1.264   2.160   4.296 -0.2864  0.2314  0.1700
  237POPC   PO4 3387   1.573   1.852   4.217 -0.1551  0.0945 -0.3891
  237POPC   GL1 3388   1.823   2.082   4.450 -0.0193 -0.0470 -0.0420
  237POPC   GL2 3389   1.719   2.426   4.309 -0.1663  0.3247  0.2657
  237POPC   C1A 3390   2.103   2.249   4.687 -0.5007 -0.2689  0.0074
  237POPC   D2A 3391   2.314   2.431   5.116  0.3015 -0.0569 -0.0729
  237POPC   C3A 3392   2.759   2.392   5.164  0.1044 -0.3589 -0.0059
  237POPC   C4A 3393   3.069   2.193   5.396 -0.4814  0.0164  0.0178
  237POPC   C1B 3394   1.607   2.410   4.783  0.3265 -0.0159 -0.1993
  237POPC   C2B 3395   1.755   2.232   5.113 -0.2140  0.3176  0.0896
  237POPC   C3B 3396   1.852   2.292   5.481  0.1590  0.0802  0.3740
  237POPC   C4B 3397   2.314   2.481   5.683  0.2329  0.1187 -0.0227
  238POPC   NC3 3398   8.407   1.754   4.738 -0.0031 -0.1747 -0.0571
  238POPC   PO4 3399   8.000   1.842   4.910  0.1805 -0.4829  0.0884
  238POPC   GL1 3400   8.260   1.987   5.325 -0.2130  0.0004  0.0537
  238POPC   GL2 3401   8.375   1.796   5.564 -0.2321  0.0894 -0.1579
  238POPC   C1A 3402   8.294   2.364   5.654 -0.2566 -0.0549 -0.1041
  238POPC   D2A 3403   8.303   2.438   6.092 -0.0307  0.2131 -0.0331
  238POPC   C3A 3404   8.158   2.221   6.428 -0.1920 -0.0845  0.0124
  238POPC   C4A 3405   8.196   2.439   6.777  0.0662  0.0630  0.0238
  238POPC   C1B 3406   8.021   1.505   5.770 -0.0580  0.1757  0.0307
  238POPC   C2B 3407   8.007   1.523   6.221 -0.2861 -0.1864 -0.0245
  238POPC   C3B 3408   7.849   1.864   6.457  0.2572 -0.1707 -0.2342
  238POPC   C4B 3409   7.633   2.306   6.539 -0.3271 -0.1304 -0.1572
  239POPC   NC3 3410   0.690   6.897   4.312  0.2881  0.4097  0.3047
  239POPC   PO4 3411   0.474   6.466   4.339  0.2046 -0.2844 -0.1075
  239POPC   GL1 3412   0.315   6.671   4.650 -0.0213  0.1859  0.1160
  239POPC   GL2 3413   0.297   6.970   4.663  0.0256  0.0504  0.1919
  239POPC   C1A 3414   0.483   6.667   5.107 -0.0765  0.0775 -0.2270
  239POPC   D2A 3415   0.608   6.527   5.565  0.1895  0.0461  0.1159
  239POPC   C3A 3416   0.832   6.044   5.650  0.1162  0.0081  0.2185
  239POPC   C4A 3417   1.022   5.831   5.261 -0.2804  0.0468 -0.4482
  239POPC   C1B 3418   0.315   7.132   5.094  0.0751 -0.0358  0.0712
  239POPC   C2B 3419   0.496   7.109   5.406  0.1032 -0.2354 -0.0659
  239POPC   C3B 3420   0.670   6.975   5.868  0.1089  0.0564  0.2439
  239POPC   C4B 3421   0.541   6.926   6.280  0.1335 -0.4224 -0.1558
  240POPC   NC3 3422   9.773   9.315   5.253 -0.0069  0.2299  0.1465
  240POPC   PO4 3423  10.191   9.403   5.197 -0.3080 -0.0850 -0.2783
  240POPC   GL1 3424  10.092   9.411   5.629 -0.2309 -0.0165  0.0987
  240POPC   GL2 3425  10.454   9.617   5.759 -0.0160  0.0093 -0.0012
  240POPC   C1A 3426  10.091   9.214   5.917 -0.2227 -0.0203  0.2141
  240POPC   D2A 3427  10.308   9.255   6.219 -0.2833  0.2535  0.1756
  240POPC   C3A 3428  10.245   9.101   6.630  0.1640 -0.0873 -0.0443
  240POPC   C4A 3429  10.180   8.723   6.873  0.3683 -0.1573  0.2780
  240POPC   C1B 3430  10.463   9.808   6.216 -0.0569  0.1256 -0.0502
  240POPC   C2B 3431  10.609   9.488   6.581 -0.1528  0.0027 -0.5713
  240POPC   C3B 3432  10.865   9.682   6.887 -0.1843 -0.2309 -0.0717
  240POPC   C4B 3433  11.202   9.542   7.125 -0.1255 -0.0022 -0.1268
  241POPC   NC3 3434   7.776   8.861   5.545 -0.2100  0.1969  0.0394
  241POPC   PO4 3435   8.291   8.914   5.500  0.4491 -0.0193  0.0491
  241POPC   GL1 3436   8.286   8.970   5.870 -0.1577  0.1687 -0.1428
  241POPC   GL2 3437   8.170   8.737   6.073  0.2378  0.1057  0.4505
  241POPC   C1A 3438   8.074   9.081   6.354 -0.0829 -0.2402  0.1448
  241POPC   D2A 3439   8.062   9.391   6.720  0.1776  0.0333 -0.1507
  241POPC   C3A 3440   8.196   9.160   7.068 -0.3954  0.2072  0.2030
  241POPC   C4A 3441   8.415   9.251   7.472  0.1999  0.2675  0.2009
  241POPC   C1B 3442   8.362   8.635   6.481 -0.1442 -0.4313 -0.0682
  241POPC   C2B 3443   8.288   8.647   6.898  0.1269 -0.2219  0.1485
  241POPC   C3B 3444   8.235   8.609   7.254 -0.0154  0.3258  0.0642
  241POPC   C4B 3445   8.400   8.817   7.696 -0.1013  0.4871 -0.0823
  242POPC   NC3 3446   5.569   8.780   5.256  0.0597 -0.0284 -0.1996
  242POPC   PO4 3447   5.802   8.901   5.640  0.2956  0.0684 -0.0007
  242POPC   GL1 3448   5.823   9.060   6.032 -0.0837  0.0716 -0.0028
  242POPC   GL2 3449   6.113   9.303   5.906  0.0924  0.0586 -0.2968
  242POPC   C1A 3450   5.707   9.237   6.509  0.4658  0.0011 -0.1319
  242POPC   D2A 3451   5.568   9.217   6.893  0.1823 -0.1525  0.1840
  242POPC   C3A 3452   5.193   9.178   7.182 -0.0189 -0.1705  0.0381
  242POPC   C4A 3453   4.843   9.334   7.269  0.0500  0.1029 -0.0510
  242POPC   C1B 3454   6.321   9.409   6.174 -0.2065  0.0954 -0.0901
  242POPC   C2B 3455   6.233   9.360   6.573 -0.0932 -0.0526 -0.0584
  242POPC   C3B 3456   6.028   9.226   6.946 -0.1971  0.0102  0.0390
  242POPC   C4B 3457   5.827   9.009   7.271  0.0406  0.0158 -0.0629
  243POPC   NC3 3458   4.008   3.876   3.835 -0.2283 -0.0177  0.2652
  243POPC   PO4 3459   4.229   3.526   3.751 -0.0645 -0.0919  0.1845
  243POPC   GL1 3460   4.219   3.480   4.263 -0.1762 -0.0506  0.2698
  243POPC   GL2 3461   4.506   3.416   4.469  0.2288 -0.2032 -0.3223
  243POPC   C1A 3462   4.018   3.161   4.506 -0.2427 -0.0733 -0.0252
  243POPC   D2A 3463   3.881   2.874   4.744  0.2586  0.1330 -0.0318
  243POPC   C3A 3464   3.427   2.780   4.829 -0.0668  0.1759  0.1241
  243POPC   C4A 3465   3.141   2.677   5.122 -0.1795  0.1916 -0.1678
  243POPC   C1B 3466   4.295   3.575   4.826  0.3505  0.0284  0.0162
  243POPC   C2B 3467   4.272   3.900   5.037 -0.1813 -0.0185 -0.0524
  243POPC   C3B 3468   4.356   4.285   4.962 -0.1481 -0.4700 -0.1158
  243POPC   C4B 3469   4.597   4.418   4.666  0.1880 -0.0813 -0.3273
  244POPC   NC3 3470   1.987   8.688   4.831 -0.2536  0.1362 -0.4696
  244POPC   PO4 3471   2.002   8.398   5.100  0.1138 -0.0820 -0.1954
  244POPC   GL1 3472   2.105   8.392   5.431  0.4689 -0.3827 -0.0074
  244POPC   GL2 3473   1.955   8.222   5.559  0.0895  0.3495  0.0044
  244POPC   C1A 3474   2.111   8.534   5.871  0.1887  0.0839  0.2193
  244POPC   D2A 3475   2.126   8.472   6.410 -0.0898  0.4605 -0.0893
  244POPC   C3A 3476   2.454   8.732   6.539  0.1951  0.0355  0.1839
  244POPC   C4A 3477   2.369   9.053   6.943  0.0684  0.0675  0.3011
  244POPC   C1B 3478   2.048   8.034   5.963 -0.0910  0.1222  0.2641
  244POPC   C2B 3479   2.237   7.824   6.368  0.1461 -0.2035 -0.1702
  244POPC   C3B 3480   2.642   7.770   6.329  0.1969 -0.0211 -0.1876
  244POPC   C4B 3481   3.006   7.735   6.504 -0.1076  0.2348  0.0567
  245POPC   NC3 3482   5.753  10.072   5.299 -0.0634 -0.0431  0.0471
  245POPC   PO4 3483   5.602  10.451   5.061  0.1474 -0.0137 -0.0925
  245POPC   GL1 3484   5.501  10.504   5.430 -0.1622 -0.0254  0.0390
  245POPC   GL2 3485   5.229  10.334   5.380  0.0087  0.0776 -0.0853
  245POPC   C1A 3486   5.685  10.541   5.776  0.0640  0.1116  0.1255
  245POPC   D2A 3487   5.963  10.688   6.200  0.3654 -0.3220 -0.1373
  245POPC   C3A 3488   5.817  10.997   6.419  0.2629 -0.1939  0.3360
  245POPC   C4A 3489   5.880  11.063   6.751 -0.3947 -0.2440 -0.0440
  245POPC   C1B 3490   5.167  10.455   5.805 -0.1836  0.0529 -0.1614
  245POPC   C2B 3491   5.031  10.385   6.235  0.0887 -0.2094  0.2732
  245POPC   C3B 3492   4.947  10.568   6.577 -0.1959 -0.1253 -0.3807
  245POPC   C4B 3493   5.003  10.943   6.724 -0.3122 -0.0081  0.2557
  246POPC   NC3 3494   3.358   5.181   3.883 -0.0599  0.0770  0.2308
  246POPC   PO4 3495   3.729   5.379   4.141 -0.1209  0.1472 -0.1269
  246POPC   GL1 3496   3.332   5.500   4.404 -0.0078 -0.1269  0.0497
  246POPC   GL2 3497   3.351   5.853   4.630 -0.4703 -0.0458 -0.1877
  246POPC   C1A 3498   3.011   5.291   4.711 -0.1280 -0.3575 -0.2672
  246POPC   D2A 3499   2.585   5.354   4.834  0.0407  0.2958 -0.0556
  246POPC   C3A 3500   2.293   5.222   4.579 -0.1722 -0.1032 -0.3568
  246POPC   C4A 3501   2.090   4.891   4.726  0.2757  0.0954 -0.1527
  246POPC   C1B 3502   3.340   5.678   5.002 -0.1576  0.2029  0.0893
  246POPC   C2B 3503   3.447   5.413   5.401 -0.0782 -0.0682  0.0055
  246POPC   C3B 3504   3.830   5.190   5.687  0.1218 -0.1452 -0.1651
  246POPC   C4B 3505   4.053   4.805   5.743 -0.2330  0.0332  0.0529
  247POPC   NC3 3506   3.659   3.059   3.708 -0.2324  0.3451 -0.0152
  247POPC   PO4 3507   3.309   3.364   3.641  0.0629 -0.3089  0.2357
  247POPC   GL1 3508   3.159   3.386   4.019  0.2891 -0.1063 -0.0102
  247POPC   GL2 3509   2.896   3.534   4.056 -0.1157 -0.0184 -0.1010
  247POPC   C1A 3510   3.223   3.442   4.465 -0.0031  0.0562 -0.2815
  247POPC   D2A 3511   3.124   3.832   4.711 -0.3079  0.3263 -0.1886
  247POPC   C3A 3512   3.089   3.651   5.035  0.3049 -0.4193 -0.1010
  247POPC   C4A 3513   3.315   3.691   5.351  0.0779  0.5250  0.0065
  247POPC   C1B 3514   2.773   3.630   4.451  0.0908  0.2303 -0.1068
  247POPC   C2B 3515   2.708   3.395   4.860 -0.0616  0.1206 -0.2727
  247POPC   C3B 3516   2.429   3.336   5.171 -0.3047  0.2118  0.2494
  247POPC   C4B 3517   1.975   3.311   5.147  0.1111  0.1607  0.3221
  248POPC   NC3 3518   8.349   7.104   5.570 -0.0885 -0.2686  0.0495
  248POPC   PO4 3519   8.261   6.694   5.602  0.2739  0.1676 -0.1443
  248POPC   GL1 3520   8.079   6.835   5.979 -0.1139  0.0323  0.0437
  248POPC   GL2 3521   7.894   7.129   5.927 -0.2311 -0.0578  0.0214
  248POPC   C1A 3522   7.835   6.794   6.266  0.1695  0.1696 -0.1779
  248POPC   D2A 3523   7.810   6.650   6.661  0.4923  0.1200 -0.1889
  248POPC   C3A 3524   8.246   6.690   6.762 -0.2060  0.1109 -0.0105
  248POPC   C4A 3525   8.533   6.989   6.827 -0.1148  0.2102 -0.0202
  248POPC   C1B 3526   8.218   7.093   6.333 -0.1822 -0.1180 -0.0932
  248POPC   C2B 3527   8.563   7.284   6.364  0.1481  0.2144  0.2292
  248POPC   C3B 3528   8.974   7.118   6.657 -0.3176  0.1012 -0.1914
  248POPC   C4B 3529   9.457   7.020   6.717 -0.0532 -0.4192 -0.2137
  249POPC   NC3 3530   2.566  10.009   5.047  0.3185 -0.2125  0.0172
  249POPC   PO4 3531   2.777   9.635   5.153 -0.1944 -0.1212 -0.0154
  249POPC   GL1 3532   2.464   9.721   5.528 -0.3950 -0.0179 -0.2821
  249POPC   GL2 3533   2.598   9.427   5.600  0.0105 -0.3423 -0.2941
  249POPC   C1A 3534   2.204   9.840   5.921  0.0628 -0.2332  0.3887
  249POPC   D2A 3535   1.992   9.867   6.368 -0.3954 -0.2716  0.5675
  249POPC   C3A 3536   2.141   9.900   6.782 -0.2880 -0.0029 -0.1709
  249POPC   C4A 3537   2.227   9.496   7.014 -0.0535 -0.1889  0.0221
  249POPC   C1B 3538   2.469   9.484   6.069 -0.2079 -0.0248  0.3986
  249POPC   C2B 3539   2.451   9.818   6.361 -0.1768 -0.0562 -0.0341
  249POPC   C3B 3540   2.602   9.979   6.749  0.0369  0.2099 -0.1596
  249POPC   C4B 3541   2.623   9.821   7.132 -0.0930 -0.0258  0.1257
  250POPC   NC3 3542   5.848   3.176   4.784 -0.1654  0.0930 -0.0038
  250POPC   PO4 3543   5.478   3.316   4.774  0.0164  0.1546  0.0180
  250POPC   GL1 3544   5.268   3.284   5.071  0.3904  0.1774 -0.3889
  250POPC   GL2 3545   5.472   2.979   5.191  0.1496 -0.3269 -0.1055
  250POPC   C1A 3546   4.895   3.326   5.389  0.0325  0.2116  0.1763
  250POPC   D2A 3547   4.731   3.341   5.774 -0.1573  0.1177  0.0981
  250POPC   C3A 3548   4.998   3.613   6.140  0.0033 -0.0052  0.0222
  250POPC   C4A 3549   4.716   3.834   6.377 -0.0402  0.2278 -0.0271
  250POPC   C1B 3550   5.587   2.711   5.520  0.3198 -0.0720  0.2240
  250POPC   C2B 3551   5.531   2.753   5.863 -0.5646 -0.0004  0.1419
  250POPC   C3B 3552   5.317   2.687   6.215 -0.3722 -0.2783 -0.2748
  250POPC   C4B 3553   5.167   2.507   6.564 -0.0909  0.0479  0.1956
  251POPC   NC3 3554   2.296   9.362   5.238  0.2306 -0.0211  0.1066
  251POPC   PO4 3555   1.853   9.157   5.092 -0.1916  0.1676 -0.1008
  251POPC   GL1 3556   1.806   8.926   5.481  0.1007  0.0149  0.1190
  251POPC   GL2 3557   1.893   8.971   5.681  0.0887  0.1240  0.1208
  251POPC   C1A 3558   1.411   8.859   5.571  0.2361 -0.3158 -0.2203
  251POPC   D2A 3559   1.166   8.659   5.904 -0.0538  0.1971  0.0064
  251POPC   C3A 3560   1.219   8.389   6.284 -0.1390 -0.1082 -0.0868
  251POPC   C4A 3561   1.323   8.253   6.676 -0.1724  0.2721  0.1634
  251POPC   C1B 3562   2.314   9.016   5.788 -0.0393  0.2584  0.0388
  251POPC   C2B 3563   2.619   8.784   6.016 -0.1222 -0.0567  0.0591
  251POPC   C3B 3564   2.911   8.625   6.293  0.3268 -0.0778 -0.2291
  251POPC   C4B 3565   3.386   8.752   6.299 -0.1160  0.1558 -0.0461
  252POPC   NC3 3566   3.077   6.184   4.068 -0.2926 -0.1521  0.1480
  252POPC   PO4 3567   2.669   6.460   4.231  0.1696  0.2600 -0.0752
  252POPC   GL1 3568   2.493   6.215   4.531 -0.0116  0.1718 -0.2047
  252POPC   GL2 3569   2.095   6.103   4.585 -0.0924  0.4904 -0.0607
  252POPC   C1A 3570   2.455   6.091   4.943 -0.4116  0.0382  0.0367
  252POPC   D2A 3571   2.425   6.120   5.396  0.0819 -0.2245 -0.0848
  252POPC   C3A 3572   2.610   5.782   5.730 -0.3594 -0.0269 -0.0571
  252POPC   C4A 3573   2.734   5.632   6.066  0.0320  0.1029  0.2369
  252POPC   C1B 3574   1.931   6.159   4.938  0.1154 -0.3326  0.0565
  252POPC   C2B 3575   2.040   5.802   5.260 -0.2454  0.3377  0.0782
  252POPC   C3B 3576   2.065   5.570   5.626  0.3268  0.2717  0.1217
  252POPC   C4B 3577   2.008   5.752   5.906  0.0190 -0.0865 -0.0358
  253POPC   NC3 3578   3.358   0.221   4.809  0.1305  0.0093  0.1238
  253POPC   PO4 3579   3.693   0.249   5.083 -0.1449 -0.1070 -0.1038
  253POPC   GL1 3580   3.712   0.254   5.451 -0.1056 -0.0200 -0.1040
  253POPC   GL2 3581   3.769   0.529   5.615 -0.0101 -0.1007 -0.1055
  253POPC   C1A 3582   3.484   0.147   5.871 -0.4093 -0.1124 -0.4634
  253POPC   D2A 3583   3.196   0.221   6.079 -0.0454 -0.3544 -0.2467
  253POPC   C3A 3584   3.170   0.066   6.449 -0.1317  0.1408 -0.2084
  253POPC   C4A 3585   3.549   0.095   6.789  0.1103 -0.0871 -0.1438
  253POPC   C1B 3586   3.785   0.587   6.096  0.0430 -0.0079 -0.0965
  253POPC   C2B 3587   3.815   0.481   6.622  0.0560  0.0396 -0.0994
  253POPC   C3B 3588   4.047   0.222   6.750 -0.0261  0.1485 -0.1109
  253POPC   C4B 3589   4.404  -0.000   6.931  0.0630  0.0666 -0.1132
  254POPC   NC3 3590   1.102   8.708   4.864 -0.0381 -0.0928 -0.1747
  254POPC   PO4 3591   1.061   8.313   4.619  0.0375  0.1549  0.1576
  254POPC   GL1 3592   1.172   8.094   4.967  0.2211  0.5204 -0.0769
  254POPC   GL2 3593   1.546   8.052   5.025  0.1405  0.3451 -0.2336
  254POPC   C1A 3594   1.001   7.893   5.349 -0.0355 -0.0279  0.0369
  254POPC   D2A 3595   1.034   8.149   5.834  0.0880 -0.0925 -0.0603
  254POPC   C3A 3596   0.952   7.931   6.238 -0.1952  0.0254  0.1436
  254POPC   C4A 3597   1.179   7.845   6.509  0.2919  0.3553  0.1149
  254POPC   C1B 3598   1.462   8.167   5.428 -0.1955  0.0751  0.1352
  254POPC   C2B 3599   1.549   8.356   5.781 -0.1242  0.1362  0.4529
  254POPC   C3B 3600   1.681   8.651   6.058  0.1423 -0.2708 -0.2590
  254POPC   C4B 3601   2.057   8.895   6.221  0.1155 -0.0889  0.0334
  255POPC   NC3 3602   9.943   0.266   5.287 -0.0183  0.0013  0.0150
  255POPC   PO4 3603  10.439   0.195   5.362  0.2266 -0.2022 -0.2715
  255POPC   GL1 3604  10.418   0.412   5.713  0.0264 -0.0334  0.2576
  255POPC   GL2 3605  10.160   0.587   5.643  0.0155 -0.0333  0.1256
  255POPC   C1A 3606  10.462   0.494   6.179  0.0094 -0.3365  0.0383
  255POPC   D2A 3607  10.547   0.472   6.537  0.1642 -0.0418  0.0101
  255POPC   C3A 3608  10.503   0.325   6.960  0.1684  0.2114  0.0634
  255POPC   C4A 3609  10.660   0.106   7.260  0.2223 -0.1209 -0.2361
  255POPC   C1B 3610  10.218   0.900   5.891 -0.4387 -0.0012 -0.0201
  255POPC   C2B 3611  10.155   1.230   6.057  0.1993 -0.1216 -0.1258
  255POPC   C3B 3612  10.156   1.476   6.451 -0.2882 -0.2194 -0.0872
  255POPC   C4B 3613   9.856   1.596   6.814 -0.1979  0.0975  0.0200
  256POPC   NC3 3614   5.115   4.632   4.414 -0.0131 -0.1066  0.0333
  256POPC   PO4 3615   5.406   4.407   4.476  0.2533 -0.0461 -0.2638
  256POPC   GL1 3616   5.228   4.299   4.884  0.1068 -0.0491 -0.1701
  256POPC   GL2 3617   5.479   4.211   5.127 -0.1328 -0.0337  0.0901
  256POPC   C1A 3618   4.905   4.119   4.898  0.0996 -0.2523 -0.0601
  256POPC   D2A 3619   4.627   3.923   4.639  0.0378  0.2213  0.0253
  256POPC   C3A 3620   4.156   4.023   4.555  0.1514 -0.3543  0.2377
  256POPC   C4A 3621   3.770   4.171   4.745 -0.1395  0.2841 -0.2204
  256POPC   C1B 3622   5.155   4.103   5.414  0.1218  0.1034  0.3697
  256POPC   C2B 3623   4.991   3.776   5.679  0.0995  0.2607 -0.0731
  256POPC   C3B 3624   4.648   3.891   5.882  0.2557  0.1758 -0.0365
  256POPC   C4B 3625   4.298   4.010   6.203 -0.3791 -0.0344 -0.1611
  257POPC   NC3 3626   2.276   3.270   3.661 -0.0835  0.0636 -0.5027
  257POPC   PO4 3627   1.946   2.998   3.795 -0.0004 -0.1380  0.0935
  257POPC   GL1 3628   1.840   2.954   4.182  0.0307  0.1078 -0.3017
  257POPC   GL2 3629   1.590   3.248   4.195 -0.1563  0.0916  0.0161
  257POPC   C1A 3630   1.604   2.893   4.530  0.1951 -0.5432  0.0729
  257POPC   D2A 3631   1.454   2.867   4.968  0.1232 -0.0822 -0.1693
  257POPC   C3A 3632   1.453   2.618   5.351 -0.1824  0.1710  0.1197
  257POPC   C4A 3633   1.473   2.481   5.756 -0.0336 -0.0754 -0.0805
  257POPC   C1B 3634   1.452   3.463   4.637 -0.0459  0.2740  0.1345
  257POPC   C2B 3635   1.510   3.369   5.067  0.2614 -0.0661 -0.2269
  257POPC   C3B 3636   1.647   3.457   5.525 -0.1609 -0.1608  0.1081
  257POPC   C4B 3637   1.688   3.504   5.912 -0.2949 -0.1339  0.4748
  258POPC   NC3 3638   5.736   4.667   4.834  0.2577  0.1438  0.0883
  258POPC   PO4 3639   5.986   4.930   5.247  0.0481  0.1879 -0.1967
  258POPC   GL1 3640   5.979   4.951   5.640 -0.0484  0.2987 -0.0175
  258POPC   GL2 3641   5.892   5.275   5.702  0.4168 -0.0615 -0.0938
  258POPC   C1A 3642   5.823   4.559   5.902 -0.2542  0.2235 -0.0870
  258POPC   D2A 3643   5.673   4.545   6.259 -0.1345  0.1735 -0.0966
  258POPC   C3A 3644   5.725   4.084   6.259  0.2855  0.2449 -0.1142
  258POPC   C4A 3645   5.966   3.777   6.442 -0.1566 -0.0218  0.0716
  258POPC   C1B 3646   5.674   5.002   6.072 -0.3138  0.3162  0.0393
  258POPC   C2B 3647   5.603   4.932   6.487  0.0564 -0.1633 -0.2444
  258POPC   C3B 3648   5.252   5.114   6.676 -0.0719  0.1615 -0.2334
  258POPC   C4B 3649   4.830   5.247   6.501 -0.1237 -0.1967  0.1074
  259POPC   NC3 3650   9.608   0.883   4.720 -0.0940 -0.0453 -0.1415
  259POPC   PO4 3651   9.727   1.314   4.857 -0.1268  0.1277  0.1927
  259POPC   GL1 3652  10.005   1.261   5.184 -0.1124  0.0850 -0.0976
  259POPC   GL2 3653  10.320   1.047   5.348 -0.4432  0.1172 -0.0410
  259POPC   C1A 3654  10.185   1.496   5.595 -0.2143  0.0769 -0.0714
  259POPC   D2A 3655  10.239   1.758   5.951  0.1747 -0.1098 -0.0564
  259POPC   C3A 3656  10.078   2.018   6.312 -0.0865  0.2607  0.0476
  259POPC   C4A 3657   9.612   1.949   6.464  0.0365  0.0551 -0.1911
  259POPC   C1B 3658  10.582   1.268   5.613  0.0857 -0.2118 -0.1168
  259POPC   C2B 3659  10.676   1.466   5.968  0.2526  0.5555  0.2964
  259POPC   C3B 3660  10.613   1.330   6.476  0.1768  0.1108  0.1347
  259POPC   C4B 3661  10.454   1.376   6.836  0.0736  0.0292  0.0236
  260POPC   NC3 3662   9.517   1.955   5.009 -0.3579  0.0258  0.1031
  260POPC   PO4 3663   9.429   1.573   5.199  0.2058 -0.1318 -0.1809
  260POPC   GL1 3664   9.715   1.658   5.513  0.4914 -0.4326 -0.0966
  260POPC   GL2 3665   9.926   1.798   5.322 -0.0598 -0.1463  0.0669
  260POPC   C1A 3666   9.766   2.050   5.918 -0.0029 -0.2509  0.0678
  260POPC   D2A 3667   9.747   2.433   6.161  0.0082  0.0264 -0.0429
  260POPC   C3A 3668  10.112   2.723   6.214 -0.0345 -0.2819  0.1628
  260POPC   C4A 3669  10.325   3.011   6.289 -0.0910 -0.1573 -0.1128
  260POPC   C1B 3670  10.142   2.040   5.546 -0.1761 -0.2140  0.1799
  260POPC   C2B 3671  10.190   2.306   5.936  0.0374  0.0644 -0.0477
  260POPC   C3B 3672  10.432   2.327   6.312 -0.0830  0.0643 -0.0952
  260POPC   C4B 3673  10.912   2.229   6.399  0.1616 -0.1665 -0.2524
  261POPC   NC3 3674   8.477   3.088   4.318  0.1805  0.2106 -0.1298
  261POPC   PO4 3675   8.258   3.113   4.881 -0.2119  0.0995  0.4003
  261POPC   GL1 3676   8.464   3.188   5.170 -0.2037  0.2252  0.0842
  261POPC   GL2 3677   8.330   3.362   5.422 -0.0453  0.1914  0.1991
  261POPC   C1A 3678   8.861   3.400   5.360  0.0428 -0.0706  0.2131
  261POPC   D2A 3679   9.253   3.361   5.417 -0.2034 -0.1985  0.1360
  261POPC   C3A 3680   9.443   3.710   5.585  0.0984  0.0002  0.0628
  261POPC   C4A 3681   9.825   3.939   5.818  0.0840 -0.0525  0.3721
  261POPC   C1B 3682   8.235   3.270   5.805  0.1700 -0.0879 -0.0137
  261POPC   C2B 3683   8.286   3.395   6.264  0.0423 -0.3528 -0.0829
  261POPC   C3B 3684   8.438   3.444   6.657 -0.0533 -0.0174 -0.2065
  261POPC   C4B 3685   8.262   3.558   7.061  0.2831 -0.2664 -0.2215
  262POPC   NC3 3686   1.603   4.244   3.872  0.2757  0.1798  0.6102
  262POPC   PO4 3687   2.011   4.500   3.693  0.1604 -0.0743  0.2945
  262POPC   GL1 3688   1.714   4.772   3.970 -0.1247  0.2281  0.1602
  262POPC   GL2 3689   2.026   4.771   4.167  0.1470  0.2852  0.0802
  262POPC   C1A 3690   1.559   4.691   4.404  0.0138  0.0360 -0.2347
  262POPC   D2A 3691   1.731   4.532   4.772 -0.1517  0.1283  0.4999
  262POPC   C3A 3692   1.919   4.139   4.793 -0.0007  0.1288  0.3562
  262POPC   C4A 3693   2.099   3.735   4.920  0.0092 -0.0820  0.0097
  262POPC   C1B 3694   2.280   4.467   4.364  0.3321  0.0152  0.0111
  262POPC   C2B 3695   2.314   4.379   4.781 -0.0881 -0.3119 -0.0089
  262POPC   C3B 3696   2.231   4.127   5.208 -0.2203 -0.0913  0.1969
  262POPC   C4B 3697   2.062   3.788   5.464 -0.2234 -0.1150  0.2517
  263POPC   NC3 3698   3.913   1.365   4.024 -0.4140 -0.0973  0.3597
  263POPC   PO4 3699   3.911   1.808   4.291  0.1165 -0.2540  0.3048
  263POPC   GL1 3700   3.671   1.963   4.658  0.2357 -0.0964  0.2624
  263POPC   GL2 3701   3.680   2.379   4.675  0.1885  0.0812  0.0113
  263POPC   C1A 3702   3.579   2.081   5.108 -0.2773 -0.3283 -0.2178
  263POPC   D2A 3703   3.745   2.104   5.525 -0.1206  0.3778 -0.1152
  263POPC   C3A 3704   3.738   2.372   5.849  0.3279  0.1522  0.1237
  263POPC   C4A 3705   3.884   2.738   6.026 -0.0053  0.1313  0.1600
  263POPC   C1B 3706   3.765   2.563   5.112  0.1124 -0.0137 -0.3041
  263POPC   C2B 3707   3.673   2.961   5.370 -0.1939 -0.3433  0.2774
  263POPC   C3B 3708   3.299   3.126   5.511  0.2158  0.0789 -0.0103
  263POPC   C4B 3709   2.854   3.316   5.521  0.0363 -0.0937  0.2557
  264POPC   NC3 3710   9.048   1.658   4.984  0.5346  0.1509  0.3414
  264POPC   PO4 3711   8.696   1.376   4.881  0.1450 -0.2308 -0.2113
  264POPC   GL1 3712   8.683   1.369   5.378 -0.4225 -0.0587  0.3252
  264POPC   GL2 3713   8.813   1.119   5.307 -0.0237 -0.0610  0.1432
  264POPC   C1A 3714   8.922   1.697   5.658  0.0264 -0.3378  0.1618
  264POPC   D2A 3715   9.282   1.884   5.857  0.2812 -0.0123 -0.1382
  264POPC   C3A 3716   9.559   1.572   6.070  0.4825 -0.1155 -0.1682
  264POPC   C4A 3717   9.658   1.062   6.189 -0.5716 -0.1810  0.0330
  264POPC   C1B 3718   8.860   1.143   5.790 -0.0332  0.0062  0.1260
  264POPC   C2B 3719   8.908   1.430   6.133 -0.2598 -0.0547  0.2899
  264POPC   C3B 3720   9.029   1.755   6.402  0.0824 -0.0283  0.1022
  264POPC   C4B 3721   9.147   2.127   6.690 -0.2662  0.1421  0.5441
  265POPC   NC3 3722   0.892   5.805   3.973 -0.2707  0.3044  0.1731
  265POPC   PO4 3723   1.089   5.960   4.280 -0.4932 -0.0771 -0.1398
  265POPC   GL1 3724   1.026   5.615   4.362  0.1050  0.1829 -0.2888
  265POPC   GL2 3725   1.318   5.574   4.498 -0.1156 -0.2268  0.0127
  265POPC   C1A 3726   0.743   5.329   4.682 -0.1563 -0.1612 -0.4232
  265POPC   D2A 3727   0.639   5.226   5.099 -0.2057  0.3061  0.1674
  265POPC   C3A 3728   0.243   5.122   5.149 -0.0427  0.2767  0.4070
  265POPC   C4A 3729   0.149   4.930   4.727 -0.0352  0.0853  0.4334
  265POPC   C1B 3730   1.226   5.443   4.882  0.2532 -0.2888  0.1330
  265POPC   C2B 3731   1.177   5.251   5.260 -0.2300  0.1546  0.3641
  265POPC   C3B 3732   0.857   5.001   5.493  0.0055  0.1144 -0.0687
  265POPC   C4B 3733   0.576   4.713   5.288  0.1620 -0.0264 -0.2110
  266POPC   NC3 3734   7.110   8.511   5.270  0.0373 -0.2394  0.4106
  266POPC   PO4 3735   7.285   8.130   5.342 -0.1133  0.1498 -0.0933
  266POPC   GL1 3736   7.202   8.192   5.749  0.0716 -0.3726 -0.0189
  266POPC   GL2 3737   7.449   8.057   5.850 -0.0921  0.5423 -0.0003
  266POPC   C1A 3738   7.249   8.355   6.183  0.3668 -0.0956 -0.4057
  266POPC   D2A 3739   7.245   8.863   6.401  0.1669  0.3069  0.1016
  266POPC   C3A 3740   7.322   8.769   6.797  0.1160 -0.1248 -0.1817
  266POPC   C4A 3741   7.327   8.873   7.214 -0.1073 -0.2092 -0.2689
  266POPC   C1B 3742   7.435   7.918   6.383  0.2261 -0.1100 -0.0329
  266POPC   C2B 3743   7.401   8.228   6.702 -0.1918 -0.0389  0.0486
  266POPC   C3B 3744   7.182   8.385   7.077 -0.2486  0.0121  0.0894
  266POPC   C4B 3745   6.843   8.284   7.024  0.0219 -0.2155  0.5276
  267POPC   NC3 3746   0.443   7.600   4.065  0.0617 -0.1708  0.2483
  267POPC   PO4 3747   0.752   7.507   4.305  0.1107 -0.0461  0.1532
  267POPC   GL1 3748   0.617   7.326   4.743  0.0221 -0.1351  0.0106
  267POPC   GL2 3749   0.764   6.987   4.876 -0.2715 -0.0280 -0.1105
  267POPC   C1A 3750   0.746   7.519   5.195 -0.1780 -0.2231  0.0307
  267POPC   D2A 3751   0.811   7.467   5.784  0.2215 -0.1496  0.1789
  267POPC   C3A 3752   1.006   7.439   6.139  0.0655 -0.2586 -0.0013
  267POPC   C4A 3753   1.380   7.462   6.320  0.2374  0.1422  0.0745
  267POPC   C1B 3754   0.933   6.890   5.362  0.3165  0.1463  0.1271
  267POPC   C2B 3755   1.083   6.604   5.651 -0.0463  0.0583  0.0160
  267POPC   C3B 3756   0.897   6.561   6.072 -0.0566  0.0302 -0.1753
  267POPC   C4B 3757   0.728   6.452   6.469 -0.2164  0.0274  0.1950
  268POPC   NC3 3758   6.650   9.280   5.340 -0.3424 -0.1156  0.0954
  268POPC   PO4 3759   6.379   9.492   5.532 -0.0231 -0.3316 -0.0778
  268POPC   GL1 3760   6.584   9.828   5.818 -0.0806  0.4533  0.0076
  268POPC   GL2 3761   6.358   9.920   5.914  0.2667  0.1545 -0.3623
  268POPC   C1A 3762   7.002   9.944   5.931 -0.2025  0.1333  0.1603
  268POPC   D2A 3763   7.396  10.113   6.088  0.1223  0.1048  0.0296
  268POPC   C3A 3764   7.466  10.526   6.165 -0.5184 -0.0998 -0.4411
  268POPC   C4A 3765   7.750  10.852   6.007 -0.3757  0.3261  0.3713
  268POPC   C1B 3766   6.418   9.898   6.398  0.0627 -0.3316 -0.1605
  268POPC   C2B 3767   6.413   9.799   6.809  0.5266 -0.0011 -0.0915
  268POPC   C3B 3768   6.314   9.680   7.188  0.3183 -0.0719 -0.3335
  268POPC   C4B 3769   6.145   9.781   7.616 -0.0819  0.2021 -0.0042
  269POPC   NC3 3770   8.990   6.013   4.624  0.0724 -0.2635 -0.0961
  269POPC   PO4 3771   9.248   5.565   4.769  0.1296  0.1580 -0.1317
  269POPC   GL1 3772   9.447   5.494   5.130  0.1262  0.2865 -0.2153
  269POPC   GL2 3773   9.597   5.734   5.258  0.5327  0.1726 -0.2496
  269POPC   C1A 3774   9.400   5.322   5.592 -0.0552 -0.0898  0.1309
  269POPC   D2A 3775   8.914   5.332   5.813 -0.2347  0.5035  0.3591
  269POPC   C3A 3776   8.835   5.033   6.091  0.1347 -0.0890  0.3131
  269POPC   C4A 3777   9.026   4.657   6.239  0.2069 -0.0742 -0.0394
  269POPC   C1B 3778   9.769   5.795   5.571  0.0618  0.1028  0.2418
  269POPC   C2B 3779  10.106   6.041   5.751 -0.0737 -0.1064 -0.2434
  269POPC   C3B 3780  10.519   6.104   5.707  0.3064 -0.1444  0.1080
  269POPC   C4B 3781  10.588   6.428   6.115 -0.1524  0.1416  0.1444
  270POPC   NC3 3782   6.941   6.201   5.781  0.0696  0.0788 -0.1170
  270POPC   PO4 3783   6.585   6.588   5.765 -0.1077  0.0829 -0.3725
  270POPC   GL1 3784   6.521   6.658   6.250  0.3238 -0.0314 -0.0589
  270POPC   GL2 3785   6.791   6.377   6.213  0.1594 -0.1700  0.0590
  270POPC   C1A 3786   6.228   6.787   6.568 -0.1246  0.1128  0.2902
  270POPC   D2A 3787   5.914   6.740   6.907  0.0500  0.2710  0.2489
  270POPC   C3A 3788   5.510   6.833   7.169 -0.1796 -0.1582  0.0284
  270POPC   C4A 3789   5.174   7.022   7.508 -0.0612 -0.1131  0.0517
  270POPC   C1B 3790   7.261   6.240   6.384 -0.0388  0.0887  0.0159
  270POPC   C2B 3791   7.301   5.985   6.715 -0.2875  0.2959  0.0819
  270POPC   C3B 3792   7.335   5.650   7.005 -0.0420  0.2354  0.0669
  270POPC   C4B 3793   7.007   5.393   7.258  0.0538 -0.1649  0.5568
  271POPC   NC3 3794   2.062   2.588   3.974 -0.0304  0.1186  0.0975
  271POPC   PO4 3795   2.408   2.774   3.917 -0.1758  0.0492 -0.1559
  271POPC   GL1 3796   2.363   3.065   4.188 -0.3021  0.2214 -0.2597
  271POPC   GL2 3797   2.633   3.125   4.377  0.0530  0.4098  0.0336
  271POPC   C1A 3798   2.028   3.389   4.441  0.0708 -0.2458  0.1010
  271POPC   D2A 3799   1.992   3.833   4.372 -0.3129 -0.0202 -0.0819
  271POPC   C3A 3800   2.392   3.929   4.582  0.0980 -0.0560  0.4027
  271POPC   C4A 3801   2.572   3.854   4.941 -0.3763  0.1902 -0.0096
  271POPC   C1B 3802   2.351   3.147   4.717  0.0757  0.0991  0.1263
  271POPC   C2B 3803   2.165   2.892   4.988  0.0539 -0.4039  0.0138
  271POPC   C3B 3804   1.912   2.722   5.171 -0.0394 -0.0085 -0.3080
  271POPC   C4B 3805   1.940   2.787   5.584  0.2522  0.2139 -0.0364
  272POPC   NC3 3806   5.096   0.215   4.781 -0.1436  0.1691 -0.0682
  272POPC   PO4 3807   4.803  -0.170   4.979 -0.4055 -0.2075  0.1775
  272POPC   GL1 3808   4.851  -0.235   5.449  0.0916 -0.3796 -0.0104
  272POPC   GL2 3809   4.842  -0.674   5.603  0.1372 -0.0483 -0.0303
  272POPC   C1A 3810   4.849  -0.191   5.969 -0.1459 -0.1479  0.1575
  272POPC   D2A 3811   4.978  -0.396   6.297 -0.2808 -0.1989  0.1700
  272POPC   C3A 3812   4.922  -0.162   6.648 -0.0017 -0.1402 -0.0474
  272POPC   C4A 3813   5.060  -0.265   7.093 -0.2926 -0.1814  0.1648
  272POPC   C1B 3814   4.567  -0.588   5.892 -0.0589  0.3348 -0.2506
  272POPC   C2B 3815   4.408  -0.382   6.283  0.0796  0.1020  0.0945
  272POPC   C3B 3816   4.520   0.015   6.415 -0.0610  0.2084  0.1384
  272POPC   C4B 3817   4.580   0.278   6.037  0.1339  0.0228  0.0986
  273POPC   NC3 3818   6.863   3.173   5.125 -0.0523  0.0374 -0.2445
  273POPC   PO4 3819   6.439   3.161   5.022  0.0324  0.4412  0.1031
  273POPC   GL1 3820   6.465   3.112   5.477 -0.0312  0.3320  0.0514
  273POPC   GL2 3821   6.465   3.388   5.658  0.1124 -0.3002 -0.2012
  273POPC   C1A 3822   6.852   3.111   5.760 -0.1001  0.1644 -0.2994
  273POPC   D2A 3823   7.042   3.045   6.081  0.1309  0.1239  0.1796
  273POPC   C3A 3824   6.765   3.079   6.583  0.3695 -0.0177 -0.2128
  273POPC   C4A 3825   6.582   3.284   6.897  0.0934  0.1876 -0.0174
  273POPC   C1B 3826   6.310   3.464   5.937  0.0811 -0.0506  0.1196
  273POPC   C2B 3827   5.858   3.419   6.115 -0.1288 -0.0834  0.1022
  273POPC   C3B 3828   5.630   3.070   6.251 -0.0662  0.0448  0.0859
  273POPC   C4B 3829   5.552   2.944   6.610  0.1612  0.3221 -0.0940
  274POPC   NC3 3830   3.816   5.040   3.757 -0.3315 -0.0705 -0.1472
  274POPC   PO4 3831   4.138   4.666   3.807 -0.4596 -0.1887  0.1507
  274POPC   GL1 3832   4.161   4.280   4.107 -0.0128 -0.0160 -0.0460
  274POPC   GL2 3833   3.776   4.225   4.198  0.2060 -0.1402 -0.1428
  274POPC   C1A 3834   4.094   4.530   4.535  0.1715  0.2060  0.1384
  274POPC   D2A 3835   3.762   4.795   4.573 -0.0682 -0.1415  0.0864
  274POPC   C3A 3836   3.566   4.721   4.893  0.2984  0.2181  0.0336
  274POPC   C4A 3837   3.698   4.972   5.276 -0.0909  0.3620 -0.1640
  274POPC   C1B 3838   3.375   4.401   4.473 -0.2049  0.0392 -0.0210
  274POPC   C2B 3839   3.318   4.272   4.915  0.1078 -0.0429 -0.2329
  274POPC   C3B 3840   3.034   4.063   5.264  0.0249 -0.3245  0.4264
  274POPC   C4B 3841   2.659   3.809   5.409  0.3208 -0.0128  0.2571
  275POPC   NC3 3842   4.692   5.339   4.121  0.2828  0.0745  0.1119
  275POPC   PO4 3843   4.922   5.639   4.211 -0.0396 -0.1202  0.0126
  275POPC   GL1 3844   4.827   5.471   4.614  0.0209  0.0243 -0.0437
  275POPC   GL2 3845   4.819   5.077   4.582 -0.0427  0.0788  0.0069
  275POPC   C1A 3846   4.698   5.292   5.003 -0.1101 -0.0535 -0.1112
  275POPC   D2A 3847   4.650   4.849   5.110 -0.1234  0.1111  0.2385
  275POPC   C3A 3848   4.484   4.654   5.388 -0.1455  0.2362  0.0552
  275POPC   C4A 3849   4.437   4.437   5.751  0.2232  0.6398 -0.0716
  275POPC   C1B 3850   4.371   4.905   4.738 -0.0441  0.0108  0.2109
  275POPC   C2B 3851   4.118   4.711   5.027  0.0502 -0.4611  0.1031
  275POPC   C3B 3852   3.873   4.499   5.210  0.3010 -0.0269  0.0041
  275POPC   C4B 3853   3.584   4.071   5.270  0.0563 -0.2337 -0.3013
  276POPC   NC3 3854   7.746   5.557   4.943 -0.0421 -0.1960 -0.1816
  276POPC   PO4 3855   7.813   5.254   5.332  0.1183  0.0961  0.0972
  276POPC   GL1 3856   7.691   5.064   5.815  0.0957  0.1843 -0.1708
  276POPC   GL2 3857   7.258   5.028   5.891 -0.1712  0.1176 -0.0846
  276POPC   C1A 3858   7.821   4.738   6.139 -0.2896  0.0693  0.1364
  276POPC   D2A 3859   7.984   4.404   6.335 -0.0892 -0.1039  0.0237
  276POPC   C3A 3860   7.823   4.120   6.634 -0.3257 -0.0395 -0.0525
  276POPC   C4A 3861   7.661   3.934   7.044 -0.0234  0.0015 -0.1259
  276POPC   C1B 3862   7.381   4.909   6.254  0.2138  0.0323 -0.1255
  276POPC   C2B 3863   7.542   4.811   6.617 -0.2466  0.0568 -0.0633
  276POPC   C3B 3864   7.641   5.018   6.980 -0.3478 -0.3339  0.1303
  276POPC   C4B 3865   7.794   4.980   7.288 -0.0499 -0.0364  0.1303
  277POPC   NC3 3866   6.727   8.374   4.906 -0.1235  0.3922 -0.2273
  277POPC   PO4 3867   6.686   8.770   5.124  0.0762 -0.2974  0.1124
  277POPC   GL1 3868   6.677   8.790   5.574  0.0350 -0.1678 -0.1486
  277POPC   GL2 3869   6.841   8.585   5.746  0.4143  0.0360  0.3054
  277POPC   C1A 3870   6.419   8.906   5.919 -0.0125 -0.4133 -0.0547
  277POPC   D2A 3871   6.517   8.913   6.295  0.1496 -0.4163 -0.0390
  277POPC   C3A 3872   6.756   9.265   6.572  0.1987  0.1636  0.1651
  277POPC   C4A 3873   7.149   9.287   6.763  0.2326 -0.2288  0.1720
  277POPC   C1B 3874   6.875   8.617   6.099  0.0113  0.1644 -0.1497
  277POPC   C2B 3875   6.930   8.572   6.593 -0.0761 -0.0599 -0.4928
  277POPC   C3B 3876   6.824   8.855   6.889 -0.0840  0.0472 -0.0902
  277POPC   C4B 3877   6.630   9.252   7.060 -0.0835 -0.1633 -0.0403
  278POPC   NC3 3878   0.471   0.864   4.875  0.0549  0.3596  0.0166
  278POPC   PO4 3879   0.187   0.570   5.067  0.1413  0.3741  0.1350
  278POPC   GL1 3880   0.526   0.696   5.341  0.2505 -0.0120 -0.3032
  278POPC   GL2 3881   0.688   0.425   5.411 -0.0000  0.1073  0.1618
  278POPC   C1A 3882   0.810   0.886   5.646  0.2068  0.5224 -0.0529
  278POPC   D2A 3883   1.015   0.994   6.014  0.2449  0.0801 -0.1737
  278POPC   C3A 3884   0.863   1.300   6.328 -0.2676 -0.2010  0.4442
  278POPC   C4A 3885   0.868   1.765   6.197 -0.1974  0.0217 -0.1440
  278POPC   C1B 3886   0.670   0.491   5.888 -0.2323 -0.3122  0.0778
  278POPC   C2B 3887   0.826   0.483   6.207 -0.1240  0.0643  0.1243
  278POPC   C3B 3888   0.735   0.772   6.541 -0.0487 -0.0059  0.1207
  278POPC   C4B 3889   0.446   0.863   6.799  0.3254 -0.2294 -0.1875
  279POPC   NC3 3890   9.380   3.095   4.239  0.0473 -0.2297 -0.1188
  279POPC   PO4 3891   8.935   2.849   4.431  0.4199 -0.3146  0.0749
  279POPC   GL1 3892   9.140   2.952   4.704 -0.1315  0.2184 -0.0309
  279POPC   GL2 3893   8.934   3.005   5.091  0.0821  0.2915  0.0044
  279POPC   C1A 3894   9.357   3.265   4.942 -0.0966  0.0294  0.0163
  279POPC   D2A 3895   9.459   3.659   5.017 -0.3401  0.2987 -0.1157
  279POPC   C3A 3896   9.845   3.837   4.830  0.0479  0.2545  0.1505
  279POPC   C4A 3897  10.317   3.988   4.931  0.1341  0.0958  0.3597
  279POPC   C1B 3898   9.005   2.901   5.606 -0.2581  0.1728  0.1491
  279POPC   C2B 3899   8.897   2.540   5.887  0.0667  0.0447 -0.0717
  279POPC   C3B 3900   8.771   2.511   6.355  0.0837 -0.0106 -0.2132
  279POPC   C4B 3901   8.945   2.629   6.785 -0.1224  0.2443  0.0668
  280POPC   NC3 3902   4.090   6.994   4.430  0.0109 -0.0951 -0.3120
  280POPC   PO4 3903   4.296   7.203   4.798  0.0380  0.0027 -0.2291
  280POPC   GL1 3904   4.118   7.012   5.031  0.2455 -0.4721  0.3965
  280POPC   GL2 3905   4.094   7.156   5.358  0.0464  0.0708 -0.0935
  280POPC   C1A 3906   4.281   6.671   5.322  0.3789 -0.1233  0.0854
  280POPC   D2A 3907   4.537   6.657   5.699 -0.4256  0.1815  0.1590
  280POPC   C3A 3908   4.799   6.443   6.126  0.1816 -0.3213  0.1997
  280POPC   C4A 3909   5.058   6.600   6.334  0.1261 -0.4597 -0.1009
  280POPC   C1B 3910   4.071   6.814   5.736 -0.0021 -0.3163  0.3205
  280POPC   C2B 3911   4.221   6.995   6.211 -0.0627 -0.0302  0.1823
  280POPC   C3B 3912   4.132   6.875   6.675 -0.3851 -0.1536  0.2233
  280POPC   C4B 3913   3.993   6.715   7.072  0.1637  0.1637  0.1422
  281POPC   NC3 3914   7.628   7.844   5.485  0.0446  0.0091 -0.0989
  281POPC   PO4 3915   7.735   8.306   5.522 -0.1946  0.2882  0.0860
  281POPC   GL1 3916   7.834   8.283   5.988 -0.1788  0.2529 -0.0210
  281POPC   GL2 3917   7.671   8.516   6.027  0.0003 -0.4804 -0.2970
  281POPC   C1A 3918   7.925   8.088   6.363  0.2817 -0.0290 -0.2577
  281POPC   D2A 3919   8.008   8.285   6.706 -0.3248  0.2396 -0.4367
  281POPC   C3A 3920   7.674   8.397   7.093 -0.0571 -0.0263 -0.1169
  281POPC   C4A 3921   7.611   8.440   7.525  0.0018 -0.0400  0.0096
  281POPC   C1B 3922   7.710   8.632   6.511 -0.1975 -0.2323 -0.0044
  281POPC   C2B 3923   7.847   8.825   6.880 -0.1646  0.1335 -0.0138
  281POPC   C3B 3924   7.784   8.898   7.309 -0.1309 -0.2646 -0.1632
  281POPC   C4B 3925   7.899   8.841   7.622  0.0042 -0.0628  0.0965
  282POPC   NC3 3926   9.843   5.585   4.314 -0.1818 -0.0351 -0.1578
  282POPC   PO4 3927  10.271   5.716   4.183  0.2793 -0.0802  0.0975
  282POPC   GL1 3928  10.450   5.804   4.640  0.1666 -0.1809  0.0314
  282POPC   GL2 3929  10.481   5.556   4.910  0.2496  0.2584  0.0737
  282POPC   C1A 3930  10.916   5.805   4.902  0.0045  0.0107  0.4023
  282POPC   D2A 3931  11.353   6.040   4.741 -0.1053  0.0628 -0.3190
  282POPC   C3A 3932  11.618   5.872   4.931  0.1585 -0.1396 -0.4154
  282POPC   C4A 3933  11.784   5.598   5.175  0.3374  0.1485  0.0922
  282POPC   C1B 3934  10.251   5.441   5.458  0.1172 -0.3546  0.1674
  282POPC   C2B 3935  10.140   5.281   5.911 -0.5011 -0.3022 -0.1443
  282POPC   C3B 3936  10.050   5.426   6.255  0.0658 -0.2563 -0.1182
  282POPC   C4B 3937  10.140   5.527   6.685  0.0245  0.2128 -0.1254
  283POPC   NC3 3938   9.236   7.109   5.038 -0.0509  0.0910 -0.0393
  283POPC   PO4 3939   9.625   7.268   5.003 -0.1305  0.1484 -0.0902
  283POPC   GL1 3940   9.942   7.018   5.157  0.1949 -0.2068  0.1161
  283POPC   GL2 3941  10.016   6.659   5.093 -0.0324  0.0148  0.1490
  283POPC   C1A 3942  10.150   7.048   5.438 -0.1264  0.1852 -0.0723
  283POPC   D2A 3943  10.035   7.223   5.831  0.0230 -0.0906 -0.2010
  283POPC   C3A 3944   9.680   7.285   6.143 -0.1125  0.0621 -0.1741
  283POPC   C4A 3945   9.278   7.575   6.127 -0.1826 -0.0148 -0.3508
  283POPC   C1B 3946  10.278   6.475   5.441 -0.1397  0.0043  0.2015
  283POPC   C2B 3947  10.376   6.768   5.789  0.0728 -0.0940  0.0253
  283POPC   C3B 3948  10.220   6.927   6.211 -0.3303 -0.2060  0.2503
  283POPC   C4B 3949   9.935   6.889   6.539 -0.0768 -0.0543 -0.2525
  284POPC   NC3 3950   5.268   5.324   4.751  0.1578 -0.2161  0.0591
  284POPC   PO4 3951   5.286   4.855   4.871  0.1485  0.0220  0.1392
  284POPC   GL1 3952   5.296   4.691   5.215 -0.1612 -0.2660 -0.1398
  284POPC   GL2 3953   5.501   4.708   5.442 -0.1370  0.1978  0.0236
  284POPC   C1A 3954   4.975   4.674   5.483 -0.1002  0.4422  0.3179
  284POPC   D2A 3955   4.952   4.430   5.814 -0.1986  0.1295  0.0524
  284POPC   C3A 3956   4.710   4.377   6.212 -0.0911  0.0653  0.1504
  284POPC   C4A 3957   4.671   4.324   6.619  0.2716  0.0797 -0.2739
  284POPC   C1B 3958   5.357   4.639   5.820  0.2000 -0.1314 -0.1090
  284POPC   C2B 3959   5.241   4.689   6.203 -0.1234  0.0637  0.1362
  284POPC   C3B 3960   4.952   4.747   6.524  0.1944 -0.3466 -0.2679
  284POPC   C4B 3961   4.709   4.779   6.852 -0.1270 -0.0948 -0.1155
  285POPC   NC3 3962   6.991   7.241   5.633  0.1141  0.0002 -0.2479
  285POPC   PO4 3963   7.013   6.845   5.548  0.0597  0.0721  0.1388
  285POPC   GL1 3964   7.045   6.736   5.895 -0.0408  0.0306 -0.0615
  285POPC   GL2 3965   6.829   6.983   6.014  0.0466  0.0819 -0.2062
  285POPC   C1A 3966   7.202   6.761   6.371  0.0826 -0.1104  0.1334
  285POPC   D2A 3967   7.476   7.059   6.653 -0.0288 -0.0733  0.2486
  285POPC   C3A 3968   7.631   6.996   7.097 -0.1390  0.3425  0.3509
  285POPC   C4A 3969   7.486   6.713   7.458  0.2485 -0.0827 -0.0368
  285POPC   C1B 3970   6.981   7.211   6.392  0.5393  0.1305 -0.1292
  285POPC   C2B 3971   7.162   7.445   6.619  0.4216  0.0566  0.1560
  285POPC   C3B 3972   7.513   7.665   6.810 -0.1718  0.0325 -0.0272
  285POPC   C4B 3973   7.883   7.792   6.837 -0.0652  0.2422  0.1490
  286POPC   NC3 3974   8.228   1.520   5.173 -0.0022 -0.0315  0.2848
  286POPC   PO4 3975   7.881   1.350   5.027 -0.0684 -0.2806  0.1115
  286POPC   GL1 3976   7.782   1.669   5.420  0.2635  0.0514 -0.0152
  286POPC   GL2 3977   7.544   1.825   5.271  0.3544  0.0242  0.0294
  286POPC   C1A 3978   7.639   1.814   5.839  0.1026  0.1653  0.0001
  286POPC   D2A 3979   7.511   1.677   6.124  0.0743 -0.1805  0.1029
  286POPC   C3A 3980   7.398   1.774   6.536  0.0545  0.0480  0.0579
  286POPC   C4A 3981   7.110   1.885   6.714  0.1128  0.0637  0.0721
  286POPC   C1B 3982   7.236   1.699   5.603  0.0649  0.0924 -0.2142
  286POPC   C2B 3983   7.080   1.381   5.959  0.1112  0.1315 -0.1516
  286POPC   C3B 3984   7.238   1.337   6.389  0.1377  0.2821  0.0907
  286POPC   C4B 3985   7.043   1.360   6.782  0.0219 -0.0082  0.1406
  287POPC   NC3 3986   0.791   0.747   4.101 -0.1127  0.1204  0.0683
  287POPC   PO4 3987   0.814   0.785   4.526  0.2418  0.2956 -0.0257
  287POPC   GL1 3988   1.037   1.061   4.808  0.2441 -0.0078  0.0308
  287POPC   GL2 3989   1.039   0.884   5.067 -0.0292 -0.1793 -0.1242
  287POPC   C1A 3990   1.264   1.330   5.148  0.0654  0.1133 -0.0240
  287POPC   D2A 3991   1.385   1.498   5.527  0.0825  0.0962  0.0468
  287POPC   C3A 3992   1.746   1.804   5.401 -0.0368  0.0028  0.0789
  287POPC   C4A 3993   2.207   1.905   5.495  0.0355 -0.0566  0.1253
  287POPC   C1B 3994   1.324   0.920   5.408  0.0089  0.0288  0.0580
  287POPC   C2B 3995   1.530   1.099   5.782 -0.1294 -0.1170  0.1956
  287POPC   C3B 3996   1.651   1.228   6.185  0.0095  0.0242  0.3115
  287POPC   C4B 3997   1.375   1.113   6.530 -0.1066 -0.0669  0.3584
  288POPC   NC3 3998   9.487   1.005   5.171 -0.1766 -0.0864 -0.1312
  288POPC   PO4 3999   9.201   0.832   5.290  0.1393 -0.1791  0.1483
  288POPC   GL1 4000   9.089   0.674   5.643 -0.1248 -0.2687  0.0406
  288POPC   GL2 4001   9.324   0.876   5.839  0.2787 -0.2512 -0.1620
  288POPC   C1A 4002   9.140   0.491   6.026 -0.0286 -0.0802 -0.0050
  288POPC   D2A 4003   9.420   0.455   6.258 -0.2074  0.0840 -0.0115
  288POPC   C3A 4004   9.542   0.740   6.518 -0.0636  0.0574  0.1242
  288POPC   C4A 4005   9.751   1.071   6.691 -0.2275  0.1924  0.1634
  288POPC   C1B 4006   9.168   0.973   6.328  0.2169  0.0152 -0.3011
  288POPC   C2B 4007   9.381   1.391   6.499  0.0913  0.2578  0.0437
  288POPC   C3B 4008   9.303   1.554   6.921  0.2106 -0.1050  0.2708
  288POPC   C4B 4009   9.191   1.317   7.302  0.2330 -0.1086  0.0000
  289POPC   NC3 4010   6.670   4.263   5.363  0.1081 -0.0475  0.1347
  289POPC   PO4 4011   6.460   4.728   5.228 -0.2888  0.0279  0.0799
  289POPC   GL1 4012   6.272   4.499   5.602  0.0787 -0.1698 -0.2207
  289POPC   GL2 4013   6.569   4.411   5.840  0.1456  0.0193  0.0661
  289POPC   C1A 4014   6.360   4.824   5.976 -0.0283 -0.3173  0.4626
  289POPC   D2A 4015   6.533   5.039   6.423 -0.1391 -0.2935  0.2100
  289POPC   C3A 4016   6.541   5.526   6.456 -0.1881  0.0364  0.3267
  289POPC   C4A 4017   6.451   5.900   6.316  0.0078  0.3144  0.1332
  289POPC   C1B 4018   6.239   4.366   6.201  0.0521 -0.2080  0.1147
  289POPC   C2B 4019   6.090   4.242   6.521 -0.1129  0.0383  0.0028
  289POPC   C3B 4020   5.721   4.333   6.757  0.3931 -0.2729  0.3484
  289POPC   C4B 4021   5.552   4.012   6.770 -0.0747  0.0893 -0.1149
  290POPC   NC3 4022   5.945   7.948   4.943 -0.1082 -0.0127  0.0443
  290POPC   PO4 4023   6.277   7.899   5.300 -0.0029  0.1873  0.0514
  290POPC   GL1 4024   6.290   8.198   5.735  0.1046 -0.0018 -0.1520
  290POPC   GL2 4025   6.206   8.515   5.609  0.2141  0.4208  0.1538
  290POPC   C1A 4026   6.449   8.368   6.044 -0.1423  0.0262 -0.1295
  290POPC   D2A 4027   6.470   8.452   6.421  0.2023 -0.2269 -0.0392
  290POPC   C3A 4028   6.484   8.104   6.754 -0.0208 -0.0469  0.2683
  290POPC   C4A 4029   6.521   7.795   7.117 -0.0849  0.0179  0.0526
  290POPC   C1B 4030   5.940   8.477   6.108  0.0623 -0.2332  0.0814
  290POPC   C2B 4031   5.879   8.756   6.431 -0.0716  0.0659  0.4040
  290POPC   C3B 4032   6.011   8.629   6.853 -0.0665  0.0680 -0.2550
  290POPC   C4B 4033   6.338   8.473   7.144  0.2789  0.2704  0.1472
  291POPC   NC3 4034   7.780   0.893   5.148  0.1744 -0.3523  0.2014
  291POPC   PO4 4035   8.161   1.017   5.289 -0.0616  0.2433  0.0324
  291POPC   GL1 4036   8.398   0.978   5.715  0.3039  0.2224  0.1860
  291POPC   GL2 4037   8.264   0.890   5.980 -0.0423 -0.3033 -0.2390
  291POPC   C1A 4038   8.430   1.328   6.043 -0.2779 -0.0758 -0.2568
  291POPC   D2A 4039   8.453   1.748   6.131  0.1641  0.1012  0.2142
  291POPC   C3A 4040   8.149   1.956   5.995  0.2541 -0.0008  0.1790
  291POPC   C4A 4041   7.806   2.259   5.990 -0.1300 -0.1019 -0.1908
  291POPC   C1B 4042   8.138   1.102   6.424  0.0404  0.4002 -0.0604
  291POPC   C2B 4043   8.137   1.471   6.693 -0.1451 -0.1496  0.0550
  291POPC   C3B 4044   8.321   1.819   6.769  0.0796  0.1045 -0.1580
  291POPC   C4B 4045   8.228   2.025   7.105  0.1127 -0.0331 -0.1082
  292POPC   NC3 4046   5.482   1.137   5.008  0.2506 -0.1636 -0.0558
  292POPC   PO4 4047   5.095   1.197   4.955  0.0787  0.1885  0.2606
  292POPC   GL1 4048   5.096   1.132   5.344  0.0850 -0.1602 -0.1978
  292POPC   GL2 4049   5.020   1.310   5.618  0.1178  0.0673 -0.0848
  292POPC   C1A 4050   5.049   0.805   5.630  0.3611 -0.0147 -0.0836
  292POPC   D2A 4051   4.931   0.685   6.027  0.0921  0.2275 -0.0140
  292POPC   C3A 4052   4.741   0.855   6.279  0.2560  0.1186  0.3345
  292POPC   C4A 4053   4.589   1.135   6.659 -0.0944  0.0572  0.2054
  292POPC   C1B 4054   5.144   1.142   5.944 -0.4819  0.3977 -0.2370
  292POPC   C2B 4055   5.268   0.996   6.325  0.2661  0.1455  0.0824
  292POPC   C3B 4056   5.433   1.098   6.705  0.1415 -0.1425 -0.3381
  292POPC   C4B 4057   5.498   1.491   6.971  0.0200  0.1552 -0.0380
  293POPC   NC3 4058   1.721  10.010   4.904  0.1400  0.1967  0.0227
  293POPC   PO4 4059   2.057   9.809   5.127  0.0391 -0.2092  0.0591
  293POPC   GL1 4060   1.971  10.055   5.467  0.0027 -0.0466  0.1890
  293POPC   GL2 4061   1.696  10.157   5.406 -0.2611 -0.0220  0.3958
  293POPC   C1A 4062   2.163  10.330   5.787 -0.2513 -0.1927  0.2967
  293POPC   D2A 4063   2.140  10.392   6.246  0.2017  0.0685 -0.1253
  293POPC   C3A 4064   1.903  10.302   6.601 -0.0876 -0.4241 -0.1549
  293POPC   C4A 4065   1.786  10.145   6.962  0.1564 -0.2078 -0.0544
  293POPC   C1B 4066   1.524  10.267   5.873  0.0092  0.0596 -0.1603
  293POPC   C2B 4067   1.588  10.421   6.257 -0.2156  0.0297  0.2061
  293POPC   C3B 4068   1.424  10.240   6.591 -0.2104 -0.2543  0.1478
  293POPC   C4B 4069   1.237   9.852   6.798 -0.0191  0.3684 -0.0970
  294POPC   NC3 4070   4.942   2.969   4.236 -0.0508 -0.0560 -0.1198
  294POPC   PO4 4071   4.918   2.563   4.469 -0.1405  0.0562 -0.2555
  294POPC   GL1 4072   4.656   2.518   4.855  0.0776  0.0151  0.0839
  294POPC   GL2 4073   4.972   2.690   4.995 -0.3185  0.0028 -0.1040
  294POPC   C1A 4074   4.347   2.458   5.201  0.1695 -0.3041  0.0931
  294POPC   D2A 4075   4.060   2.712   5.545 -0.0880  0.1393 -0.1910
  294POPC   C3A 4076   4.210   3.084   5.629 -0.0357  0.1683 -0.0176
  294POPC   C4A 4077   4.378   3.550   5.504  0.0350 -0.1008  0.4527
  294POPC   C1B 4078   5.074   2.793   5.400  0.0306  0.0008 -0.1034
  294POPC   C2B 4079   5.074   2.959   5.803  0.0154  0.2633  0.0984
  294POPC   C3B 4080   4.828   2.734   6.141 -0.0368 -0.1742  0.1839
  294POPC   C4B 4081   4.399   2.812   6.088  0.1194  0.1333  0.0758
  295POPC   NC3 4082   6.299   9.996   5.424 -0.2079 -0.0896 -0.1294
  295POPC   PO4 4083   6.089   9.729   5.183 -0.0664  0.1240  0.0091
  295POPC   GL1 4084   5.916   9.765   5.629  0.1307  0.1733 -0.3079
  295POPC   GL2 4085   5.879  10.075   5.812  0.5385  0.0995 -0.1017
  295POPC   C1A 4086   5.929   9.726   6.170 -0.1424  0.0914 -0.6385
  295POPC   D2A 4087   5.795   9.738   6.663 -0.0587  0.1605  0.0305
  295POPC   C3A 4088   5.323   9.743   6.751 -0.2515 -0.2051  0.3264
  295POPC   C4A 4089   4.964   9.552   6.759 -0.2139  0.1213  0.2344
  295POPC   C1B 4090   5.821  10.237   6.250  0.0080  0.1263  0.1546
  295POPC   C2B 4091   5.836  10.447   6.598  0.1546 -0.0247 -0.2543
  295POPC   C3B 4092   6.078  10.538   7.002 -0.2217  0.1930 -0.0612
  295POPC   C4B 4093   6.274  10.691   7.504 -0.3445 -0.1550  0.1828
  296POPC   NC3 4094   3.648   1.056   4.918 -0.2047 -0.0523 -0.0065
  296POPC   PO4 4095   3.562   0.652   4.695 -0.0583 -0.2667 -0.0578
  296POPC   GL1 4096   3.374   0.658   5.152 -0.1876 -0.0322 -0.0403
  296POPC   GL2 4097   3.454   0.900   5.439  0.1167 -0.0978  0.3119
  296POPC   C1A 4098   3.127   0.372   5.586 -0.1442 -0.3324 -0.1487
  296POPC   D2A 4099   2.807   0.476   5.850  0.3538 -0.0181  0.2476
  296POPC   C3A 4100   2.838   0.816   6.081 -0.0388  0.2045 -0.1449
  296POPC   C4A 4101   2.938   1.100   6.372  0.2052 -0.0829 -0.1748
  296POPC   C1B 4102   3.287   0.724   5.884 -0.2371  0.2299 -0.0372
  296POPC   C2B 4103   3.247   0.641   6.417  0.0175  0.1125  0.3970
  296POPC   C3B 4104   3.172   0.463   6.847 -0.3158  0.0485 -0.0468
  296POPC   C4B 4105   2.743   0.378   7.045 -0.0264 -0.0894 -0.0668
  297POPC   NC3 4106   6.749   2.804   4.725 -0.0633  0.1479 -0.1662
  297POPC   PO4 4107   6.347   2.632   4.984  0.0531 -0.1168 -0.1144
  297POPC   GL1 4108   6.048   2.458   5.331 -0.0738 -0.0304 -0.3399
  297POPC   GL2 4109   6.093   2.564   5.561  0.1272 -0.2221 -0.0222
  297POPC   C1A 4110   5.777   2.210   5.573 -0.1370 -0.1325  0.0777
  297POPC   D2A 4111   5.657   2.214   5.953  0.1998  0.0173 -0.1639
  297POPC   C3A 4112   5.721   2.444   6.340 -0.2066  0.0285 -0.1895
  297POPC   C4A 4113   5.637   2.423   6.779  0.1993  0.0505  0.0640
  297POPC   C1B 4114   6.095   2.517   6.038  0.1552 -0.2111 -0.1202
  297POPC   C2B 4115   6.066   2.874   6.409 -0.1296  0.3004 -0.0001
  297POPC   C3B 4116   5.982   2.913   6.868 -0.4095  0.0030 -0.0528
  297POPC   C4B 4117   5.893   2.657   7.204 -0.1973  0.3322  0.1353
  298POPC   NC3 4118   9.723   2.743   3.669 -0.2171 -0.0197 -0.3776
  298POPC   PO4 4119   9.772   2.845   4.144 -0.0094  0.1539  0.0126
  298POPC   GL1 4120   9.738   2.994   4.670  0.2770  0.1219  0.1285
  298POPC   GL2 4121   9.856   3.304   4.699  0.3239 -0.1898 -0.1128
  298POPC   C1A 4122   9.784   2.968   5.208  0.3168 -0.1285 -0.0136
  298POPC   D2A 4123   9.811   3.201   5.540 -0.3051  0.0895 -0.0114
  298POPC   C3A 4124  10.005   3.456   5.751  0.1082 -0.0958 -0.3093
  298POPC   C4A 4125  10.444   3.361   5.891 -0.0088 -0.1430  0.2400
  298POPC   C1B 4126  10.141   3.397   4.978  0.0532  0.1918  0.1051
  298POPC   C2B 4127  10.347   3.580   5.376  0.0155  0.0324  0.2745
  298POPC   C3B 4128  10.347   3.841   5.747  0.1221  0.3822  0.3192
  298POPC   C4B 4129  10.185   4.171   6.035 -0.0091  0.0178 -0.2473
  299POPC   NC3 4130   6.767   3.415   4.698 -0.0705  0.0595  0.0482
  299POPC   PO4 4131   7.164   3.134   4.689 -0.1451  0.1325  0.3614
  299POPC   GL1 4132   7.373   2.874   5.072  0.0428 -0.1024 -0.2035
  299POPC   GL2 4133   7.303   3.094   5.296  0.1258 -0.0442 -0.1168
  299POPC   C1A 4134   7.529   2.556   5.276  0.1052 -0.4001 -0.0450
  299POPC   D2A 4135   7.468   2.209   5.524  0.0032  0.0416  0.0437
  299POPC   C3A 4136   7.336   2.152   5.998  0.0354 -0.4942  0.1495
  299POPC   C4A 4137   7.046   1.850   6.184  0.0574  0.4171  0.1335
  299POPC   C1B 4138   7.537   3.016   5.600  0.0054 -0.2087  0.2519
  299POPC   C2B 4139   7.653   3.195   6.010  0.0706 -0.1239  0.0607
  299POPC   C3B 4140   7.796   3.281   6.444 -0.1377 -0.0954 -0.1715
  299POPC   C4B 4141   7.856   3.583   6.656  0.1608  0.1527  0.3224
  300POPC   NC3 4142   6.196   2.135   4.985 -0.0090  0.2935 -0.4210
  300POPC   PO4 4143   5.728   2.040   4.888  0.2229  0.1659 -0.1219
  300POPC   GL1 4144   5.555   1.836   5.301 -0.1422  0.3316  0.2732
  300POPC   GL2 4145   5.505   1.463   5.348 -0.1201 -0.1617 -0.0584
  300POPC   C1A 4146   5.469   1.832   5.700 -0.1777 -0.2690 -0.0555
  300POPC   D2A 4147   5.116   1.646   5.942 -0.0700  0.0583 -0.2268
  300POPC   C3A 4148   4.812   1.935   6.205 -0.1095  0.3534 -0.1292
  300POPC   C4A 4149   4.551   2.069   6.467  0.2457 -0.1991 -0.1964
  300POPC   C1B 4150   5.615   1.302   5.712 -0.1755  0.1770 -0.0444
  300POPC   C2B 4151   5.743   1.225   6.064 -0.0737  0.2125 -0.1842
  300POPC   C3B 4152   5.980   1.481   6.355 -0.1117 -0.0336 -0.3141
  300POPC   C4B 4153   5.757   1.823   6.701  0.1676 -0.0372  0.0914
  301POPC   NC3 4154   5.841   5.422   4.704  0.3161 -0.1143  0.0437
  301POPC   PO4 4155   5.675   5.167   4.918 -0.2900 -0.3210 -0.0454
  301POPC   GL1 4156   5.482   5.255   5.274  0.1389 -0.0926 -0.0831
  301POPC   GL2 4157   5.150   5.153   5.225 -0.0604 -0.2077 -0.0471
  301POPC   C1A 4158   5.367   5.178   5.708 -0.2175  0.4076 -0.0211
  301POPC   D2A 4159   5.212   5.226   6.175 -0.0713 -0.0412 -0.1270
  301POPC   C3A 4160   4.982   5.689   6.265  0.1457  0.2403 -0.0399
  301POPC   C4A 4161   5.194   6.068   6.233 -0.2027 -0.2801  0.1488
  301POPC   C1B 4162   4.819   5.274   5.543 -0.0503  0.2206 -0.0412
  301POPC   C2B 4163   4.681   5.441   5.966 -0.2182  0.1207 -0.1158
  301POPC   C3B 4164   4.428   5.461   6.354  0.2544  0.0931  0.1634
  301POPC   C4B 4165   4.507   5.511   6.847  0.0365  0.5050 -0.1015
  302POPC   NC3 4166   7.472   4.739   5.513 -0.2819  0.1527  0.0338
  302POPC   PO4 4167   7.628   4.385   5.339 -0.1111  0.4192  0.0783
  302POPC   GL1 4168   7.650   4.428   5.803  0.2532 -0.1026  0.1572
  302POPC   GL2 4169   7.928   4.268   5.853 -0.5507 -0.0556  0.0535
  302POPC   C1A 4170   7.498   4.415   6.121  0.3494 -0.0666 -0.2305
  302POPC   D2A 4171   7.187   4.353   6.528  0.2699  0.0126 -0.0497
  302POPC   C3A 4172   7.310   4.328   6.845 -0.0731 -0.0719 -0.0547
  302POPC   C4A 4173   7.433   4.406   7.288 -0.0345 -0.2274  0.1808
  302POPC   C1B 4174   8.348   4.135   5.903  0.2139  0.1584 -0.1564
  302POPC   C2B 4175   8.602   3.857   6.193 -0.0167 -0.0527 -0.1069
  302POPC   C3B 4176   8.872   3.493   6.328 -0.1290  0.1900  0.2749
  302POPC   C4B 4177   9.322   3.309   6.418  0.2536 -0.0274  0.2530
  303POPC   NC3 4178   8.632   0.607   5.409  0.1212 -0.2995 -0.0313
  303POPC   PO4 4179   8.531   0.144   5.321  0.0361 -0.0975 -0.0839
  303POPC   GL1 4180   8.647   0.104   5.825  0.2962 -0.1863  0.1042
  303POPC   GL2 4181   8.490   0.404   5.822 -0.0225 -0.1189  0.1519
  303POPC   C1A 4182   8.722   0.197   6.233  0.1915  0.0231  0.1726
  303POPC   D2A 4183   8.763   0.464   6.632  0.1746 -0.3053  0.0159
  303POPC   C3A 4184   9.068   0.801   6.793 -0.0993 -0.0259 -0.1085
  303POPC   C4A 4185   9.351   0.907   7.055  0.1722  0.1483 -0.1177
  303POPC   C1B 4186   8.778   0.753   6.046  0.1057  0.0635  0.0199
  303POPC   C2B 4187   8.620   0.965   6.363  0.1764  0.1067  0.0891
  303POPC   C3B 4188   8.625   1.426   6.568  0.1485 -0.1567  0.0400
  303POPC   C4B 4189   8.800   1.561   6.975 -0.0527 -0.1709  0.3534
  304POPC   NC3 4190   9.951   1.919   4.446  0.0505  0.0738 -0.1926
  304POPC   PO4 4191  10.103   2.069   4.763  0.0460  0.2233 -0.4191
  304POPC   GL1 4192  10.490   2.006   4.984  0.1356 -0.1657 -0.2940
  304POPC   GL2 4193  10.415   1.699   5.213 -0.0122 -0.2976  0.1736
  304POPC   C1A 4194  10.841   2.175   5.197 -0.0929  0.0313  0.0476
  304POPC   D2A 4195  11.076   2.516   5.394 -0.0080 -0.1201  0.0612
  304POPC   C3A 4196  11.233   2.657   5.704  0.2125  0.1190 -0.0365
  304POPC   C4A 4197  11.160   3.052   5.904  0.1698  0.1744 -0.4998
  304POPC   C1B 4198  10.610   1.850   5.611 -0.1213 -0.0501  0.2199
  304POPC   C2B 4199  10.675   1.991   5.986 -0.1906 -0.2254 -0.1501
  304POPC   C3B 4200  10.619   1.865   6.346  0.2045  0.0257  0.2021
  304POPC   C4B 4201  10.825   1.822   6.713 -0.1902  0.1687 -0.2105
  305POPC   NC3 4202   3.100   9.618   4.669 -0.0269 -0.0767 -0.1658
  305POPC   PO4 4203   3.056   9.992   4.907 -0.0563  0.1811  0.2163
  305POPC   GL1 4204   2.886   9.986   5.453  0.1288  0.0274 -0.1555
  305POPC   GL2 4205   3.006   9.768   5.594  0.1140 -0.0260  0.2691
  305POPC   C1A 4206   2.656  10.064   5.927  0.0498  0.0992  0.1198
  305POPC   D2A 4207   2.582  10.324   6.386 -0.0607  0.2294  0.3071
  305POPC   C3A 4208   2.790  10.644   6.553 -0.3024 -0.0330 -0.3232
  305POPC   C4A 4209   2.800  10.997   6.745 -0.0517 -0.1640  0.1506
  305POPC   C1B 4210   2.926   9.608   5.921 -0.3424 -0.0833 -0.1555
  305POPC   C2B 4211   2.911   9.717   6.318  0.1724 -0.0189 -0.0481
  305POPC   C3B 4212   3.150   9.843   6.670  0.1591  0.0255 -0.1495
  305POPC   C4B 4213   3.599   9.707   6.749 -0.0234  0.3159 -0.1437
  306POPC   NC3 4214   0.454   2.239   4.084 -0.2855 -0.0642  0.1634
  306POPC   PO4 4215   0.833   2.545   4.244  0.2197  0.6552  0.0400
  306POPC   GL1 4216   1.096   2.659   4.516  0.0725  0.4395 -0.4405
  306POPC   GL2 4217   1.046   2.490   4.724 -0.0412  0.3500 -0.1159
  306POPC   C1A 4218   1.087   3.072   4.673  0.1422 -0.1861  0.0884
  306POPC   D2A 4219   0.917   3.212   5.094 -0.4195  0.2876  0.0189
  306POPC   C3A 4220   1.182   3.142   5.472  0.0942  0.0452 -0.1597
  306POPC   C4A 4221   1.452   3.061   5.857 -0.1258 -0.1907 -0.2167
  306POPC   C1B 4222   1.178   2.346   5.042  0.3454 -0.1014 -0.0512
  306POPC   C2B 4223   1.329   2.083   5.385 -0.0374  0.1815 -0.1735
  306POPC   C3B 4224   1.461   1.972   5.766 -0.3167  0.0672  0.0798
  306POPC   C4B 4225   1.508   2.040   6.237 -0.3095 -0.0168  0.0693
  307POPC   NC3 4226   0.498   3.633   3.861  0.0602 -0.4118 -0.0831
  307POPC   PO4 4227   0.256   3.310   4.082 -0.0041  0.2754 -0.3192
  307POPC   GL1 4228   0.311   3.250   4.547 -0.0334 -0.3875 -0.1066
  307POPC   GL2 4229   0.564   2.941   4.538  0.0173 -0.2536  0.1730
  307POPC   C1A 4230   0.374   3.643   4.822 -0.1676 -0.0433 -0.2139
  307POPC   D2A 4231   0.622   3.717   5.176 -0.1171 -0.0065 -0.0475
  307POPC   C3A 4232   0.468   4.053   5.387 -0.1282  0.0292  0.4179
  307POPC   C4A 4233   0.374   4.269   5.753  0.2341 -0.2965  0.1436
  307POPC   C1B 4234   0.649   2.715   5.000  0.1189 -0.0146  0.0578
  307POPC   C2B 4235   0.589   2.905   5.432 -0.1449 -0.3174 -0.1240
  307POPC   C3B 4236   0.619   3.333   5.573  0.1255 -0.0620 -0.0617
  307POPC   C4B 4237   0.639   3.662   5.694  0.2119 -0.0590  0.1416
  308POPC   NC3 4238   4.483   6.004   4.047 -0.3267  0.0624 -0.2642
  308POPC   PO4 4239   4.148   5.675   4.222  0.2190 -0.1042  0.0238
  308POPC   GL1 4240   3.804   5.560   4.579 -0.0413 -0.5043 -0.0043
  308POPC   GL2 4241   3.941   5.640   4.717 -0.4299 -0.1339  0.2550
  308POPC   C1A 4242   3.606   5.287   4.782  0.2166 -0.0621  0.1729
  308POPC   D2A 4243   3.268   5.059   5.071 -0.0403 -0.0384  0.4301
  308POPC   C3A 4244   3.220   5.006   5.477 -0.1047  0.3999 -0.0967
  308POPC   C4A 4245   3.386   5.005   5.778  0.1086  0.0490 -0.0501
  308POPC   C1B 4246   4.092   5.283   5.020 -0.1300 -0.0599  0.1499
  308POPC   C2B 4247   4.232   5.169   5.424 -0.1467 -0.1720 -0.0415
  308POPC   C3B 4248   4.501   4.984   5.783 -0.0723  0.1087  0.3664
  308POPC   C4B 4249   4.840   4.882   6.006  0.4021  0.0507 -0.0133
  309POPC   NC3 4250   8.202   8.124   5.152 -0.1484  0.2247 -0.0307
  309POPC   PO4 4251   8.366   7.602   5.242  0.0776 -0.2181  0.0099
  309POPC   GL1 4252   8.462   7.542   5.750 -0.1186  0.3026  0.4990
  309POPC   GL2 4253   8.243   7.441   5.990 -0.2283 -0.3066 -0.0001
  309POPC   C1A 4254   8.684   7.650   6.056 -0.1769 -0.2859  0.0755
  309POPC   D2A 4255   8.804   7.676   6.544 -0.0855  0.0084 -0.0372
  309POPC   C3A 4256   8.883   7.945   6.937 -0.1309  0.1034 -0.1728
  309POPC   C4A 4257   8.911   8.422   6.830  0.3892  0.1837  0.1753
  309POPC   C1B 4258   8.156   7.673   6.425 -0.2058  0.2726 -0.1552
  309POPC   C2B 4259   8.333   7.493   6.762 -0.4767  0.0069 -0.1357
  309POPC   C3B 4260   8.236   7.515   7.202  0.0833 -0.0403 -0.3818
  309POPC   C4B 4261   8.248   7.699   7.522  0.0932  0.0949  0.2225
  310POPC   NC3 4262   3.421   7.510   4.785 -0.0313  0.1037 -0.1180
  310POPC   PO4 4263   3.378   7.719   5.126  0.2766 -0.0500 -0.0287
  310POPC   GL1 4264   3.613   7.777   5.402  0.0372 -0.2075  0.2599
  310POPC   GL2 4265   3.869   7.661   5.525  0.3571 -0.2049  0.1918
  310POPC   C1A 4266   3.400   7.816   5.760 -0.0618  0.0021  0.1319
  310POPC   D2A 4267   3.396   7.601   6.232  0.0683 -0.0957  0.1417
  310POPC   C3A 4268   3.809   7.687   6.489  0.0231  0.0352 -0.1913
  310POPC   C4A 4269   4.169   7.618   6.571  0.5768  0.0270 -0.1488
  310POPC   C1B 4270   3.674   7.358   5.753 -0.0387 -0.1791  0.1846
  310POPC   C2B 4271   3.754   7.228   6.190 -0.0145 -0.0923 -0.1231
  310POPC   C3B 4272   3.646   7.098   6.580 -0.2252 -0.0908  0.1737
  310POPC   C4B 4273   3.550   6.827   6.877  0.1349 -0.1750  0.2120
  311POPC   NC3 4274   9.021  10.026   5.151 -0.0366 -0.3211 -0.1666
  311POPC   PO4 4275   9.350   9.679   5.302  0.2255 -0.1982 -0.2030
  311POPC   GL1 4276   9.178   9.965   5.605 -0.0561 -0.1684 -0.0665
  311POPC   GL2 4277   9.041   9.685   5.782 -0.4182  0.0272  0.0379
  311POPC   C1A 4278   9.114  10.158   6.040 -0.0376  0.1185  0.0052
  311POPC   D2A 4279   9.150  10.320   6.484 -0.0232 -0.4143  0.3904
  311POPC   C3A 4280   8.846  10.243   6.798 -0.2520 -0.0746 -0.0693
  311POPC   C4A 4281   8.545  10.252   7.106 -0.0006 -0.1820 -0.0977
  311POPC   C1B 4282   9.326   9.634   6.169  0.1248 -0.2145  0.1041
  311POPC   C2B 4283   9.383   9.571   6.677  0.0204  0.0177  0.0291
  311POPC   C3B 4284   9.736   9.349   6.875  0.0925  0.2283  0.1329
  311POPC   C4B 4285  10.003   9.104   7.193  0.3198  0.0193 -0.0036
  312POPC   NC3 4286   1.113   7.322   4.594 -0.1520 -0.4094 -0.0498
  312POPC   PO4 4287   1.365   7.669   4.569  0.0798 -0.0113  0.0014
  312POPC   GL1 4288   1.318   7.611   5.008  0.0711  0.2936  0.1732
  312POPC   GL2 4289   1.198   7.248   5.093  0.1291 -0.0788 -0.1411
  312POPC   C1A 4290   1.484   7.685   5.378 -0.0863  0.0345  0.0972
  312POPC   D2A 4291   1.337   7.713   5.893  0.1355  0.0750 -0.2483
  312POPC   C3A 4292   1.530   7.966   6.182  0.2148  0.1328  0.0383
  312POPC   C4A 4293   1.759   8.191   6.424  0.0092 -0.4264  0.1366
  312POPC   C1B 4294   1.228   7.246   5.604  0.2587 -0.0162 -0.0872
  312POPC   C2B 4295   1.140   6.997   5.990  0.2339 -0.0504 -0.0239
  312POPC   C3B 4296   1.048   6.886   6.436 -0.1863 -0.0806 -0.1013
  312POPC   C4B 4297   1.206   7.139   6.715  0.2424 -0.1619  0.1552
  313POPC   NC3 4298   3.979   0.423   4.712  0.1219  0.0242  0.0350
  313POPC   PO4 4299   4.374   0.428   4.933  0.1006 -0.0302 -0.2618
  313POPC   GL1 4300   4.223   0.339   5.342 -0.3165 -0.0746  0.2772
  313POPC   GL2 4301   4.457   0.150   5.501 -0.0840  0.0299 -0.0028
  313POPC   C1A 4302   4.141   0.371   5.808 -0.0975  0.1649 -0.2252
  313POPC   D2A 4303   4.151   0.301   6.240  0.1237  0.0878 -0.1598
  313POPC   C3A 4304   4.424   0.446   6.510  0.0012 -0.1160 -0.0021
  313POPC   C4A 4305   4.503   0.587   6.907  0.0286  0.2608 -0.1145
  313POPC   C1B 4306   4.347  -0.106   5.786  0.0614  0.4663 -0.2956
  313POPC   C2B 4307   3.923  -0.108   6.002 -0.3625  0.0703 -0.2741
  313POPC   C3B 4308   3.573  -0.164   6.291  0.3318  0.2981 -0.0512
  313POPC   C4B 4309   3.334  -0.293   6.015  0.2569  0.2317 -0.2635
  314POPC   NC3 4310   0.235   9.151   4.826 -0.2269 -0.0212 -0.4073
  314POPC   PO4 4311   0.345   8.831   5.137  0.5013 -0.0267  0.4107
  314POPC   GL1 4312   0.326   8.942   5.550  0.0268 -0.2482 -0.2091
  314POPC   GL2 4313   0.453   9.170   5.742 -0.1292 -0.1710 -0.3527
  314POPC   C1A 4314   0.307   8.645   5.942 -0.1639 -0.0140  0.1107
  314POPC   D2A 4315   0.106   8.301   6.186 -0.0459 -0.0520  0.0675
  314POPC   C3A 4316   0.121   8.345   6.632  0.0200 -0.4288  0.1958
  314POPC   C4A 4317   0.432   8.339   6.837  0.2748 -0.1061 -0.1440
  314POPC   C1B 4318   0.621   9.298   6.171 -0.0100  0.0113 -0.0414
  314POPC   C2B 4319   0.794   8.967   6.326  0.0285  0.1893 -0.2250
  314POPC   C3B 4320   1.170   8.878   6.371 -0.2141  0.2262  0.1921
  314POPC   C4B 4321   1.580   8.902   6.489  0.3217  0.3939  0.1753
  315POPC   NC3 4322   1.630   1.002   4.451  0.1021 -0.0411  0.0363
  315POPC   PO4 4323   1.742   0.675   4.524 -0.1880  0.0813 -0.0663
  315POPC   GL1 4324   1.744   0.408   4.939  0.1450 -0.0880  0.0113
  315POPC   GL2 4325   1.931   0.400   5.293 -0.0935  0.0502  0.2935
  315POPC   C1A 4326   1.390   0.394   5.173  0.0994  0.1653 -0.0065
  315POPC   D2A 4327   1.153   0.505   5.551  0.2605 -0.0655 -0.0900
  315POPC   C3A 4328   1.280   0.558   5.909 -0.2383  0.0317 -0.3053
  315POPC   C4A 4329   1.279   0.691   6.311  0.1063  0.0434  0.2014
  315POPC   C1B 4330   1.708   0.579   5.619 -0.1186  0.0060 -0.1494
  315POPC   C2B 4331   1.763   0.703   6.094 -0.1063  0.0261 -0.3989
  315POPC   C3B 4332   1.681   0.670   6.526 -0.1619 -0.0939 -0.2632
  315POPC   C4B 4333   1.645   0.399   6.891 -0.1566 -0.1440 -0.3568
  316POPC   NC3 4334   8.176   5.566   5.221 -0.2914  0.1337  0.1862
  316POPC   PO4 4335   8.486   5.863   5.256  0.0418  0.2813  0.0193
  316POPC   GL1 4336   8.489   5.762   5.730 -0.3105  0.3278  0.1735
  316POPC   GL2 4337   8.795   5.897   5.850  0.0683  0.0499 -0.2373
  316POPC   C1A 4338   8.513   5.504   6.126 -0.1037 -0.3035 -0.3385
  316POPC   D2A 4339   8.598   5.194   6.454  0.0242 -0.0811  0.2225
  316POPC   C3A 4340   9.036   5.010   6.611  0.0574 -0.0192 -0.1706
  316POPC   C4A 4341   9.419   4.813   6.524  0.1851 -0.1857  0.0792
  316POPC   C1B 4342   8.830   5.881   6.396 -0.1734 -0.3514  0.1275
  316POPC   C2B 4343   8.976   6.258   6.502  0.0885  0.0513 -0.3145
  316POPC   C3B 4344   9.217   6.620   6.814  0.1940  0.0928 -0.2339
  316POPC   C4B 4345   9.516   6.593   7.102 -0.0941  0.4477 -0.1888
  317POPC   NC3 4346   8.096   4.383   5.383 -0.3191 -0.0072  0.2629
  317POPC   PO4 4347   8.255   4.080   5.075 -0.1859  0.3756  0.1072
  317POPC   GL1 4348   8.486   4.046   5.454  0.0929  0.3814  0.0301
  317POPC   GL2 4349   8.723   4.264   5.628 -0.0496  0.0736  0.1506
  317POPC   C1A 4350   8.506   3.690   5.693 -0.1320 -0.0642  0.1886
  317POPC   D2A 4351   8.712   3.336   5.823  0.0551 -0.2104 -0.2499
  317POPC   C3A 4352   9.191   3.220   5.950  0.0433  0.1856 -0.1516
  317POPC   C4A 4353   9.275   2.875   6.124  0.0420  0.0838 -0.3522
  317POPC   C1B 4354   8.821   4.275   6.053 -0.1313  0.1369 -0.1762
  317POPC   C2B 4355   9.023   4.037   6.447 -0.0224 -0.0863  0.2690
  317POPC   C3B 4356   8.890   3.691   6.747  0.0997  0.2657  0.2327
  317POPC   C4B 4357   8.827   3.487   7.090 -0.2365  0.0843  0.0782
  318POPC   NC3 4358   7.525   6.948   5.647 -0.1764  0.1632  0.4717
  318POPC   PO4 4359   7.472   7.411   5.619  0.0962 -0.0358 -0.1716
  318POPC   GL1 4360   7.321   7.488   6.011  0.2096  0.1854 -0.0846
  318POPC   GL2 4361   7.342   7.144   6.048  0.1903  0.0456  0.1613
  318POPC   C1A 4362   6.982   7.691   6.218 -0.1914  0.0679 -0.0031
  318POPC   D2A 4363   6.656   7.634   6.487  0.1506  0.1675  0.1615
  318POPC   C3A 4364   6.409   7.884   6.266  0.4667  0.4826 -0.1627
  318POPC   C4A 4365   6.000   8.087   6.478 -0.1530  0.3533  0.0483
  318POPC   C1B 4366   7.641   7.433   6.349 -0.2198  0.0823 -0.0435
  318POPC   C2B 4367   7.891   7.290   6.712  0.0520 -0.1233  0.1523
  318POPC   C3B 4368   8.092   7.096   6.992 -0.1491 -0.0137 -0.1519
  318POPC   C4B 4369   8.483   7.065   7.307  0.1676 -0.1105  0.1668
  319W        W 4370   5.866   8.420  12.611 -0.1284  0.1360 -0.1671
  320W        W 4371   2.284   7.789  13.610 -0.1912  0.3838 -0.1131
  321W        W 4372   0.434   6.353  10.108 -0.1022  0.0259 -0.0656
  322W        W 4373   1.243   7.056  13.600  0.0980 -0.3939  0.3670
  323W        W 4374   4.001   2.999   2.364 -0.1099 -0.5437 -0.2012
  324W        W 4375   6.373   6.529   1.257 -0.1729  0.0760 -0.2471
  325W        W 4376   8.935   4.148  13.686 -0.6215 -0.0413  0.3039
  326W        W 4377   8.293   2.938  12.497 -0.0401 -0.0574 -0.0259
  327W        W 4378   3.684   4.323   3.722 -0.2257  0.2047  0.1713
  328W        W 4379   4.900   8.699   3.921  0.1710  0.1399 -0.0653
  329W        W 4380   0.842   1.797  10.256 -0.1075  0.0162 -0.1933
  330W        W 4381   7.292   8.405  13.072  0.1033 -0.2404 -0.1433
  331W        W 4382   7.296   0.223   1.943 -0.0820  0.2093  0.1463
  332W        W 4383   2.457   6.910   0.789 -0.1229 -0.2775 -0.1849
  333W        W 4384   1.272   7.508   2.310 -0.0092  0.0480  0.1027
  334W        W 4385   5.688   9.158   0.984  0.0122  0.2647  0.1701
  335W        W 4386   8.747   0.668   2.018  0.0756 -0.3323  0.1627
  336W        W 4387   0.886   4.031   0.070  0.1389 -0.1218  0.5543
  337W        W 4388   2.924   6.703   3.858 -0.0936 -0.3432  0.2666
  338W        W 4389   6.300   4.635  10.420  0.1457  0.2315  0.4382
  339W        W 4390   3.437   4.141  11.980  0.1926 -0.2744 -0.0508
  340W        W 4391   0.497   6.866  12.528 -0.1157  0.0096 -0.2613
  341W        W 4392   8.139   4.157  11.821 -0.0842 -0.0166 -0.1624
  342W        W 4393   1.356   1.080   0.235  0.2019 -0.2770 -0.0344
  343W        W 4394   2.052   9.361   3.585  0.2415  0.1386 -0.3077
  344W        W 4395   7.400   4.900  12.042  0.0682 -0.0359  0.0981
  345W        W 4396   1.065   6.394   0.456  0.0233 -0.2353  0.1028
  346W        W 4397   9.406   2.213  11.264 -0.0816 -0.0193 -0.0354
  347W        W 4398   2.895   3.737  10.791 -0.1499 -0.0759 -0.5299
  348W        W 4399   4.149   8.038   0.064  0.2885 -0.2627  0.1555
  349W        W 4400   5.980   8.239   3.977 -0.0296 -0.1117 -0.2873
  350W        W 4401   8.878   5.599   4.348 -0.2547  0.1439 -0.1069
  351W        W 4402   4.554   4.876  13.665 -0.1947  0.0450 -0.0816
  352W        W 4403   6.595   3.888   1.985 -0.0869 -0.4290  0.3992
  353W        W 4404   4.873   2.029   2.684  0.0318 -0.0454 -0.0250
  354W        W 4405   1.467   1.767  12.154  0.1577 -0.0985 -0.5805
  355W        W 4406   1.682   6.935   3.453  0.1462  0.1932 -0.0486
  356W        W 4407   9.636   0.361   2.948  0.3646 -0.0951 -0.0553
  357W        W 4408   3.379   3.113  10.857 -0.0227  0.0605  0.0531
  358W        W 4409   0.910   2.280   2.992 -0.2425  0.2303 -0.1536
  359W        W 4410   0.210   0.663   9.992 -0.1135  0.1213  0.0116
  360W        W 4411   7.924   9.479   0.311 -0.0761 -0.0230  0.1295
  361W        W 4412   8.065   5.238   2.168  0.2234  0.1603  0.0184
  362W        W 4413   4.760   1.558   9.758  0.0039  0.0672 -0.5610
  363W        W 4414   0.705   4.411  13.679 -0.0955 -0.0471  0.1453
  364W        W 4415   4.020   3.568  11.611 -0.1747 -0.4230 -0.2008
  365W        W 4416   1.186   2.354   9.731  0.3653  0.2274 -0.3281
  366W        W 4417   2.500   3.346   3.181  0.2712  0.0507 -0.1981
  367W        W 4418   1.785   2.128   0.908 -0.0751  0.2568 -0.4812
  368W        W 4419   8.313   7.498  11.290  0.1656 -0.0160  0.0557
  369W        W 4420   3.810   1.191   9.954  0.1271  0.1610 -0.0397
  370W        W 4421   6.576   3.712   3.129  0.1867  0.0400 -0.1078
  371W        W 4422   4.273  10.166   4.908 -0.1832  0.2375 -0.2712
  372W        W 4423   5.906   3.226   0.664  0.2350 -0.0315 -0.2327
  373W        W 4424   0.144   1.466   3.683 -0.5110  0.1699 -0.0873
  374W        W 4425   8.182   0.761   0.479 -0.1450  0.0160 -0.1979
  375W        W 4426   3.784   9.685   2.721  0.0501 -0.1077  0.0147
  376W        W 4427   6.145   4.747  12.700  0.1888  0.0513 -0.0085
  377W        W 4428   3.904   3.640  12.617 -0.0601 -0.1719 -0.2622
  378W        W 4429   7.909   9.455   3.805  0.3105 -0.0635 -0.1430
  379W        W 4430   6.248   3.452  11.250 -0.2126 -0.0234 -0.0197
  380W        W 4431   4.205   7.396   2.247  0.1556 -0.0341  0.1733
  381W        W 4432   7.611   3.063   0.579 -0.0418 -0.0929  0.0895
  382W        W 4433   4.818   8.693   1.150  0.3121  0.1272  0.3318
  383W        W 4434   4.061   3.781  13.130 -0.2641  0.1864 -0.1702
  384W        W 4435   8.872   9.588   0.798  0.0542  0.1242  0.0655
  385W        W 4436   9.690   3.156  12.940 -0.1119  0.4150 -0.2310
  386W        W 4437   6.860   5.270   0.205  0.1200  0.1897  0.0742
  387W        W 4438   5.027   7.331  10.794  0.2416  0.1522 -0.0810
  388W        W 4439   5.652   5.319  12.222 -0.0512  0.1416  0.0611
  389W        W 4440   3.560   3.223   1.577  0.0118  0.2511 -0.0485
  390W        W 4441   5.364   9.705   0.359 -0.1863  0.1026  0.0542
  391W        W 4442   6.691   9.888  10.776 -0.1732 -0.0266 -0.1168
  392W        W 4443   2.139   6.372   0.340 -0.2142  0.2066  0.4933
  393W        W 4444   5.986   5.913   3.396  0.1404  0.2217 -0.1481
  394W        W 4445   2.926   6.557  11.061  0.2932 -0.1892 -0.1818
  395W        W 4446   8.371   0.312  10.886  0.1478 -0.2046  0.0092
  396W        W 4447   8.087   9.622   4.980  0.1080 -0.3808  0.5337
  397W        W 4448   9.003   0.211   5.517  0.2421  0.0045  0.0792
  398W        W 4449   5.248   1.660   3.585 -0.1606  0.0392  0.2614
  399W        W 4450   7.866   9.860   3.049 -0.0313 -0.1013  0.0141
  400W        W 4451   5.335   7.075  10.477 -0.1331  0.0608 -0.1812
  401W        W 4452   7.061   5.978   2.325 -0.3826  0.2086 -0.0495
  402W        W 4453   6.382   1.003  10.938 -0.1814  0.1949 -0.3565
  403W        W 4454   3.881   0.274   9.268 -0.2270 -0.1101  0.1731
  404W        W 4455   0.035   5.369  13.777  0.1218 -0.1091 -0.1602
  405W        W 4456   3.597   8.745   3.451 -0.0817  0.0194  0.3835
  406W        W 4457   6.455   2.041   4.509  0.3019  0.1435 -0.2796
  407W        W 4458   6.332   2.638  10.584  0.2870 -0.3520  0.0881
  408W        W 4459   5.732   7.705  13.320 -0.3428  0.4671  0.1023
  409W        W 4460   7.783   9.652   1.654 -0.0606  0.3906 -0.1489
  410W        W 4461   3.649   7.016   8.936  0.1261 -0.0441  0.0055
  411W        W 4462   7.801   0.125   3.304  0.3506 -0.0791 -0.1409
  412W        W 4463   4.719   0.882   2.091  0.1221  0.0811 -0.1723
  413W        W 4464   4.403   2.362  12.136 -0.0240 -0.1556  0.0154
  414W        W 4465   6.829   8.225   2.220  0.1843 -0.0004 -0.3445
  415W        W 4466   0.599   8.460   1.624 -0.1713  0.0939  0.2086
  416W        W 4467   7.491   1.127   9.040  0.0968  0.0859 -0.2363
  417W        W 4468   2.066   3.158  10.508  0.3728  0.0299  0.0717
  418W        W 4469   7.657   8.033   1.825  0.2196  0.0348 -0.0454
  419W        W 4470   6.648   4.691   1.304 -0.0264 -0.1148  0.1793
  420W        W 4471   7.123   8.538  12.138  0.0543 -0.0496 -0.0226
  421W        W 4472   0.718   0.647  11.343  0.0205 -0.1523 -0.0138
  422W        W 4473   4.758   8.426   5.065  0.0764  0.0430  0.1131
  423W        W 4474   0.872   9.421   0.600  0.0952 -0.3299  0.1729
  424W        W 4475   4.394   7.606   0.172 -0.2357  0.0792  0.4066
  425W        W 4476   4.977   7.088   1.183  0.0100  0.6762 -0.0278
  426W        W 4477   3.430   3.668   2.288  0.0887  0.5147  0.1363
  427W        W 4478  10.042   1.911  13.588 -0.0393  0.0148 -0.0600
  428W        W 4479   8.421   3.248   1.387 -0.0553  0.0316 -0.1694
  429W        W 4480  10.052   1.701   1.848  0.0956 -0.2113 -0.0087
  430W        W 4481   3.916   4.095  11.730  0.0598  0.0085 -0.3748
  431W        W 4482   6.304   7.700  12.801  0.0955  0.2375  0.4144
  432W        W 4483   3.162   5.870  12.221 -0.0785  0.3356 -0.3624
  433W        W 4484   1.411   6.629  11.583 -0.1429  0.1288 -0.0795
  434W        W 4485   3.318   7.542  10.977 -0.0383 -0.0451 -0.1818
  435W        W 4486   2.009   8.474   4.409 -0.3724  0.2053  0.2829
  436W        W 4487   6.234   2.840  12.104  0.5826 -0.1827 -0.0749
  437W        W 4488   3.684   6.896   3.583 -0.2953 -0.2236 -0.1433
  438W        W 4489   2.378   4.834  11.087  0.0053 -0.0874 -0.0594
  439W        W 4490   9.046   8.803   1.145 -0.0742 -0.0230 -0.0049
  440W        W 4491   1.717   5.881   2.034  0.0630  0.1338  0.2440
  441W        W 4492   3.949   1.985   3.811 -0.1996 -0.2598  0.2118
  442W        W 4493   4.091  10.029  10.031  0.4874  0.0327  0.0350
  443W        W 4494   8.799   3.143  11.663  0.0184  0.3957 -0.0440
  444W        W 4495   1.016   1.272  13.818  0.0604  0.1607  0.4609
  445W        W 4496   8.540   1.153   2.121  0.0355  0.0544  0.2234
  446W        W 4497   3.537   9.373  12.001  0.0330 -0.0012  0.0510
  447W        W 4498   2.026   8.281   1.415 -0.0870  0.0555 -0.1719
  448W        W 4499   7.156   8.707   3.953 -0.1837  0.1384  0.1601
  449W        W 4500   3.808  10.144   1.895  0.2377  0.4316  0.0796
  450W        W 4501   8.707   3.775  10.540  0.3472 -0.0851 -0.0205
  451W        W 4502   5.965   5.944  11.383  0.2338 -0.0635 -0.1197
  452W        W 4503   0.066   5.174   9.932 -0.1609  0.0060  0.0025
  453W        W 4504   9.877   8.421  11.531 -0.0856  0.0270  0.3042
  454W        W 4505   1.709   7.602  11.564  0.0022 -0.1189 -0.1437
  455W        W 4506   4.034   8.462   2.294 -0.1042 -0.2005  0.2527
  456W        W 4507   3.883   1.779   1.893 -0.1767  0.1026 -0.0713
  457W        W 4508   7.263   4.961  11.018  0.1253 -0.0604  0.0431
  458W        W 4509   9.197   9.280   3.162  0.0475 -0.0474 -0.4080
  459W        W 4510   8.512   8.590  10.655 -0.2975  0.1145 -0.1132
  460W        W 4511   6.913   9.911   1.175 -0.0221  0.4308  0.0149
  461W        W 4512   7.637   5.964   3.655  0.2246  0.1754  0.0288
  462W        W 4513   9.204   1.269  11.497 -0.1168 -0.0891 -0.1319
  463W        W 4514   1.359   0.078   4.563  0.0301  0.4264 -0.2401
  464W        W 4515   7.450   9.239   2.655  0.1316 -0.0791 -0.2487
  465W        W 4516   4.238   1.859   3.399  0.1096  0.0579 -0.0254
  466W        W 4517  10.133   7.392   1.561 -0.3095 -0.1900 -0.3051
  467W        W 4518   1.622   9.286   3.787  0.0975  0.2618  0.2252
  468W        W 4519   7.195   6.906  13.526  0.1245 -0.0478 -0.2526
  469W        W 4520   4.994   4.466   1.944 -0.3767 -0.2587 -0.5074
  470W        W 4521   4.412   7.991  11.015 -0.1905 -0.0394 -0.1354
  471W        W 4522   5.121   1.469   1.526  0.1687  0.1413 -0.1606
  472W        W 4523   4.791   2.722  12.004 -0.1891 -0.1666 -0.0566
  473W        W 4524   1.419   3.838  11.620 -0.0921  0.1429 -0.1659
  474W        W 4525   4.833   6.415   4.092  0.0623 -0.0797  0.1828
  475W        W 4526   7.214   7.030  12.061  0.1987  0.4166 -0.2761
  476W        W 4527   6.114  10.204   4.958 -0.4003  0.0082 -0.1948
  477W        W 4528   5.186   0.993  13.474 -0.0174 -0.2896 -0.2345
  478W        W 4529   7.588   8.886   2.162  0.0065 -0.5241 -0.1760
  479W        W 4530   7.285   5.815   1.842  0.1078  0.2121 -0.0041
  480W        W 4531  10.091   8.918   5.337 -0.1824 -0.3259 -0.2185
  481W        W 4532   2.713   0.445  11.339  0.0248 -0.0951 -0.0196
  482W        W 4533   6.191   3.419  13.473  0.1229 -0.3461  0.0982
  483W        W 4534   7.381   6.878   2.888 -0.0184  0.0259  0.0023
  484W        W 4535   6.297   8.342   2.211  0.2053  0.2194 -0.0966
  485W        W 4536   8.232   8.033  11.643 -0.2687 -0.0888 -0.0267
  486W        W 4537   2.997   0.309   3.939 -0.1604 -0.0686  0.0797
  487W        W 4538   5.839   5.648  12.640  0.3650  0.2218 -0.1098
  488W        W 4539   1.112   2.181   2.537 -0.1410  0.1933  0.1096
  489W        W 4540   7.501   6.687  11.248  0.1139  0.1927 -0.0729
  490W        W 4541   0.063   7.998  12.177  0.0644 -0.1362 -0.0493
  491W        W 4542   8.464   6.893   4.585  0.1303 -0.0671 -0.0309
  492W        W 4543   3.169   4.697   3.108 -0.0052 -0.0295 -0.0133
  493W        W 4544   2.699   5.321  13.249  0.1320  0.0760  0.0890
  494W        W 4545   2.258   5.014   3.743 -0.1496  0.0558  0.0990
  495W        W 4546   0.287  10.140  10.357  0.1655  0.0108 -0.0667
  496W        W 4547   3.827   0.102   1.336 -0.4319  0.1857  0.1157
  497W        W 4548   8.322   5.007  10.983  0.1574 -0.1480 -0.2009
  498W        W 4549   2.526   6.058   0.059 -0.3100 -0.2657 -0.0783
  499W        W 4550   3.420   6.124   2.927  0.0094  0.2106 -0.0675
  500W        W 4551   4.127   9.342   4.107  0.3562 -0.2176 -0.0717
  501W        W 4552   8.640   8.033   5.647  0.0840 -0.1325  0.0484
  502W        W 4553   3.030   9.268   5.468 -0.1656 -0.1074 -0.3184
  503W        W 4554   8.656   7.326   9.644 -0.0718  0.1150  0.1571
  504W        W 4555   1.790   5.313  10.287  0.0496 -0.0855  0.1153
  505W        W 4556   1.856   9.494   4.608  0.2143  0.1454  0.1380
  506W        W 4557   9.035   6.414   0.282  0.2707  0.2275 -0.1667
  507W        W 4558  10.190   2.948   3.367  0.0753 -0.1391 -0.0867
  508W        W 4559   8.175   5.975   3.462  0.0395  0.0847  0.1565
  509W        W 4560   9.010   8.199   1.792 -0.1341  0.0946 -0.1623
  510W        W 4561   8.689   3.728   0.973  0.0724 -0.0840  0.1394
  511W        W 4562   7.840   1.785  10.090 -0.2430  0.1279  0.4224
  512W        W 4563   4.303   0.074  12.967 -0.1729  0.3009 -0.1593
  513W        W 4564   5.582   1.550  13.602 -0.0628 -0.2487 -0.1574
  514W        W 4565   0.283   5.380  12.033  0.0307  0.2987  0.0317
  515W        W 4566   7.515   6.075  13.868  0.1413 -0.3222  0.0056
  516W        W 4567   0.715   1.818   2.706 -0.0744  0.3547  0.0196
  517W        W 4568   6.020   3.725   1.634 -0.1583 -0.3738  0.0960
  518W        W 4569   4.706   2.632   1.586 -0.3490 -0.0294  0.0244
  519W        W 4570   6.528   1.589   2.528 -0.2182  0.1258  0.3952
  520W        W 4571   0.168   5.183  13.264 -0.1105  0.1471 -0.1493
  521W        W 4572   0.173   8.618   0.377 -0.0584 -0.0740 -0.3586
  522W        W 4573   8.142   3.579  10.790  0.1154  0.3624  0.4237
  523W        W 4574   8.197   5.058   1.173 -0.0204  0.1094  0.1004
  524W        W 4575   5.921   0.969  11.030  0.0253 -0.1269 -0.0462
  525W        W 4576   6.319   0.355  13.865  0.0170  0.3516 -0.1514
  526W        W 4577   3.956   0.743   0.360 -0.0877 -0.0111  0.1767
  527W        W 4578   1.205   6.018  12.746  0.4692  0.3126 -0.1233
  528W        W 4579   6.075   8.098   9.405 -0.2191 -0.0849  0.0852
  529W        W 4580   7.080   5.606   9.918  0.4070 -0.1689 -0.1835
  530W        W 4581   5.537   5.842   5.177 -0.0044  0.0801 -0.0861
  531W        W 4582   5.484   0.438  10.447 -0.0006 -0.3274  0.0646
  532W        W 4583   5.319   0.433  12.250  0.0887  0.0432 -0.0295
  533W        W 4584   3.231   3.552  10.538 -0.0066  0.2628 -0.0558
  534W        W 4585   4.580   4.743   2.886 -0.1541 -0.0654 -0.2007
  535W        W 4586   2.678   8.784   9.968 -0.0863 -0.1707  0.1251
  536W        W 4587   4.973   0.566   1.864 -0.1985 -0.0158  0.0056
  537W        W 4588   9.559   4.161  10.011 -0.0966  0.1713 -0.3528
  538W        W 4589   1.169   5.976   0.157  0.1727  0.0791  0.0398
  539W        W 4590   6.180   4.436  11.284  0.0523  0.0961 -0.1067
  540W        W 4591   1.988   8.641  11.596 -0.0473 -0.3445  0.0784
  541W        W 4592   6.962   5.068  12.695 -0.0639  0.1111 -0.0513
  542W        W 4593   6.036   1.047   8.600 -0.2852 -0.1093  0.0650
  543W        W 4594   7.346   2.167   1.243  0.2922  0.0027 -0.1305
  544W        W 4595   1.373   4.947   9.850  0.0849  0.1927 -0.0496
  545W        W 4596   0.976   7.626   9.789  0.1760  0.0425  0.3004
  546W        W 4597   4.299   2.751  10.694  0.0047  0.0492 -0.0324
  547W        W 4598   2.781   9.046   1.796  0.1805 -0.1521  0.0291
  548W        W 4599   2.811   7.437   2.297 -0.1311 -0.2878 -0.0816
  549W        W 4600   4.351   8.359   4.792 -0.3272  0.1133  0.1618
  550W        W 4601   7.625   5.439  10.742  0.0654  0.0878  0.2810
  551W        W 4602   7.698   5.579  12.988  0.1497 -0.1825 -0.1737
  552W        W 4603   3.467   8.427  11.428 -0.2546 -0.0097  0.1375
  553W        W 4604   5.739   3.727   4.867 -0.2078  0.0695 -0.0750
  554W        W 4605   8.673   8.146   4.966  0.1607 -0.1956 -0.0288
  555W        W 4606   8.747   9.271  12.641  0.0601 -0.3325  0.0956
  556W        W 4607   7.568   8.211  13.558 -0.3606 -0.1004 -0.0999
  557W        W 4608   5.937   8.433  11.055  0.0640 -0.1281  0.0627
  558W        W 4609   7.647   8.112   5.028  0.1144  0.0246  0.1473
  559W        W 4610   1.594   7.528   8.994 -0.1300  0.5184  0.0565
  560W        W 4611   3.821   8.722   9.650 -0.0459 -0.0447  0.0582
  561W        W 4612   7.131   3.814   4.681  0.1353 -0.0477  0.1938
  562W        W 4613   6.845   3.790   9.389  0.0211  0.1630  0.1227
  563W        W 4614   3.166   5.686  12.934 -0.2392 -0.3715  0.2698
  564W        W 4615   0.978   4.439   0.320 -0.1764 -0.0812 -0.0462
  565W        W 4616   3.876   6.824   1.869 -0.0313  0.3582 -0.0341
  566W        W 4617   9.439   6.027  10.244  0.0145 -0.4743 -0.1732
  567W        W 4618   7.424   5.890   9.199 -0.1129  0.1740  0.2493
  568W        W 4619   4.701   1.798   2.327 -0.0477 -0.0399 -0.0733
  569W        W 4620   0.471   3.205  13.690 -0.4757  0.0263  0.1906
  570W        W 4621   9.628   5.306   1.027 -0.0115 -0.2158  0.1630
  571W        W 4622   9.825   4.605   1.568  0.1126  0.1471  0.1064
  572W        W 4623  10.177   0.193   9.565 -0.1063 -0.1775 -0.3695
  573W        W 4624   2.193   9.666  13.044  0.1562  0.1925 -0.2872
  574W        W 4625   5.278   1.008   0.608  0.0643  0.3040  0.0166
  575W        W 4626   8.571   1.500   3.617 -0.1199 -0.3521 -0.1616
  576W        W 4627   8.692   7.601  11.829  0.1839 -0.2511 -0.1247
  577W        W 4628   4.755   4.509  11.649  0.0128 -0.0842 -0.2048
  578W        W 4629   6.520   6.488   2.813 -0.0902  0.3658 -0.2400
  579W        W 4630   4.147   1.958   0.612 -0.1275 -0.0307 -0.0395
  580W        W 4631   8.368   2.181   9.292 -0.1164 -0.3230  0.0016
  581W        W 4632   4.151   0.953   4.853  0.0352 -0.0743  0.3848
  582W        W 4633   1.022   3.640  12.994  0.2051 -0.2292 -0.1120
  583W        W 4634  10.146   3.425   9.637 -0.0853  0.0722  0.2131
  584W        W 4635   8.594   0.914   9.342 -0.0563  0.2483  0.0750
  585W        W 4636   4.375   8.796   2.200  0.0973  0.0387  0.2947
  586W        W 4637   2.445   3.531  13.114  0.3142 -0.2234  0.1095
  587W        W 4638   6.022   1.878  11.718  0.2262  0.0347 -0.0170
  588W        W 4639   2.555   7.891   0.494 -0.1406 -0.0252 -0.1451
  589W        W 4640   0.782   7.788   0.152 -0.0786 -0.1827 -0.0441
  590W        W 4641   3.725   4.804  10.763 -0.1336  0.2483  0.1498
  591W        W 4642   9.754   3.623  11.153 -0.0311  0.1139  0.1821
  592W        W 4643   6.463   2.955   2.874  0.0324  0.1742 -0.1985
  593W        W 4644   4.412   5.327  12.113  0.3801 -0.1147  0.2846
  594W        W 4645   6.256   1.128   3.663  0.1807  0.1396 -0.0958
  595W        W 4646   2.336   2.233   9.908  0.0285  0.0102 -0.1981
  596W        W 4647   3.490   8.192  12.815 -0.1968 -0.3312 -0.0383
  597W        W 4648   1.873   5.582  10.733 -0.1872  0.1849 -0.2232
  598W        W 4649   6.395   7.746  11.364  0.1777  0.0548 -0.2355
  599W        W 4650   0.542   1.317   3.332  0.0513 -0.1908  0.1824
  600W        W 4651   9.593   2.142  13.514 -0.3325  0.0982 -0.1645
  601W        W 4652   3.787   8.493   9.083 -0.1750 -0.0001 -0.1813
  602W        W 4653   6.285   8.458   3.603  0.0009  0.2401 -0.1383
  603W        W 4654   2.847   2.147  11.730  0.2429  0.1680  0.1471
  604W        W 4655   1.052   1.727  12.872 -0.1157 -0.1367 -0.0520
  605W        W 4656   7.801   6.723   1.443  0.2640 -0.1404  0.2879
  606W        W 4657   8.313   5.882  10.350  0.1827 -0.1581 -0.1901
  607W        W 4658   5.257   5.573  10.791  0.1376 -0.0108 -0.0551
  608W        W 4659   9.450   4.540   4.798 -0.2581  0.0050  0.1385
  609W        W 4660   9.530   8.842  10.281 -0.0040  0.1618  0.0870
  610W        W 4661   1.346   6.119   3.774 -0.0192 -0.1648 -0.0756
  611W        W 4662   6.847   0.777   2.084  0.3546  0.1682 -0.3442
  612W        W 4663   5.118   7.107  13.669  0.1318 -0.3513  0.1370
  613W        W 4664   6.531   7.141   3.110  0.2105 -0.0140 -0.2410
  614W        W 4665   4.037   8.005  10.700  0.1913  0.1314  0.2732
  615W        W 4666   0.532   6.222  12.352  0.1714  0.1292  0.2411
  616W        W 4667   1.454   7.785  12.887 -0.1318 -0.3739 -0.3600
  617W        W 4668   1.737   7.255   3.839 -0.0681  0.1035 -0.1193
  618W        W 4669   4.471   1.182  12.113 -0.2092 -0.0128 -0.1700
  619W        W 4670   1.501   7.614   9.857  0.0798  0.0240 -0.0114
  620W        W 4671   5.137   8.046  13.860 -0.0300 -0.0618 -0.1316
  621W        W 4672   2.833   6.124   1.910 -0.2032  0.1637 -0.2148
  622W        W 4673   4.774   0.257   0.155  0.3431  0.1917 -0.1121
  623W        W 4674   2.315   6.960   3.108 -0.0974  0.0529  0.1097
  624W        W 4675   3.992   0.822  12.943 -0.0587 -0.1875 -0.3326
  625W        W 4676   0.937   7.129   2.242  0.0645  0.2046 -0.0994
  626W        W 4677   1.063   9.332  11.306 -0.5142  0.1097 -0.0150
  627W        W 4678   7.868   3.642   9.222  0.0667  0.2500  0.0524
  628W        W 4679   8.235   5.394   9.816 -0.1416  0.0211 -0.0080
  629W        W 4680   7.340   0.640   5.113 -0.1391  0.0209  0.0013
  630W        W 4681   4.296   1.499  10.309 -0.2413  0.0911 -0.3102
  631W        W 4682  10.088   2.079  13.132  0.2678 -0.0293 -0.1095
  632W        W 4683   5.660   3.230  10.437  0.1364 -0.0009 -0.4697
  633W        W 4684   0.994   6.152  12.326  0.1220 -0.0613 -0.0648
  634W        W 4685   7.636   5.897   4.561 -0.2351  0.2844 -0.1814
  635W        W 4686   8.442   4.649   0.831 -0.2397  0.2383  0.0625
  636W        W 4687   8.194   4.453   9.365 -0.0461  0.1604 -0.4920
  637W        W 4688   7.765   8.712   0.884 -0.0242 -0.1908  0.1785
  638W        W 4689   2.780   6.804  10.007  0.2266  0.2132  0.2724
  639W        W 4690   2.448   7.329   0.417  0.0599 -0.1036 -0.0419
  640W        W 4691   4.034   1.204   0.006  0.1769  0.2947 -0.0652
  641W        W 4692   1.807   1.200   9.685 -0.4217 -0.0600  0.1774
  642W        W 4693   7.007   1.546   8.958 -0.1911  0.3584 -0.1702
  643W        W 4694   2.314   7.651  10.491  0.2906  0.2604  0.0575
  644W        W 4695   0.361   2.985   1.664 -0.1557  0.0050 -0.1556
  645W        W 4696   2.594   3.959  10.494  0.3131  0.0713  0.4316
  646W        W 4697   8.527   1.758   2.013  0.0107 -0.0294  0.3607
  647W        W 4698   8.270   2.749  11.857  0.0069 -0.0062  0.1316
  648W        W 4699   9.150   6.744  12.830 -0.3272 -0.1075  0.2526
  649W        W 4700   7.077   7.045   4.718 -0.0016  0.0566  0.0049
  650W        W 4701   6.555   6.183   4.104  0.2145  0.2135  0.1337
  651W        W 4702   9.893   6.387  11.641 -0.0887 -0.1224  0.2430
  652W        W 4703   3.087   1.829  12.083  0.4465 -0.2589  0.0933
  653W        W 4704   2.508   5.901  12.740  0.2406 -0.3716 -0.2692
  654W        W 4705   0.268  10.018  12.688 -0.0101  0.0869 -0.1220
  655W        W 4706   5.539   0.759  13.186 -0.1279  0.1558 -0.0662
  656W        W 4707   0.606   0.267   4.476 -0.1767 -0.0277  0.0801
  657W        W 4708   3.328   0.461   2.270  0.2887  0.0179 -0.0843
  658W        W 4709   4.398   3.007  12.827  0.0442 -0.0482 -0.0677
  659W        W 4710   7.846   8.404   2.165  0.0592 -0.0727  0.0568
  660W        W 4711   9.895   8.531  10.442  0.3034 -0.2177  0.2170
  661W        W 4712   2.582   1.882  13.911  0.0863 -0.0277 -0.0698
  662W        W 4713   6.174   8.978  11.956 -0.0937  0.0616 -0.1481
  663W        W 4714   0.205   6.048  10.421  0.0194  0.2285 -0.1376
  664W        W 4715   8.064   6.886   2.244  0.2020 -0.0210 -0.0173
  665W        W 4716   1.047   5.145   0.859  0.0558 -0.1304 -0.0857
  666W        W 4717   9.247   5.309  12.934 -0.0070 -0.1083  0.1763
  667W        W 4718   7.102   2.742  11.047 -0.0078 -0.0650  0.0150
  668W        W 4719   8.384   5.195   4.382 -0.0948  0.0587 -0.2818
  669W        W 4720   8.376   2.280   4.763  0.2837  0.0650 -0.2702
  670W        W 4721   8.786   3.572   1.523  0.2969  0.2066  0.2535
  671W        W 4722   9.179   9.492  12.486  0.0902  0.1507 -0.0353
  672W        W 4723   8.908   7.870   1.376 -0.0498  0.0849  0.1706
  673W        W 4724   8.605   3.250  10.596 -0.0381 -0.1027 -0.3860
  674W        W 4725   1.500   8.156  13.639  0.1487 -0.0778 -0.3253
  675W        W 4726   7.730   9.163  12.171  0.2296  0.1416 -0.2290
  676W        W 4727   2.211   0.393   0.934 -0.2922 -0.1453 -0.0456
  677W        W 4728   5.615   5.945  13.015 -0.0323  0.1245  0.0902
  678W        W 4729   2.840   5.364   3.765  0.0741  0.1302  0.0012
  679W        W 4730   1.637   6.624   2.509 -0.2272 -0.0772  0.1941
  680W        W 4731   7.884   1.214  12.339  0.0342  0.0434 -0.2485
  681W        W 4732   6.544   5.015  11.459 -0.0095  0.1546  0.2220
  682W        W 4733   3.289   7.055   3.917 -0.1173 -0.0365  0.0523
  683W        W 4734   8.996   8.841  12.521 -0.3157 -0.0760 -0.1888
  684W        W 4735   4.474   8.120   4.265 -0.0879 -0.0113 -0.2903
  685W        W 4736   8.133   5.087   8.658 -0.0268  0.2856  0.0146
  686W        W 4737   8.786   6.639   0.672 -0.0851 -0.1854  0.2886
  687W        W 4738   5.724   8.857  13.928 -0.2968 -0.0838 -0.0789
  688W        W 4739   7.487   3.185  10.325 -0.0189 -0.1104  0.3314
  689W        W 4740   5.121   4.232  13.885 -0.1257 -0.4880  0.0085
  690W        W 4741   1.615   4.847   0.007  0.0237  0.1483 -0.0842
  691W        W 4742   1.035   9.398  12.201 -0.0057  0.1231  0.2142
  692W        W 4743   7.871   3.652   4.149 -0.3499  0.1161  0.1450
  693W        W 4744   6.965   2.089   0.684  0.0903 -0.3142 -0.2536
  694W        W 4745   9.486   8.631   4.705  0.0870 -0.2273 -0.0180
  695W        W 4746   9.719   9.776  13.739 -0.1739  0.1408  0.0629
  696W        W 4747   7.530   6.135   2.353 -0.0302  0.0585 -0.0748
  697W        W 4748   8.876  10.010  10.445 -0.2362 -0.1248  0.1031
  698W        W 4749   3.855   5.735   2.108 -0.1225 -0.1712 -0.0281
  699W        W 4750   3.755   3.985   3.330 -0.2540  0.0260  0.2805
  700W        W 4751   6.538   0.115  11.230  0.5740  0.1186  0.2397
  701W        W 4752   8.839   3.486   2.465 -0.1956 -0.2303 -0.0199
  702W        W 4753   2.163   2.367  12.165  0.0500  0.3800  0.1202
  703W        W 4754   3.056   8.861   0.364  0.2010 -0.0846 -0.2333
  704W        W 4755   3.818   1.451  10.405  0.2145 -0.0160 -0.1413
  705W        W 4756   9.631   1.680   9.690 -0.5251 -0.0189  0.0120
  706W        W 4757   1.412   9.285   9.974  0.0441  0.0160 -0.1583
  707W        W 4758   8.459   3.281   0.897  0.1095  0.1582  0.0723
  708W        W 4759   4.852   4.487   1.481  0.0277 -0.0578 -0.0293
  709W        W 4760   9.814   8.015  11.081 -0.0676 -0.0113  0.0010
  710W        W 4761   8.074   1.047   2.406 -0.5572 -0.2792 -0.1640
  711W        W 4762   3.241   0.161   0.371 -0.0081  0.0920  0.2602
  712W        W 4763   7.611   9.592   4.834  0.1194  0.6019 -0.1372
  713W        W 4764  10.052   3.981   3.273 -0.0888  0.1814  0.0377
  714W        W 4765   4.374   8.826  11.644  0.1981  0.0774 -0.2221
  715W        W 4766   3.085   6.901  13.643  0.2792  0.0497  0.0963
  716W        W 4767   6.700   0.082   1.415 -0.2310  0.2534  0.0292
  717W        W 4768   3.866   2.271   0.976 -0.0624  0.0459 -0.1484
  718W        W 4769   0.540   4.264  11.974  0.0662 -0.0880  0.1334
  719W        W 4770   4.940   2.252  10.737  0.1276 -0.1799  0.4354
  720W        W 4771   7.395   3.538   2.597  0.2132 -0.1569 -0.0146
  721W        W 4772   5.007   4.693   9.044  0.1561  0.1233  0.1027
  722W        W 4773   4.768   0.892   4.224 -0.3631 -0.0014 -0.0026
  723W        W 4774   9.519   7.668   0.429 -0.1084  0.1112  0.1312
  724W        W 4775   8.040   8.183   3.236 -0.0001 -0.2387  0.1056
  725W        W 4776   8.930   9.647   1.929 -0.2352  0.2350 -0.1685
  726W        W 4777   7.919   5.672   2.507 -0.1803  0.3926  0.0108
  727W        W 4778   9.807   9.044   3.051 -0.1064  0.0861 -0.2422
  728W        W 4779   4.973   6.357  12.685 -0.1432  0.0491 -0.0672
  729W        W 4780   0.275   2.948   0.240 -0.5166  0.2364  0.4462
  730W        W 4781   5.694   2.314  12.787  0.0112 -0.2883  0.1144
  731W        W 4782   2.052   4.257  10.465  0.0325  0.0121  0.5493
  732W        W 4783   5.789   8.009   2.179  0.1374  0.0955 -0.0600
  733W        W 4784   5.254   7.668   0.339 -0.0398 -0.1321  0.0371
  734W        W 4785   3.918   6.222  12.494  0.0210  0.3019 -0.2443
  735W        W 4786   9.730   9.083   0.625  0.2805  0.0939  0.1481
  736W        W 4787   2.779   9.627   1.601  0.0482  0.0745  0.0745
  737W        W 4788   3.688   8.403  12.174  0.1236  0.0660  0.0887
  738W        W 4789   0.024   5.585  10.706  0.3492 -0.3636 -0.2346
  739W        W 4790   1.217   0.193   3.529  0.1060  0.4353 -0.0386
  740W        W 4791   0.373   1.533   0.374 -0.1228  0.2846  0.1509
  741W        W 4792   1.918   8.163   3.374  0.0481 -0.6809 -0.0394
  742W        W 4793   4.510   0.555   3.520  0.2179  0.0259  0.0204
  743W        W 4794   0.886   0.361  12.352 -0.0173  0.3204  0.1217
  744W        W 4795   2.710   9.931   4.490  0.1128  0.0995  0.0557
  745W        W 4796   2.383   6.112   9.785 -0.2999  0.0596  0.0036
  746W        W 4797   8.404   0.053   2.618  0.1288  0.2177 -0.0072
  747W        W 4798   8.534   9.827   2.269 -0.1960 -0.1953 -0.2602
  748W        W 4799   8.835   1.889  10.091  0.3520 -0.1986 -0.2475
  749W        W 4800   9.620   8.898   5.493 -0.1796 -0.2165 -0.0911
  750W        W 4801   9.583   2.282   2.965 -0.1862  0.1642  0.2960
  751W        W 4802   1.027   1.945   8.885 -0.2782  0.1877  0.0869
  752W        W 4803   4.012   9.422   2.371 -0.2036  0.0663 -0.1583
  753W        W 4804   1.367   2.127   0.134  0.0061 -0.0588 -0.1230
  754W        W 4805   2.071   5.645  12.982 -0.3705 -0.4768 -0.1711
  755W        W 4806   6.917   0.612   8.597  0.0781 -0.1196 -0.2178
  756W        W 4807   7.846   9.521   4.333 -0.1802  0.0839 -0.2066
  757W        W 4808   1.298   1.387  10.859 -0.2373  0.0797  0.0465
  758W        W 4809   2.433   8.740   4.418 -0.3637 -0.0923 -0.0341
  759W        W 4810   3.335   9.592   0.699 -0.0412 -0.0071 -0.0710
  760W        W 4811   0.335   0.605  13.253 -0.2543  0.1619  0.2768
  761W        W 4812   5.176   0.002   0.413  0.0345 -0.0661  0.3048
  762W        W 4813   0.072   8.143  11.159  0.1730  0.0135 -0.1698
  763W        W 4814   0.138   4.553   0.811 -0.2646 -0.1563 -0.3353
  764W        W 4815   3.315   3.250   0.110  0.2305 -0.0987  0.0486
  765W        W 4816   9.464   0.031   1.998 -0.0015  0.1733  0.0438
  766W        W 4817   8.092   1.285   0.641 -0.1532 -0.2040 -0.0268
  767W        W 4818   5.222   3.639   3.490 -0.1701  0.0158 -0.1922
  768W        W 4819   7.154  10.060  13.929 -0.0043  0.4641 -0.0446
  769W        W 4820   1.817   1.806   2.964 -0.2319  0.0372  0.3075
  770W        W 4821   7.448   5.279  11.356 -0.2562  0.0524 -0.1539
  771W        W 4822   2.073   4.160   4.028  0.2840  0.0105 -0.0067
  772W        W 4823   9.267   9.338   3.961  0.1389  0.2636 -0.0485
  773W        W 4824   9.807   4.476  12.771  0.0417 -0.0217 -0.2416
  774W        W 4825   5.832   9.149  10.430  0.2659  0.0123  0.1454
  775W        W 4826   9.076   7.424  12.131  0.1366  0.1128  0.3393
  776W        W 4827   8.161   8.246  12.976  0.0017  0.0917 -0.0060
  777W        W 4828   3.164   6.093   0.110 -0.2326  0.0757  0.1147
  778W        W 4829   0.007   6.510   9.757 -0.0285  0.3405 -0.1086
  779W        W 4830   7.961   5.483   1.258 -0.1710 -0.3853 -0.1828
  780W        W 4831   5.371   8.685   2.807  0.1605  0.1160  0.1555
  781W        W 4832   2.338   1.852   3.815 -0.2075  0.2329 -0.3600
  782W        W 4833   2.783  10.024   9.194  0.2673  0.1068 -0.1069
  783W        W 4834   7.700   4.838   5.084 -0.0438  0.1426 -0.0890
  784W        W 4835   4.676   7.519   4.993 -0.0456 -0.0196 -0.2222
  785W        W 4836   3.922   8.958  12.849 -0.0961 -0.3431  0.0753
  786W        W 4837   7.830   3.714   1.779 -0.0064  0.1559  0.1980
  787W        W 4838   8.386   3.040  13.797 -0.2047  0.0025  0.1751
  788W        W 4839   7.640   2.446   3.423 -0.0136  0.1358  0.0860
  789W        W 4840   2.086   9.147   0.734 -0.0893  0.3469  0.2359
  790W        W 4841   6.468   3.440  10.196  0.0727 -0.1441 -0.0177
  791W        W 4842   6.959   6.716   3.725 -0.1153 -0.0231 -0.1984
  792W        W 4843   8.279   0.004  10.432  0.0494  0.3075 -0.0880
  793W        W 4844   8.907   4.332   9.804 -0.0526 -0.1128  0.1532
  794W        W 4845   2.200   5.561  12.258 -0.0367  0.0769 -0.1253
  795W        W 4846   8.698   5.091   0.970 -0.1187  0.1747 -0.0898
  796W        W 4847   7.886   9.537   0.845 -0.1805  0.1801 -0.1585
  797W        W 4848   1.718   4.531   0.884 -0.0021 -0.0903 -0.0903
  798W        W 4849   3.082  10.048   9.592 -0.0752 -0.2532  0.0747
  799W        W 4850   2.413   0.605   1.798 -0.3299  0.1954 -0.0973
  800W        W 4851   4.982   4.359  11.211  0.2502 -0.0513 -0.0073
  801W        W 4852   6.467   8.518  13.332 -0.0438  0.3017 -0.1274
  802W        W 4853   9.031   3.070  13.042  0.3368  0.0655 -0.2820
  803W        W 4854   6.814   3.837   0.225  0.0021 -0.2111 -0.1155
  804W        W 4855   4.774   8.307   0.749 -0.1412  0.1642  0.5174
  805W        W 4856   8.001   3.771  12.711 -0.0980 -0.1151  0.0152
  806W        W 4857   7.725   4.105   0.673  0.1275 -0.3326  0.1657
  807W        W 4858   6.893   1.281  13.683  0.0603  0.2545 -0.1342
  808W        W 4859   5.902   2.195  11.268 -0.1290  0.4560  0.0932
  809W        W 4860   4.422   6.392   3.688  0.0433 -0.0616 -0.0967
  810W        W 4861   9.432   4.577   9.712  0.2436 -0.1214  0.1537
  811W        W 4862   5.476   9.452   2.345 -0.0854  0.0822 -0.0196
  812W        W 4863   1.499   1.343   2.984  0.1307  0.0929 -0.0822
  813W        W 4864   9.262   9.558  11.865 -0.2019 -0.1320 -0.1852
  814W        W 4865   7.226  10.148   2.329  0.1238  0.2358  0.0981
  815W        W 4866   3.980   5.443   2.603  0.1749 -0.0212 -0.0289
  816W        W 4867   2.650   9.074   5.177  0.0957  0.2584  0.3077
  817W        W 4868   8.409   5.508  11.187  0.3177 -0.1046  0.0077
  818W        W 4869   5.906   5.176   3.283  0.0265  0.4437  0.2740
  819W        W 4870   6.601   7.756  12.378 -0.0133 -0.1224  0.2418
  820W        W 4871   0.902   9.528  12.622 -0.2369  0.1111 -0.0515
  821W        W 4872   0.642   8.754   4.610 -0.1182 -0.0592 -0.0249
  822W        W 4873   3.506   0.151  13.512  0.2273  0.2545 -0.0465
  823W        W 4874   9.657   3.665   3.178 -0.0707 -0.1246  0.2512
  824W        W 4875   9.650   9.620   0.661  0.2088 -0.4534 -0.1899
  825W        W 4876   9.627   7.860   1.177 -0.1181  0.1656  0.3144
  826W        W 4877   9.960   2.345   1.182 -0.1303  0.1992  0.1159
  827W        W 4878   2.559   1.732  11.569  0.0137  0.0949 -0.3312
  828W        W 4879   4.787   9.188   5.115  0.1343 -0.1486 -0.2362
  829W        W 4880   0.924   9.485  13.576  0.0148 -0.1516 -0.1844
  830W        W 4881   7.657   7.681  13.831 -0.0237 -0.1266  0.3534
  831W        W 4882   6.697  10.041  10.288 -0.0149  0.3551 -0.0518
  832W        W 4883   7.720   3.099   2.512 -0.0031  0.0933  0.0604
  833W        W 4884   0.350   5.206   2.588  0.0980  0.1388 -0.1067
  834W        W 4885   9.536   4.815   2.437 -0.0394  0.0623 -0.0368
  835W        W 4886   5.295   5.841   9.785  0.1174  0.1703  0.2071
  836W        W 4887   9.169   2.765   0.067 -0.1156 -0.0582  0.3151
  837W        W 4888   1.757   5.797  11.508 -0.1090 -0.0871 -0.2737
  838W        W 4889   9.454   9.284   2.718  0.0243 -0.1293  0.0614
  839W        W 4890   7.242  10.011  12.482  0.0673  0.0720  0.2068
  840W        W 4891   3.244   3.814  11.624  0.2327  0.0398  0.3044
  841W        W 4892   7.815   7.679   3.233  0.2073 -0.1239 -0.1281
  842W        W 4893   8.538   3.759  11.052  0.0716  0.0012  0.0944
  843W        W 4894   4.557   4.803  12.027  0.0446  0.0442  0.3530
  844W        W 4895   2.652   3.782   2.097  0.1955  0.0097  0.1008
  845W        W 4896   8.955   9.935  12.999  0.2025 -0.1481  0.0761
  846W        W 4897   9.288   1.301   5.574 -0.0488 -0.1039  0.1476
  847W        W 4898   9.868   8.765   3.516 -0.0781 -0.0649  0.0404
  848W        W 4899   2.765   3.468   3.546 -0.3120  0.2620 -0.0583
  849W        W 4900   1.795   7.610   2.150  0.0821  0.0423 -0.0066
  850W        W 4901   4.120   2.570   0.073 -0.2853 -0.1977  0.2826
  851W        W 4902   5.407   6.806   3.068 -0.1629 -0.1135  0.1144
  852W        W 4903   2.469   7.174  10.620 -0.0602  0.0563  0.0262
  853W        W 4904   4.825   6.879  10.472  0.0914  0.2500  0.3527
  854W        W 4905   7.361   9.025   3.145 -0.1563 -0.3503 -0.1299
  855W        W 4906  10.204   7.499   3.013 -0.0922  0.2085 -0.0335
  856W        W 4907   6.783   8.391   3.829 -0.1445 -0.1510  0.0469
  857W        W 4908   7.517   5.294   0.165  0.3225  0.0855 -0.2464
  858W        W 4909   5.132   2.916   0.471  0.0003  0.2738 -0.3074
  859W        W 4910   0.622   1.831   3.175  0.3254 -0.0889 -0.5530
  860W        W 4911   4.781   8.575   9.787 -0.2551 -0.0073 -0.0444
  861W        W 4912   9.724   0.556  11.322 -0.2219 -0.0517 -0.1088
  862W        W 4913   6.061   6.664  12.587  0.1347  0.1379  0.0258
  863W        W 4914   6.601   9.187   0.806  0.1767 -0.1282 -0.1187
  864W        W 4915   7.448   4.074   2.402  0.1446 -0.0085 -0.0827
  865W        W 4916   3.463   3.033   0.567  0.0215  0.0877 -0.1086
  866W        W 4917   3.758   5.138  12.759 -0.0581  0.1012  0.4297
  867W        W 4918   3.622   0.512  10.775 -0.0428  0.0249  0.3649
  868W        W 4919   7.046   5.031  10.597 -0.1530 -0.0415  0.1811
  869W        W 4920   5.895   6.496   1.375  0.3292 -0.0873  0.1424
  870W        W 4921   7.196  10.119   4.549  0.1671 -0.0519 -0.0626
  871W        W 4922   9.994   6.649  12.129 -0.0901 -0.1016  0.0179
  872W        W 4923   6.735   1.892   0.278  0.0990 -0.2334 -0.0956
  873W        W 4924   9.610   1.835   0.428 -0.0799  0.1469 -0.0027
  874W        W 4925   3.463   2.017  13.179  0.0647  0.2947  0.1386
  875W        W 4926   9.965   9.832  12.783  0.2327  0.2957 -0.1302
  876W        W 4927   1.197   3.806   1.394 -0.1885 -0.0100  0.3118
  877W        W 4928   7.488   7.393   2.524 -0.1498 -0.2554 -0.0632
  878W        W 4929   3.213   5.075  12.952 -0.0114 -0.1042  0.0572
  879W        W 4930   1.147   9.704  11.872  0.1810 -0.1164  0.0817
  880W        W 4931   5.236   5.402   3.829 -0.0464 -0.1070 -0.2143
  881W        W 4932   0.004   9.838  12.259 -0.1830  0.2410 -0.0593
  882W        W 4933   1.740   6.735   1.778 -0.1977 -0.0202  0.1840
  883W        W 4934   4.187   6.846  10.030  0.1927 -0.2717  0.1726
  884W        W 4935   5.416   2.941   1.346 -0.2241  0.0807  0.2402
  885W        W 4936   5.023   4.271   0.992 -0.0663 -0.0569  0.3063
  886W        W 4937   5.294   7.255   3.848 -0.0723  0.0063 -0.0789
  887W        W 4938   3.424   5.193   0.219  0.1956 -0.3189  0.2008
  888W        W 4939   7.517   6.216   3.259 -0.0245  0.1164  0.1186
  889W        W 4940   2.527   9.957   2.628  0.0814  0.3334  0.1577
  890W        W 4941   2.444   6.395  12.988 -0.1632  0.1938 -0.0207
  891W        W 4942   5.585   6.230   9.713  0.2938  0.1769  0.2231
  892W        W 4943   8.798   9.079  13.176  0.1794  0.3429  0.3517
  893W        W 4944   9.816   3.747   3.690  0.1625 -0.2519  0.1413
  894W        W 4945   7.810   6.484   5.052  0.4289 -0.1572  0.1258
  895W        W 4946   6.439   8.399   9.581 -0.1324 -0.1042  0.2387
  896W        W 4947   4.829   3.374   2.097  0.2538 -0.1357  0.2612
  897W        W 4948   0.932   9.176   2.379 -0.2082  0.1143 -0.0088
  898W        W 4949   2.517   2.341  12.589 -0.1691  0.3288  0.0875
  899W        W 4950   0.675   8.982  11.394 -0.3386  0.0025 -0.4458
  900W        W 4951   1.054   4.723  10.653  0.0455  0.0251 -0.4070
  901W        W 4952   6.435   8.625   0.500  0.1724 -0.2292  0.0345
  902W        W 4953   0.014   7.987   1.132 -0.1314 -0.4087 -0.1187
  903W        W 4954   8.203   0.951  12.008  0.2313  0.0678  0.1202
  904W        W 4955   6.121   7.725  12.322  0.2912  0.1640 -0.0339
  905W        W 4956   4.809   9.150  13.838  0.0923 -0.2233  0.1689
  906W        W 4957   9.138   7.696  13.692  0.1449  0.0108 -0.1316
  907W        W 4958   3.461   1.511  13.618 -0.1078 -0.2360 -0.2604
  908W        W 4959   9.151   4.638   3.008  0.2873 -0.2730  0.2826
  909W        W 4960   9.041   5.220   5.107  0.2094 -0.2240  0.2075
  910W        W 4961   1.875   7.952   9.123 -0.2505 -0.3153  0.0418
  911W        W 4962   3.375   9.928  13.140 -0.2581 -0.0680 -0.3318
  912W        W 4963   5.895   8.590   0.482 -0.1686 -0.0668 -0.0984
  913W        W 4964   3.593   8.213   3.270  0.2848  0.1139  0.1343
  914W        W 4965   6.676   1.439   2.019  0.2038  0.0333 -0.2230
  915W        W 4966   9.149   1.108  12.031 -0.2960  0.3276  0.1306
  916W        W 4967   8.189   8.450   3.615 -0.2338 -0.0488 -0.2660
  917W        W 4968   3.204   0.104  12.948 -0.1891 -0.0026 -0.1039
  918W        W 4969   3.325   5.643   0.449 -0.0402  0.0753 -0.0205
  919W        W 4970   1.305   0.583   0.277  0.0436 -0.4252 -0.2454
  920W        W 4971   6.622   8.053  13.353  0.2031 -0.0193  0.1501
  921W        W 4972   1.286   2.133  12.651  0.1150  0.2363  0.2211
  922W        W 4973   5.310   1.702   0.658  0.0647  0.1881 -0.0045
  923W        W 4974   7.391   5.065  12.986  0.3367  0.1500 -0.0501
  924W        W 4975   2.972   0.427   8.621 -0.0502  0.0512 -0.1928
  925W        W 4976   2.481   1.015  12.250  0.1596  0.0427 -0.0458
  926W        W 4977   4.499   5.763   8.724 -0.0110  0.0121  0.1791
  927W        W 4978   3.277   3.555   1.203 -0.0076  0.0825 -0.0916
  928W        W 4979   8.814   0.449  11.329  0.0039 -0.2166  0.1955
  929W        W 4980   6.828   6.216   1.554  0.0546  0.0134  0.3121
  930W        W 4981   6.403   0.475   1.268  0.2326 -0.4022  0.0085
  931W        W 4982   7.341   5.993   8.203  0.3156  0.2448  0.0848
  932W        W 4983   5.014   7.134   9.563 -0.0912  0.0755 -0.1636
  933W        W 4984   9.316   9.777   2.746  0.2490  0.2602  0.1426
  934W        W 4985   8.830   4.115   3.633 -0.0256 -0.1536  0.1131
  935W        W 4986   5.802   8.884   1.631 -0.0655  0.0158 -0.1658
  936W        W 4987   5.138   9.938  12.948  0.0429  0.2677  0.0958
  937W        W 4988   3.745   6.701  12.294 -0.2471 -0.2553  0.0056
  938W        W 4989   6.242   0.055  13.398  0.2361  0.1279  0.1785
  939W        W 4990   6.961   0.043   3.246 -0.1677 -0.1693 -0.0376
  940W        W 4991   6.844   6.987   8.845 -0.2460 -0.0512  0.2171
  941W        W 4992   0.286   0.281   2.449  0.0853 -0.1053 -0.2052
  942W        W 4993   0.510   8.052  12.317  0.2991  0.3517 -0.1916
  943W        W 4994   6.709   7.184   0.557 -0.1253  0.2894 -0.0310
  944W        W 4995   9.040   5.546   1.261 -0.0427 -0.2655 -0.5168
  945W        W 4996   6.587   7.064   3.662  0.1347  0.4953  0.1243
  946W        W 4997   1.845   3.152   2.207  0.1045 -0.1570  0.2353
  947W        W 4998   2.052   3.521  13.915 -0.3569 -0.0965 -0.1482
  948W        W 4999   1.940   2.163   2.160 -0.2445 -0.0952 -0.1457
  949W        W 5000   5.666   3.982  12.430  0.0232  0.1403  0.2366
  950W        W 5001   6.177   0.899   1.221  0.0746 -0.2139  0.2959
  951W        W 5002   8.032   2.768  12.874 -0.3111 -0.2559 -0.0362
  952W        W 5003   7.126   4.242  10.324  0.0455 -0.0517 -0.4515
  953W        W 5004   3.235   7.135   0.195  0.0893 -0.1850  0.3447
  954W        W 5005   4.448   9.449  12.607 -0.0979 -0.3352  0.1245
  955W        W 5006   5.254   5.458   2.017  0.0861 -0.2271  0.1733
  956W        W 5007   8.739   4.352   1.147  0.1873 -0.0338  0.0134
  957W        W 5008   6.496   5.128   3.985 -0.1394 -0.1816 -0.2626
  958W        W 5009   9.191   1.194   4.775  0.1013 -0.0384 -0.0668
  959W        W 5010   6.649   8.988  11.523 -0.2300 -0.2268 -0.3838
  960W        W 5011   1.183   8.028  10.864 -0.0832  0.1527  0.0916
  961W        W 5012   6.723   7.061  11.811 -0.3398 -0.1467  0.1334
  962W        W 5013   5.616   7.041   9.942  0.0598 -0.0445  0.2332
  963W        W 5014   9.499   0.193   0.251 -0.5298 -0.1822  0.1648
  964W        W 5015   6.145   0.522   0.385 -0.0009  0.0479 -0.0899
  965W        W 5016   0.155   6.303  11.970 -0.2481 -0.0230  0.4276
  966W        W 5017   7.181   3.924   0.509 -0.2619  0.2878 -0.1938
  967W        W 5018   2.391   0.272   1.417 -0.1971 -0.0625  0.1809
  968W        W 5019   7.025   2.766  10.362  0.2123  0.0870 -0.0513
  969W        W 5020   0.967   5.220   2.432 -0.1078  0.2706  0.1556
  970W        W 5021   3.025   5.399  11.492 -0.1524  0.0951  0.1845
  971W        W 5022   4.923   2.749   2.031 -0.2434  0.3091  0.0389
  972W        W 5023   8.036   3.136  10.368  0.0271 -0.1360  0.1664
  973W        W 5024   3.313   2.332   2.538  0.1943 -0.3165  0.1188
  974W        W 5025   2.618   1.961   0.433  0.0566 -0.1473 -0.0856
  975W        W 5026   8.715   6.667  11.437 -0.0376 -0.3131 -0.3857
  976W        W 5027   9.167   7.905   5.657 -0.2771  0.0295 -0.1238
  977W        W 5028   7.239   3.353  11.517  0.1160  0.0713 -0.1228
  978W        W 5029   3.850   1.787   1.080  0.3487 -0.0061 -0.4001
  979W        W 5030   3.535   7.441   9.509  0.0783 -0.1606  0.0098
  980W        W 5031   5.399   4.399   3.215  0.1720 -0.0489  0.0543
  981W        W 5032   6.372   3.140   0.374  0.2085  0.2020 -0.0217
  982W        W 5033   7.887   4.984  10.095  0.0033 -0.1650 -0.0211
  983W        W 5034   5.168   1.338  12.674 -0.0569  0.1078 -0.0491
  984W        W 5035   8.576   8.830  13.578 -0.0982 -0.3981  0.0692
  985W        W 5036   4.610   2.131   4.286  0.0493 -0.1508 -0.2370
  986W        W 5037   6.007   3.895   9.641  0.1534  0.5048 -0.2070
  987W        W 5038   6.412   0.659  10.073 -0.1428 -0.1889 -0.1165
  988W        W 5039   8.683   0.530   1.157  0.3211 -0.0420  0.2614
  989W        W 5040   8.556   8.761   4.007  0.0294 -0.4147  0.3650
  990W        W 5041   1.531   8.169  12.396 -0.2432  0.2196  0.0076
  991W        W 5042   3.876   6.372   3.617  0.2115 -0.1718  0.0597
  992W        W 5043   9.090   4.024   0.946  0.4466  0.1468 -0.2651
  993W        W 5044   7.552   6.829  11.712  0.1097  0.3497  0.0802
  994W        W 5045   7.280   0.620   9.608 -0.2767  0.1155 -0.2159
  995W        W 5046   2.778   5.844  11.858 -0.1799  0.3868 -0.2414
  996W        W 5047   8.277   3.457  12.408  0.0342  0.0375  0.2121
  997W        W 5048   6.356   3.830   0.477  0.2513  0.1020 -0.1124
  998W        W 5049   9.582   7.247  13.293  0.0622 -0.1203 -0.1800
  999W        W 5050   8.423   0.104  13.286  0.4228 -0.0002  0.3002
 1000W        W 5051   4.737   9.693   4.221  0.0180  0.3078 -0.1814
 1001W        W 5052   4.581   6.429   0.717  0.0247  0.2563  0.0508
 1002W        W 5053   4.773   5.376  10.982 -0.4565  0.2708 -0.0787
 1003W        W 5054   8.626   3.059  12.145 -0.0617 -0.0610 -0.3625
 1004W        W 5055   0.826   6.641   1.296  0.1309 -0.1266 -0.2006
 1005W        W 5056   6.238   2.680   0.637  0.2019 -0.0410 -0.2955
 1006W        W 5057   6.957   6.386   0.593  0.2690  0.2858 -0.0638
 1007W        W 5058   1.199   9.150  13.775 -0.1828 -0.2301  0.1743
 1008W        W 5059   3.696   9.150  10.947  0.1882 -0.3240  0.2281
 1009W        W 5060   6.467   7.056   1.061 -0.2036  0.0747 -0.2889
 1010W        W 5061   1.049   7.954   4.299 -0.0269 -0.0993  0.1904
 1011W        W 5062  10.075   0.405  10.951 -0.3024 -0.0837  0.0733
 1012W        W 5063   7.712   4.137   2.002 -0.3863  0.1370 -0.3181
 1013W        W 5064   3.732   4.063  13.393 -0.3074 -0.0464 -0.1101
 1014W        W 5065   9.821   1.009   5.606  0.0004  0.0045  0.3189
 1015W        W 5066   4.101   4.714  11.806  0.1396 -0.0135 -0.1448
 1016W        W 5067   0.489   1.681  12.442  0.0819  0.0486 -0.2000
 1017W        W 5068   8.984   6.195   3.657 -0.1257 -0.0753 -0.2626
 1018W        W 5069   4.610   8.791   4.302 -0.1092 -0.0330  0.0851
 1019W        W 5070   9.682   3.915   0.089  0.0429 -0.0348  0.2289
 1020W        W 5071   9.500   2.465   0.264 -0.1875  0.2855  0.1163
 1021W        W 5072   2.212   8.002   3.740  0.0544  0.1024  0.5935
 1022W        W 5073   2.973   7.995   4.183 -0.2970 -0.1495 -0.3261
 1023W        W 5074   7.019   0.369   2.316  0.1712 -0.1560  0.0639
 1024W        W 5075   8.229   6.724  12.276  0.1615 -0.2713  0.0441
 1025W        W 5076   2.407   2.422   2.657 -0.1371  0.1972  0.0922
 1026W        W 5077   6.348   9.406   9.985  0.0487  0.1171  0.1614
 1027W        W 5078   3.456   6.245  10.415  0.0197  0.2172 -0.1834
 1028W        W 5079   0.757   0.798   1.850 -0.0874  0.2315 -0.1743
 1029W        W 5080   8.516   2.522  12.272 -0.0511  0.0199 -0.2085
 1030W        W 5081   5.550   3.725   0.058  0.1230  0.3679  0.1701
 1031W        W 5082   2.377   6.622   1.361 -0.1924 -0.0941 -0.1602
 1032W        W 5083   4.628   7.895  11.438 -0.0849 -0.1557  0.0695
 1033W        W 5084   1.058   8.080  12.764  0.2633 -0.1125  0.3081
 1034W        W 5085   0.946   7.351   2.719 -0.1481 -0.1357  0.1277
 1035W        W 5086   0.157   0.794  10.543 -0.1412 -0.2876 -0.1303
 1036W        W 5087   7.753   0.413   1.968 -0.0958 -0.0141  0.0824
 1037W        W 5088   7.312   4.453   0.818  0.3178  0.2998 -0.0354
 1038W        W 5089   6.287   4.849   3.009 -0.2095  0.0319  0.3344
 1039W        W 5090   1.506   6.458   0.703  0.1714 -0.0149  0.1822
 1040W        W 5091   7.329   7.083   1.602 -0.2635  0.3686  0.6245
 1041W        W 5092   7.739   4.280   9.259  0.2100 -0.0581 -0.2103
 1042W        W 5093   2.188   1.122  10.992  0.2975  0.0057  0.1185
 1043W        W 5094   1.553   8.940  10.326 -0.0331 -0.1540 -0.2104
 1044W        W 5095   8.065   4.814  11.367 -0.1498 -0.0082 -0.0096
 1045W        W 5096   6.524   6.970   2.054  0.0960  0.2360  0.0849
 1046W        W 5097   5.876   4.047  11.306 -0.0793  0.1472 -0.1722
 1047W        W 5098   6.824   5.559  11.793  0.3603 -0.1347  0.3766
 1048W        W 5099   3.322   9.455  10.232  0.0511 -0.0273  0.1564
 1049W        W 5100   5.955   5.276   0.697 -0.3574 -0.0449 -0.0255
 1050W        W 5101   8.623   4.405   2.209  0.2081 -0.1528 -0.3474
 1051W        W 5102   5.884   2.998  12.489  0.1858 -0.0363  0.2053
 1052W        W 5103   7.423   4.599   2.359  0.1970 -0.1447  0.0401
 1053W        W 5104  10.097   7.959   5.224 -0.1490 -0.0904  0.0736
 1054W        W 5105   3.161   6.710   4.290  0.0930 -0.1062 -0.1763
 1055W        W 5106   3.610   4.750   4.088  0.0718 -0.1855 -0.0329
 1056W        W 5107   0.610   6.217   1.334 -0.1289 -0.1036 -0.0222
 1057W        W 5108   0.534   6.290  13.824 -0.4132 -0.1101  0.0530
 1058W        W 5109   1.001   4.907  11.172  0.2832 -0.2174 -0.0610
 1059W        W 5110   3.046   5.276  10.695  0.0988 -0.2987 -0.2534
 1060W        W 5111   6.512   1.289   2.906 -0.0112  0.0707 -0.1984
 1061W        W 5112   6.083   7.479   3.167 -0.1397  0.0660 -0.4886
 1062W        W 5113   0.831   7.694  10.663  0.1801 -0.2247  0.1323
 1063W        W 5114   1.400   5.163  10.941 -0.1491  0.2504  0.1687
 1064W        W 5115   5.950   5.059  11.876 -0.2847  0.2347  0.2143
 1065W        W 5116   2.337   3.845  11.566  0.1473 -0.2894  0.2640
 1066W        W 5117   2.786   9.610   9.509  0.2181 -0.2174  0.3270
 1067W        W 5118   9.988   7.961   4.724  0.3006 -0.0714  0.1201
 1068W        W 5119   5.534   1.578   2.283 -0.0343 -0.1827 -0.0261
 1069W        W 5120   6.046   1.343   2.391  0.0972 -0.3771  0.0777
 1070W        W 5121   4.435   9.913   3.199 -0.3458 -0.5215 -0.0339
 1071W        W 5122   0.472   5.916  11.881 -0.0801 -0.2083  0.1725
 1072W        W 5123   7.195   0.811   2.409  0.0556 -0.0224 -0.1943
 1073W        W 5124   7.907   4.837  12.720  0.1523 -0.1297  0.2157
 1074W        W 5125   0.229   1.967   0.119 -0.0062 -0.2159  0.0424
 1075W        W 5126   3.857   1.050   1.220 -0.0154 -0.1482 -0.1671
 1076W        W 5127   4.995   0.468   4.339  0.0419  0.1169  0.1080
 1077W        W 5128   7.390   5.373   9.257 -0.0950  0.3139  0.0717
 1078W        W 5129   3.855   3.285   0.975 -0.0090  0.4096  0.0361
 1079W        W 5130   0.398   3.102   2.201 -0.2885  0.1530 -0.1062
 1080W        W 5131   0.371   4.268  13.196  0.0055 -0.3994 -0.2960
 1081W        W 5132   4.691   7.979   4.730 -0.2641  0.3118  0.3374
 1082W        W 5133   2.050   2.702   3.414  0.1411  0.3898  0.1083
 1083W        W 5134   5.040   0.731  10.068  0.1978 -0.0717  0.2957
 1084W        W 5135   7.858   1.383  11.684 -0.0792 -0.2274  0.3348
 1085W        W 5136   5.374   7.585  10.480 -0.1126 -0.1446 -0.0992
 1086W        W 5137  10.105   3.865   9.823  0.0442 -0.0794  0.3915
 1087W        W 5138   5.807   6.505  10.552  0.3201  0.1065 -0.0143
 1088W        W 5139   2.591   8.949  10.834 -0.1940 -0.1350 -0.1005
 1089W        W 5140  10.117   1.781   0.492 -0.2626 -0.1740  0.0425
 1090W        W 5141   7.502   8.456   3.665  0.2057 -0.1069  0.2572
 1091W        W 5142   7.955   0.565   3.949 -0.1994 -0.1610 -0.0505
 1092W        W 5143   1.444   8.058   1.497  0.1460  0.0504 -0.0698
 1093W        W 5144   9.982   4.891  13.650 -0.3925 -0.0858 -0.1837
 1094W        W 5145   7.149   2.418  13.464  0.5122 -0.2617 -0.1054
 1095W        W 5146   3.701   2.638   4.082  0.1579 -0.2155  0.0834
 1096W        W 5147   1.850   3.084   1.564  0.0703  0.2063 -0.0093
 1097W        W 5148   0.619   4.437   4.138  0.1484  0.0129 -0.0686
 1098W        W 5149   6.015   5.275   9.682  0.1393  0.1314 -0.3236
 1099W        W 5150   3.382   1.397   0.465  0.0989  0.1780  0.5211
 1100W        W 5151  10.184   7.749   9.928  0.0638  0.3019  0.1345
 1101W        W 5152   5.072   9.857   0.742  0.0511  0.2074  0.0658
 1102W        W 5153   3.228   9.607   0.186  0.3895 -0.1486  0.0915
 1103W        W 5154   5.419   1.570   0.197 -0.1058 -0.1159  0.1421
 1104W        W 5155   8.815   9.513  12.080  0.2244  0.0250  0.1375
 1105W        W 5156   1.937   2.965  11.468  0.0881  0.0357 -0.1575
 1106W        W 5157   2.545   9.488   0.360 -0.2404 -0.1783  0.2150
 1107W        W 5158   7.555   6.856   0.371 -0.1327  0.3837  0.0594
 1108W        W 5159   6.950   4.075  11.301  0.0350 -0.3704 -0.0456
 1109W        W 5160   7.327   5.330   3.798  0.1942 -0.2305 -0.0912
 1110W        W 5161   4.098   7.151   3.581 -0.1702  0.1065 -0.5425
 1111W        W 5162   3.571   5.754   2.529 -0.1611 -0.0173 -0.0146
 1112W        W 5163   7.148   3.474   2.990  0.1683  0.4373 -0.2102
 1113W        W 5164   8.452   9.507  11.285  0.0209 -0.0468  0.0972
 1114W        W 5165   1.306  10.139  11.545  0.2670 -0.0662  0.0248
 1115W        W 5166   6.728   1.581  13.356  0.0341  0.2782  0.2160
 1116W        W 5167   1.500   7.909   2.447 -0.2601 -0.0445 -0.0119
 1117W        W 5168   6.649   4.110   9.739 -0.1771 -0.2382  0.1821
 1118W        W 5169   4.512   4.003  13.014  0.0143  0.1659 -0.2317
 1119W        W 5170   7.038   2.668   9.886 -0.0729  0.1967  0.2126
 1120W        W 5171   4.862   7.182  11.303 -0.0653  0.2554 -0.0751
 1121W        W 5172   4.117   6.388  12.040 -0.1542 -0.3420  0.3827
 1122W        W 5173   6.460   6.095   2.510 -0.0524 -0.1388 -0.0315
 1123W        W 5174   9.020   1.301   3.438  0.0704  0.0388 -0.1175
 1124W        W 5175   5.291   1.103   4.528  0.0235 -0.1098  0.2716
 1125W        W 5176   4.272   6.421  13.150  0.1568 -0.1119  0.3975
 1126W        W 5177   1.437   1.963   0.569 -0.0122 -0.1366  0.2860
 1127W        W 5178   9.536   9.962  12.025 -0.1493  0.1153  0.3129
 1128W        W 5179   4.936   2.455   3.946 -0.3952 -0.1079  0.1044
 1129W        W 5180   9.606   9.993  10.413 -0.1763  0.1052  0.0810
 1130W        W 5181   9.461   5.024  10.108 -0.1287  0.0500 -0.0992
 1131W        W 5182   9.363   8.678   0.804  0.2855 -0.0034 -0.0148
 1132W        W 5183   6.546   3.554  12.390  0.0214 -0.0454 -0.0954
 1133W        W 5184   4.493   3.071   1.420  0.0790 -0.0253  0.1833
 1134W        W 5185   8.136   4.582   1.291  0.1196 -0.0830 -0.0517
 1135W        W 5186   6.167   4.948  13.713 -0.2213 -0.1137 -0.0217
 1136W        W 5187   9.796   1.940   2.498  0.0610  0.0816  0.0317
 1137W        W 5188   6.161   5.509   3.083 -0.1766  0.0632  0.1354
 1138W        W 5189   3.083   1.765   9.733  0.1990 -0.0986 -0.0778
 1139W        W 5190   6.755   2.029  11.229  0.0069 -0.2591  0.2389
 1140W        W 5191   8.109   5.972   4.461  0.1516 -0.0902 -0.0500
 1141W        W 5192   2.864   2.651   1.389  0.0312 -0.0908  0.1188
 1142W        W 5193   5.865   8.583   2.455  0.0794  0.0688  0.1011
 1143W        W 5194   0.421   5.376   0.253 -0.2223 -0.2170  0.0191
 1144W        W 5195   7.073   3.461   4.254  0.1612 -0.2209 -0.0680
 1145W        W 5196   6.828   5.917  12.504 -0.3096  0.3296 -0.3316
 1146W        W 5197   2.319   6.571  11.848 -0.2186  0.0180  0.1880
 1147W        W 5198   4.809   1.723   0.720  0.3435 -0.0176  0.2460
 1148W        W 5199   7.472   5.568   5.862  0.0849  0.3327 -0.1917
 1149W        W 5200   8.878   1.833  10.647  0.2048  0.0958  0.1476
 1150W        W 5201   1.934   6.572  13.197  0.0333  0.3964 -0.0155
 1151W        W 5202   3.086   4.135  13.564 -0.1189 -0.2666  0.0456
 1152W        W 5203   2.226   5.742   2.528  0.0719  0.3833 -0.2350
 1153W        W 5204   3.312   0.256   2.732 -0.0861 -0.2972 -0.2889
 1154W        W 5205   8.234   1.256   4.704  0.0195 -0.0375  0.0465
 1155W        W 5206   7.104   3.308   2.301 -0.0411  0.0820  0.0098
 1156W        W 5207   3.781   3.521   3.507  0.2459  0.0184 -0.0581
 1157W        W 5208   4.197   3.428   2.178  0.2491 -0.0349  0.2952
 1158W        W 5209   3.442   0.054  10.901 -0.1038 -0.0237 -0.1081
 1159W        W 5210   5.011   7.642  11.981  0.4339 -0.1240  0.1561
 1160W        W 5211   6.359   8.579  11.244 -0.4729  0.2819  0.0276
 1161W        W 5212   3.661   6.091  11.913 -0.4460 -0.0811 -0.1938
 1162W        W 5213   0.243   6.003   3.335 -0.3243  0.1330 -0.1668
 1163W        W 5214   7.304   1.745  13.069  0.1570  0.2491 -0.1509
 1164W        W 5215   2.124   3.904   2.638 -0.3619  0.3544 -0.0934
 1165W        W 5216   5.288   7.665  13.601 -0.0734 -0.0064  0.0619
 1166W        W 5217   3.344   1.250  10.464  0.1922  0.0933 -0.0177
 1167W        W 5218   4.014   3.334   1.709 -0.1671 -0.1815  0.1349
 1168W        W 5219   8.735   5.801   2.212  0.0764 -0.2703  0.1229
 1169W        W 5220   7.171   3.365  12.519  0.1181 -0.2905  0.2149
 1170W        W 5221   5.680   2.750   0.420 -0.0520 -0.2318  0.2529
 1171W        W 5222   6.941  10.025  11.633 -0.0540 -0.1361  0.2768
 1172W        W 5223   9.384   5.540   9.086 -0.1556  0.1799  0.0931
 1173W        W 5224   4.875   0.250   9.946  0.0549 -0.1103  0.0531
 1174W        W 5225   7.318   3.063   9.833 -0.0449  0.1429 -0.0803
 1175W        W 5226   4.444   5.722   0.979 -0.2636  0.4944 -0.0689
 1176W        W 5227   3.787   4.479  12.098  0.1296 -0.0554  0.2521
 1177W        W 5228   6.722   9.625   1.966  0.0779  0.1647 -0.2556
 1178W        W 5229   1.672   6.811   0.378 -0.0859  0.0076  0.1965
 1179W        W 5230   8.882   7.875   3.720  0.0784 -0.0854 -0.0124
 1180W        W 5231   5.641   8.942  11.952  0.0918 -0.1121 -0.2402
 1181W        W 5232   7.867   9.861   3.525  0.1338  0.0081 -0.3294
 1182W        W 5233   2.252   6.973  12.106 -0.4109  0.1634 -0.1380
 1183W        W 5234   4.898   8.429   4.571  0.2128  0.0419  0.1433
 1184W        W 5235   9.884   2.227   0.574 -0.0556  0.0429  0.1049
 1185W        W 5236   1.572   0.689   3.561  0.1980  0.1531  0.0446
 1186W        W 5237   1.351   1.102  10.011 -0.0879  0.1213 -0.7069
 1187W        W 5238   9.041   3.780   2.794  0.0824  0.1681  0.0577
 1188W        W 5239   5.794   1.880   0.309  0.1076 -0.2404  0.2061
 1189W        W 5240   4.822   0.482  13.192 -0.0207  0.0697  0.1628
 1190W        W 5241   6.802   7.910   5.139  0.2837 -0.0456 -0.0560
 1191W        W 5242   1.831   5.333  11.711 -0.4959 -0.0692  0.1714
 1192W        W 5243   9.358   2.245  10.361 -0.0831 -0.3451 -0.1217
 1193W        W 5244   4.420   0.166  12.444  0.1789  0.2626  0.1041
 1194W        W 5245   9.527   2.925   0.499 -0.2379 -0.0644 -0.0462
 1195W        W 5246   5.620   8.433  12.206 -0.2037 -0.0759 -0.1293
 1196W        W 5247   4.577   6.786  12.939  0.1321  0.3302 -0.3432
 1197W        W 5248   4.725   1.650  12.414 -0.0218 -0.2193 -0.0373
 1198W        W 5249   4.134   0.184   3.355 -0.1272 -0.1808 -0.1675
 1199W        W 5250   5.791  10.024   9.856  0.1420  0.0173 -0.0771
 1200W        W 5251   4.388   4.469  12.617  0.1278 -0.0103  0.0426
 1201W        W 5252   9.472   0.666   0.797  0.2934 -0.3566  0.0379
 1202W        W 5253   2.737   2.055   1.348 -0.2515 -0.2106  0.2485
 1203W        W 5254   6.448   8.215   4.484  0.3065  0.0361  0.2855
 1204W        W 5255   7.264   2.781   0.727  0.0944  0.1286 -0.1206
 1205W        W 5256   8.404   2.034  12.280 -0.1534 -0.0384  0.0308
 1206W        W 5257   5.905   9.072  11.489  0.5142  0.0948 -0.2440
 1207W        W 5258   9.943   8.916   4.863  0.0962  0.0144  0.3848
 1208W        W 5259   5.359   5.232  13.544  0.3388  0.0823  0.2537
 1209W        W 5260   7.105   9.612  10.345  0.1864 -0.2155 -0.3059
 1210W        W 5261   5.564   7.175   9.449  0.1463  0.0442 -0.2749
 1211W        W 5262   7.972   8.260   4.692 -0.2940  0.0251  0.1095
 1212W        W 5263   3.410   2.227  11.953  0.3265  0.0037 -0.1038
 1213W        W 5264   1.960   5.936   1.559 -0.2779  0.2711 -0.0553
 1214W        W 5265   0.915   8.770  13.849  0.0061  0.0616  0.0846
 1215W        W 5266   3.566   4.886   0.730  0.1555 -0.4377 -0.2286
 1216W        W 5267   3.022   3.791   0.332 -0.0052 -0.1964  0.0982
 1217W        W 5268   7.723   3.986  13.063  0.0835 -0.2079  0.3923
 1218W        W 5269   6.008   2.300  10.490 -0.1420  0.0367  0.0654
 1219W        W 5270   2.249   0.108  11.215 -0.1093 -0.0494  0.0635
 1220W        W 5271   0.937   9.882  11.323 -0.0354 -0.1048 -0.2258
 1221W        W 5272   7.020   4.037   2.143 -0.0929  0.0542  0.0047
 1222W        W 5273  10.203   8.790   9.096 -0.1461 -0.2699  0.1237
 1223W        W 5274   6.008   5.999   3.935 -0.0024 -0.0669 -0.2750
 1224W        W 5275   6.802   9.227  10.062  0.0950  0.0626 -0.2214
 1225W        W 5276   5.851   6.922  13.933 -0.1794 -0.1278  0.2569
 1226W        W 5277   6.079   4.726   0.636 -0.0763  0.1679 -0.1436
 1227W        W 5278   2.385   0.728   2.583  0.2821 -0.0743 -0.1548
 1228W        W 5279   5.042   8.237   2.127 -0.0988  0.1053 -0.2519
 1229W        W 5280   4.986  10.178  10.436 -0.3527 -0.2636  0.0515
 1230W        W 5281   5.274   2.432   2.156 -0.3330 -0.3593 -0.1261
 1231W        W 5282   9.360   7.141   0.564 -0.1013  0.0464  0.1288
 1232W        W 5283   6.713   6.504   5.304 -0.1032 -0.1823 -0.1046
 1233W        W 5284   4.865   2.131  11.746 -0.3810  0.1806  0.0146
 1234W        W 5285   2.052   8.200  13.758  0.0811  0.0241  0.0772
 1235W        W 5286   6.952   4.481   9.901  0.0095  0.0571 -0.2684
 1236W        W 5287   4.164   0.962  10.211  0.0598  0.3140 -0.0736
 1237W        W 5288   7.118   1.553   0.638  0.1288  0.1689 -0.1040
 1238W        W 5289   0.815  10.148  10.473  0.1238 -0.2623 -0.2776
 1239W        W 5290   9.734   6.719   9.022  0.0417  0.0709 -0.1648
 1240W        W 5291   3.974   9.556   3.699 -0.2026 -0.2773 -0.1107
 1241W        W 5292   6.914   1.048  11.000 -0.1812  0.0009  0.0230
 1242W        W 5293   2.418   5.738  10.752 -0.0656  0.0851 -0.0361
 1243W        W 5294   7.194   3.293   3.490  0.0516 -0.4129  0.1735
 1244W        W 5295   8.029   1.076   1.762 -0.0625 -0.2552 -0.0068
 1245W        W 5296   6.961   3.020   1.044  0.3621 -0.3198  0.1292
 1246W        W 5297   4.057   6.446   1.600 -0.2812  0.1331 -0.0217
 1247W        W 5298   4.309   6.518   4.271  0.0993  0.0955 -0.1940
 1248W        W 5299   8.254   6.540   0.515 -0.2608 -0.1531 -0.0766
 1249W        W 5300   8.721   5.595   4.831 -0.1483 -0.1111  0.0924
 1250W        W 5301   8.344   6.413  13.218  0.0904 -0.3531  0.0402
 1251W        W 5302   6.298   5.536   1.579 -0.0341 -0.0743 -0.1921
 1252W        W 5303   2.654   7.766   3.642 -0.0669  0.0197 -0.1123
 1253W        W 5304   1.379   5.550  10.602 -0.1768 -0.5341 -0.2530
 1254W        W 5305   5.754   7.133   2.881 -0.1595  0.0082 -0.2345
 1255W        W 5306   4.537  10.112   9.838  0.1256  0.1788 -0.2149
 1256W        W 5307   9.148   7.243  12.847 -0.0244  0.1421 -0.0495
 1257W        W 5308   9.285  10.114  13.715  0.0641 -0.4122 -0.0366
 1258W        W 5309   5.089   7.743   3.987 -0.1716  0.1842  0.0432
 1259W        W 5310   9.271   1.034   1.749 -0.0588 -0.1046  0.0121
 1260W        W 5311   7.553   0.824  12.263  0.3033 -0.0391 -0.0569
 1261W        W 5312   2.416   6.357  13.485 -0.1878  0.0673  0.0712
 1262W        W 5313   4.593   7.890  13.709  0.0082  0.1820 -0.0885
 1263W        W 5314   6.354   0.194  10.248  0.0022  0.0942 -0.2581
 1264W        W 5315   9.225   4.360   3.976  0.0812 -0.1332  0.3163
 1265W        W 5316   3.863   2.268   2.779 -0.3082  0.1364  0.2010
 1266W        W 5317   3.872   9.016   2.636  0.1612 -0.0549 -0.2631
 1267W        W 5318   6.608   4.310  11.641 -0.1545  0.0041  0.0799
 1268W        W 5319   0.745   8.190   2.878 -0.1058 -0.0036 -0.1072
 1269W        W 5320   9.189   5.121  11.508  0.2839  0.2777 -0.1397
 1270W        W 5321   3.648   1.043   3.106 -0.1484  0.0040 -0.1683
 1271W        W 5322   8.087   8.694  12.326 -0.1559 -0.1648  0.4228
 1272W        W 5323   6.007   2.474   9.181  0.0766  0.2548 -0.0840
 1273W        W 5324   2.944   8.021   9.608 -0.3953 -0.3865 -0.0646
 1274W        W 5325   8.224   7.331  13.072  0.2596 -0.1882  0.2679
 1275W        W 5326   4.488   3.313   3.164 -0.2590  0.2000 -0.0706
 1276W        W 5327   8.111   0.694   1.092  0.4872 -0.1235 -0.0947
 1277W        W 5328   7.214   2.335   9.457  0.0247  0.0385  0.0471
 1278W        W 5329   3.866   4.002  12.228 -0.0147 -0.3513  0.3312
 1279W        W 5330   6.125   3.360   9.454 -0.1802  0.2122 -0.3758
 1280W        W 5331   2.401   9.910  13.404  0.0377  0.0573 -0.0603
 1281W        W 5332   2.782   3.030   3.847 -0.1517  0.1600  0.0936
 1282W        W 5333   1.121   8.997   1.531 -0.1664  0.4521 -0.0238
 1283W        W 5334   0.104   9.373   1.552 -0.0616 -0.1557 -0.0365
 1284W        W 5335   3.957   2.272   9.704 -0.1350 -0.0289 -0.2659
 1285W        W 5336   3.826   4.993  11.307  0.0480 -0.0139 -0.0092
 1286W        W 5337   3.842   2.520   2.350 -0.0164 -0.2302  0.0725
 1287W        W 5338   8.066   5.561   3.702  0.1188  0.1515  0.2056
 1288W        W 5339   5.984   2.599  10.950  0.0752  0.0947  0.2000
 1289W        W 5340   5.708   5.481   2.770 -0.1713  0.0081  0.0188
 1290W        W 5341   1.029   3.637   0.916  0.0870  0.0814  0.0715
 1291W        W 5342   2.749   9.923  11.944 -0.0743  0.2145  0.0076
 1292W        W 5343   0.220   8.403   2.581  0.0868  0.1818  0.0920
 1293W        W 5344   6.556   2.608  11.251 -0.0364 -0.1717  0.1087
 1294W        W 5345   9.617   8.827   9.573  0.1607 -0.0443  0.0224
 1295W        W 5346   7.226   3.945  12.239 -0.0508  0.1055 -0.0216
 1296W        W 5347   2.903   2.583  10.503 -0.2209  0.1969 -0.2333
 1297W        W 5348   6.644   7.582   3.777 -0.1199  0.0187 -0.0338
 1298W        W 5349   9.905   0.761   5.142 -0.0947 -0.0412 -0.1901
 1299W        W 5350   9.000   8.526  10.989 -0.1412 -0.2624 -0.0511
 1300W        W 5351   8.026   3.313   4.461 -0.2156  0.0467  0.0249
 1301W        W 5352   3.926   9.736  13.108 -0.0778  0.3938 -0.0258
 1302W        W 5353   0.394   1.507  10.353  0.1938 -0.0708 -0.1197
 1303W        W 5354   9.446   1.326   3.171 -0.2061 -0.0649  0.1492
 1304W        W 5355   1.886   3.230  11.884 -0.0587  0.2011  0.1283
 1305W        W 5356   9.761   3.857  10.689 -0.0476  0.1264 -0.1724
 1306W        W 5357   6.509   0.037  11.690 -0.1987  0.1623  0.2820
 1307W        W 5358   8.723   9.488  10.852 -0.1967 -0.0120 -0.0478
 1308W        W 5359   4.512   6.267  12.232  0.2561  0.1835  0.1236
 1309W        W 5360   0.533   6.819  11.497 -0.0786 -0.0244  0.1067
 1310W        W 5361   9.242   0.043   4.290  0.0459 -0.0196  0.2385
 1311W        W 5362   1.172   1.044  12.711 -0.0171 -0.1586  0.2571
 1312W        W 5363   3.891   8.617  11.591  0.0018 -0.3372 -0.0241
 1313W        W 5364   1.585   8.456   4.669  0.0656  0.0576 -0.2119
 1314W        W 5365   7.289   8.533   3.035 -0.2930 -0.2728 -0.3564
 1315W        W 5366   1.574   3.441  12.784  0.1975  0.0200  0.1364
 1316W        W 5367   1.537   9.648   1.708  0.2618 -0.1395  0.2075
 1317W        W 5368   3.232   2.199   3.474 -0.1632  0.0836 -0.1328
 1318W        W 5369   6.028   4.911  11.304 -0.0308 -0.0781 -0.2045
 1319W        W 5370   1.670   8.144  10.548  0.1255  0.3167 -0.0449
 1320W        W 5371   8.641   5.317   1.476  0.3227  0.2942  0.3166
 1321W        W 5372   5.630   3.607   3.957  0.3446  0.1896 -0.0914
 1322W        W 5373   9.816   4.995   9.700  0.1367  0.0389  0.0731
 1323W        W 5374   9.916   8.797   1.504  0.0492 -0.0048  0.1786
 1324W        W 5375   4.601   1.234   0.008  0.3812  0.2501  0.1565
 1325W        W 5376   2.840   4.455   3.718 -0.1385  0.1904 -0.0963
 1326W        W 5377   9.050   1.638   2.964  0.0111 -0.2535 -0.0299
 1327W        W 5378   2.362   5.961   0.636 -0.1687  0.0128  0.2552
 1328W        W 5379   6.097  10.013   9.348 -0.0824  0.1963 -0.1537
 1329W        W 5380   2.110   0.777   5.021 -0.2072  0.0899  0.2700
 1330W        W 5381   3.672   6.125  13.777  0.2373 -0.1279 -0.2048
 1331W        W 5382   3.245   4.257  11.369 -0.0923  0.1308 -0.1131
 1332W        W 5383   1.012   1.699   0.193 -0.0286 -0.2579 -0.0989
 1333W        W 5384   7.287   0.932  10.117 -0.1900 -0.4042 -0.2787
 1334W        W 5385   8.670   0.703  13.259  0.0964  0.2078 -0.2141
 1335W        W 5386   6.821   8.092  12.848 -0.3821 -0.3451 -0.1537
 1336W        W 5387   7.020   2.473  12.593 -0.0719  0.1942  0.2610
 1337W        W 5388   3.299   9.921   1.367  0.1429  0.2184  0.0614
 1338W        W 5389   2.357   7.357   4.495  0.4764  0.2880 -0.4513
 1339W        W 5390   1.563   1.109   1.676 -0.3529  0.1717  0.1150
 1340W        W 5391   9.976   2.813  11.795 -0.0104  0.1526 -0.0695
 1341W        W 5392   3.534   8.804  10.609  0.4043  0.1204 -0.2763
 1342W        W 5393   5.783   1.094   0.993  0.1005  0.0401 -0.2045
 1343W        W 5394   6.557   8.331   1.772  0.0274  0.3455 -0.2459
 1344W        W 5395   1.087   9.074  12.849 -0.0045 -0.3983 -0.0741
 1345W        W 5396   1.072   0.034  12.006  0.1092 -0.2418  0.0822
 1346W        W 5397   5.362   6.342   4.870 -0.0984  0.0432 -0.0438
 1347W        W 5398   9.776   4.339  10.476  0.1502  0.1024 -0.1814
 1348W        W 5399   2.038   2.858   9.796 -0.0621 -0.0819 -0.0711
 1349W        W 5400   6.870   4.382  13.560  0.0684  0.1066 -0.0057
 1350W        W 5401   4.645   5.457  11.542  0.4237  0.1387 -0.0922
 1351W        W 5402   0.173   7.701   1.901  0.2141 -0.0141 -0.0359
 1352W        W 5403  10.147   7.824   4.254  0.1266 -0.1788  0.2757
 1353W        W 5404   2.804   1.268  12.679  0.1107  0.1210  0.0823
 1354W        W 5405   8.313   3.538  10.287  0.4567 -0.3023  0.1466
 1355W        W 5406   3.508   0.533   3.806  0.1335  0.0253  0.1397
 1356W        W 5407   1.203   0.854   2.742  0.4035 -0.2798 -0.4709
 1357W        W 5408   1.367   1.526  12.561  0.1137 -0.1102  0.1573
 1358W        W 5409   1.768   7.097   9.652  0.0655  0.2144 -0.5263
 1359W        W 5410   9.225   0.034   2.860 -0.2483  0.0144  0.1217
 1360W        W 5411   6.559   3.889  10.566 -0.2090  0.1246  0.0649
 1361W        W 5412   9.911   0.462   4.758  0.1663 -0.1162  0.0328
 1362W        W 5413   5.560   9.461  13.535  0.0345 -0.1528  0.0922
 1363W        W 5414   0.013   1.264  10.489 -0.0685  0.1144  0.1172
 1364W        W 5415  10.159   9.352  13.291  0.4504  0.1714  0.2297
 1365W        W 5416   8.717   8.500  13.914  0.0332  0.2387  0.0591
 1366W        W 5417   2.178   9.836  11.390 -0.0407 -0.3733  0.0410
 1367W        W 5418   0.982  10.087  13.745 -0.0150  0.0069  0.1619
 1368W        W 5419   9.826  10.105   0.440  0.2154 -0.0792 -0.0810
 1369W        W 5420   6.587   3.588   9.743 -0.0773 -0.2625  0.0159
 1370W        W 5421   8.469   7.087   0.538 -0.1096 -0.1014  0.0595
 1371W        W 5422   7.423   8.945  10.179 -0.1294  0.0513  0.2058
 1372W        W 5423   9.711  10.016   0.996 -0.0095  0.1988  0.2625
 1373W        W 5424   8.736   0.280   3.530  0.0515  0.0638 -0.0554
 1374W        W 5425   3.616   3.977  12.876 -0.1654  0.0429 -0.1833
 1375W        W 5426   0.523   7.786  12.745  0.3785 -0.2545 -0.0633
 1376W        W 5427   8.014   6.620  11.538 -0.3270  0.3681 -0.0535
 1377W        W 5428   7.312   0.745  11.804  0.1294  0.2094  0.2607
 1378W        W 5429   6.825   2.342   4.383  0.0084 -0.0563 -0.3288
 1379W        W 5430   1.173   4.718   2.678  0.1267 -0.0632  0.1158
 1380W        W 5431   9.206   1.487  12.803  0.2477 -0.0410 -0.1718
 1381W        W 5432   4.050   9.559  10.650 -0.3201 -0.0447 -0.1633
 1382W        W 5433   8.967   5.584   3.424 -0.0007 -0.0420 -0.2139
 1383W        W 5434   2.630   3.258   2.518  0.0428 -0.1326  0.4861
 1384W        W 5435   9.982   7.808   0.688  0.1457 -0.0919 -0.0455
 1385W        W 5436   6.607   0.980  12.462  0.2451 -0.5879 -0.3216
 1386W        W 5437   2.644   2.934   2.915  0.2165  0.1628 -0.0647
 1387W        W 5438   3.721   2.086  10.151 -0.0857 -0.1739 -0.0841
 1388W        W 5439   8.116   7.367   2.886  0.0586  0.3147  0.2514
 1389W        W 5440   6.098   3.857  13.021 -0.0669  0.0159 -0.1017
 1390W        W 5441   3.589   0.107  12.360 -0.3632  0.2269  0.1264
 1391W        W 5442   2.464   9.460   3.852 -0.0762  0.4859  0.1083
 1392W        W 5443   3.614   9.347  13.040  0.0469 -0.0261 -0.1729
 1393W        W 5444   3.490   1.574   4.252 -0.1216  0.2939 -0.0905
 1394W        W 5445   0.188   4.296  13.708 -0.4256 -0.0832  0.2223
 1395W        W 5446   1.404   8.091  11.815  0.1795 -0.2310 -0.1430
 1396W        W 5447   2.074   8.674  12.983 -0.0192 -0.0216  0.2722
 1397W        W 5448   1.257   7.772  10.389  0.0831  0.3875 -0.0443
 1398W        W 5449   0.232   2.456  10.294 -0.0659  0.3320  0.0037
 1399W        W 5450   4.912   0.599   2.810  0.1743 -0.2674  0.1431
 1400W        W 5451   0.302   1.670   1.418 -0.0749 -0.2017  0.1357
 1401W        W 5452   2.519   4.044   0.465 -0.0595 -0.0229 -0.2471
 1402W        W 5453   5.340   1.023   1.203 -0.0856 -0.1009  0.1687
 1403W        W 5454   3.614   9.813  12.688  0.0911 -0.1725  0.1565
 1404W        W 5455   7.297   7.750   2.122 -0.0042  0.1793  0.1645
 1405W        W 5456   4.020   4.656   1.416  0.2025  0.3254  0.0550
 1406W        W 5457   2.168   4.145   1.307 -0.2495 -0.0081  0.0562
 1407W        W 5458   5.566   6.024  10.881 -0.2067  0.3192  0.0959
 1408W        W 5459   4.345   1.045   0.405 -0.1592 -0.2358  0.3732
 1409W        W 5460   4.659   8.621  12.073 -0.0060 -0.0040  0.1647
 1410W        W 5461   6.057   2.086   3.041 -0.1761 -0.0676  0.1465
 1411W        W 5462  10.028   5.482  11.742 -0.3786  0.4096 -0.2009
 1412W        W 5463   7.179   4.000   9.801 -0.0730  0.1084 -0.0421
 1413W        W 5464   3.057   5.569   9.944 -0.0495  0.3176  0.2493
 1414W        W 5465   8.574   9.861   4.409  0.1184 -0.3397 -0.0902
 1415W        W 5466   0.472   4.441  10.633  0.3191 -0.1349 -0.1002
 1416W        W 5467   6.306   6.354  12.250  0.0424 -0.4958  0.2242
 1417W        W 5468   5.382   4.672   1.253 -0.0593  0.3466 -0.0955
 1418W        W 5469   6.942   1.505  11.265 -0.1155 -0.1269  0.0531
 1419W        W 5470   2.168   7.335  13.788 -0.1096  0.1981 -0.2873
 1420W        W 5471   1.843   7.787  10.223 -0.0885  0.0285  0.1310
 1421W        W 5472   1.892   2.250   1.432  0.2022  0.0388 -0.0022
 1422W        W 5473   2.887   6.422  13.564  0.0625  0.0556  0.1328
 1423W        W 5474   4.963   4.311   2.936 -0.5004  0.3464  0.1267
 1424W        W 5475   3.830   6.219   1.146  0.1396  0.0403 -0.1623
 1425W        W 5476   8.366   9.714   2.859  0.1301  0.4079 -0.2182
 1426W        W 5477   8.295   9.049  11.398 -0.2049  0.0725 -0.0824
 1427W        W 5478   8.444   1.695  10.485 -0.0267  0.0351  0.2097
 1428W        W 5479   0.070   7.473   3.540  0.3315  0.2558 -0.0281
 1429W        W 5480   6.104   6.675  10.048 -0.3157 -0.0817  0.0862
 1430W        W 5481   8.458   1.658  13.692 -0.0088  0.3613 -0.1488
 1431W        W 5482   1.489   2.893   9.610 -0.2725 -0.1424  0.1671
 1432W        W 5483   7.772   9.371  10.590  0.1089 -0.1328 -0.1004
 1433W        W 5484   9.257   7.855   0.865  0.2323  0.0034 -0.2541
 1434W        W 5485   8.778   5.002   0.497  0.2317 -0.0817 -0.0290
 1435W        W 5486   0.670   5.966  11.276 -0.1454 -0.0924 -0.1012
 1436W        W 5487   8.128   7.328   3.427  0.0619 -0.0792  0.0506
 1437W        W 5488   3.330   9.943  10.366 -0.1617  0.1816 -0.3011
 1438W        W 5489   7.314   5.356   4.380 -0.1003  0.0826 -0.1264
 1439W        W 5490   2.054   5.320  13.355 -0.0943  0.2984 -0.0975
 1440W        W 5491   2.964   8.654  10.724 -0.2073  0.2189 -0.2914
 1441W        W 5492   0.561   4.915  10.853  0.0115  0.1579 -0.2678
 1442W        W 5493  10.130   4.275  10.121  0.1469 -0.0362 -0.1159
 1443W        W 5494   2.313   2.712  10.177 -0.0386 -0.0537  0.2195
 1444W        W 5495   6.426   8.843   9.238  0.5972  0.2388  0.2612
 1445W        W 5496   1.605   6.618  13.788 -0.0010  0.1979 -0.0566
 1446W        W 5497   1.546   8.417   3.217  0.2166  0.2144 -0.0042
 1447W        W 5498   4.501   3.755   2.825  0.0306  0.0278  0.3395
 1448W        W 5499   2.719   3.231   1.131  0.0660 -0.2066  0.0910
 1449W        W 5500   6.313   4.588   3.989  0.2254  0.1187  0.0904
 1450W        W 5501   3.427   2.954   1.167 -0.2424  0.1985 -0.0943
 1451W        W 5502   8.441   6.997  11.201  0.2658  0.2383  0.0778
 1452W        W 5503   6.891   9.260  11.189  0.2678  0.0625 -0.1730
 1453W        W 5504   7.590   4.746   4.605 -0.5033 -0.0601  0.1363
 1454W        W 5505   6.990   9.158   3.899 -0.2432 -0.1812 -0.0848
 1455W        W 5506   6.201   8.175  11.470  0.1457  0.0316 -0.0256
 1456W        W 5507   9.409   6.743   0.859 -0.0126 -0.1588 -0.1971
 1457W        W 5508   1.672   6.970  10.740 -0.0713 -0.0344  0.0539
 1458W        W 5509   2.151   5.719  13.610 -0.1433 -0.0120 -0.0226
 1459W        W 5510   2.315   2.759   1.958  0.1814  0.0770 -0.0180
 1460W        W 5511   8.363   3.771   0.106  0.0417  0.2509  0.1523
 1461W        W 5512   9.025   2.669   1.544  0.0370 -0.3236 -0.1448
 1462W        W 5513   7.077   5.492  13.135 -0.1431  0.2039  0.0348
 1463W        W 5514   0.853   5.729   0.534 -0.2764  0.4018  0.3334
 1464W        W 5515   7.627   8.499   1.695 -0.1969 -0.0219 -0.3360
 1465W        W 5516   1.710   4.209  10.891 -0.1019 -0.1835 -0.1692
 1466W        W 5517   8.470   3.199   3.590  0.2862 -0.4212  0.0102
 1467W        W 5518   1.863   6.067   0.682 -0.2201 -0.1042 -0.3139
 1468W        W 5519   5.773   2.831  11.869  0.0991 -0.3171 -0.1391
 1469W        W 5520   6.450   6.918  12.230  0.1116  0.1369  0.1346
 1470W        W 5521   0.811   2.296   0.219 -0.0101 -0.2051 -0.2260
 1471W        W 5522  10.029   7.947  11.546 -0.0786 -0.2913 -0.1108
 1472W        W 5523   9.624   8.543  12.714 -0.0353  0.2048  0.1365
 1473W        W 5524   1.301   7.116   9.912  0.1972 -0.0943  0.2668
 1474W        W 5525   8.457   1.562   2.482 -0.1265  0.2056 -0.0722
 1475W        W 5526   9.764   6.262  12.623 -0.2716  0.1993 -0.0759
 1476W        W 5527  10.040   9.776   1.377  0.3269  0.0600 -0.0867
 1477W        W 5528   6.284   4.150   1.521  0.1953 -0.2789 -0.0434
 1478W        W 5529   7.794   4.576   3.811 -0.1219 -0.0335 -0.1682
 1479W        W 5530   8.934   8.664   4.342 -0.0761  0.1952 -0.2201
 1480W        W 5531   6.812   8.369   3.125  0.0321 -0.0178  0.0698
 1481W        W 5532   3.392   2.885  12.567  0.3546 -0.1673  0.0221
 1482W        W 5533   2.860   0.993   0.404  0.1049  0.1993  0.0256
 1483W        W 5534   1.384   6.462  12.034  0.3396  0.0197  0.0188
 1484W        W 5535   4.395   7.952   0.591 -0.0646 -0.2688 -0.2984
 1485W        W 5536   9.784   4.622  10.071 -0.1437 -0.0041  0.0197
 1486W        W 5537   4.449   8.299   1.912  0.0940 -0.2246  0.0499
 1487W        W 5538   2.239   9.270  10.755  0.3035 -0.2931  0.3077
 1488W        W 5539   0.633   9.266   1.323 -0.1957  0.0822 -0.0000
 1489W        W 5540   1.649   8.192   0.161  0.0783 -0.2080 -0.1648
 1490W        W 5541   3.736   5.202   1.197 -0.2076 -0.1605  0.1708
 1491W        W 5542   1.866   1.951  11.894  0.0548 -0.2590 -0.2047
 1492W        W 5543   8.639   9.861   1.246  0.3499  0.2582  0.1420
 1493W        W 5544   2.104   5.991   3.540 -0.1136  0.0433  0.3194
 1494W        W 5545   4.830   8.282   3.460  0.3263  0.0954 -0.4255
 1495W        W 5546   3.342   4.763   3.612 -0.0038 -0.1071 -0.0112
 1496W        W 5547   1.577   6.049  10.753  0.0123 -0.0413  0.2573
 1497W        W 5548   8.649   9.190   1.986 -0.1194  0.1311 -0.0605
 1498W        W 5549   6.473   8.286   1.240 -0.1831  0.0776 -0.0248
 1499W        W 5550   0.542   2.493   1.575  0.3756 -0.0041  0.2662
 1500W        W 5551   9.203   2.134   4.030  0.2507 -0.1680  0.1077
 1501W        W 5552   1.390   0.484   3.122  0.0211  0.0333 -0.3219
 1502W        W 5553   1.043   3.610   0.386 -0.0097  0.1450 -0.4037
 1503W        W 5554   0.482   3.621  11.243 -0.0056  0.2492  0.2636
 1504W        W 5555   0.351   6.231   2.157 -0.2976  0.0910 -0.0579
 1505W        W 5556   1.031   7.857   0.818  0.3112  0.0286 -0.0573
 1506W        W 5557   1.553   8.383   9.674 -0.0021  0.3203 -0.0023
 1507W        W 5558   3.145   1.896   2.369  0.1841  0.4756 -0.1093
 1508W        W 5559   0.758   2.008   2.093 -0.2438 -0.1045  0.1489
 1509W        W 5560   7.964   9.621  11.371  0.2516 -0.0771  0.2159
 1510W        W 5561   2.853   2.844  12.419  0.2085  0.0143  0.0321
 1511W        W 5562   9.504   1.215   3.687 -0.3112 -0.4822  0.0660
 1512W        W 5563   4.585   9.151   4.000 -0.1280 -0.3346 -0.0533
 1513W        W 5564   8.880   8.601   4.849 -0.0138 -0.0210 -0.0168
 1514W        W 5565   2.161   3.674  10.422  0.0060  0.1651  0.1892
 1515W        W 5566   7.398   6.504  10.291  0.1201  0.1853  0.0792
 1516W        W 5567   0.309   8.143   9.811  0.0770 -0.2087 -0.0780
 1517W        W 5568   5.686   9.371   0.084  0.0515  0.2008 -0.1424
 1518W        W 5569   2.307   8.154   2.755 -0.0703  0.1995  0.2704
 1519W        W 5570   0.982   1.654   9.360  0.0555 -0.1152 -0.0387
 1520W        W 5571   3.952   9.471  12.220  0.0228  0.0666 -0.0200
 1521W        W 5572   7.989   2.313   2.136 -0.0400 -0.0759 -0.0499
 1522W        W 5573   7.096   8.794   4.839  0.0713  0.1263  0.0474
 1523W        W 5574   8.671   9.034  12.173 -0.1110  0.2442  0.0161
 1524W        W 5575   2.650   1.023  13.832  0.0207  0.1021  0.1186
 1525W        W 5576   0.040   7.085   1.157 -0.0871 -0.0479  0.1791
 1526W        W 5577   4.560   9.023  12.918  0.0953  0.0925 -0.1018
 1527W        W 5578   0.522   5.381   1.716  0.3889  0.2352 -0.3147
 1528W        W 5579   0.768   8.128  11.868  0.1036  0.1915 -0.1680
 1529W        W 5580   7.519   1.171  12.723 -0.1285  0.1630  0.0691
 1530W        W 5581   2.825   8.524   9.503  0.4742  0.2656  0.2871
 1531W        W 5582   7.056   4.919   0.606  0.1282 -0.0326 -0.0358
 1532W        W 5583   7.091   0.601  12.283 -0.0539 -0.2965 -0.0891
 1533W        W 5584   1.173   0.593   0.980 -0.3568  0.2592 -0.1531
 1534W        W 5585   7.887   1.528   1.521 -0.1138 -0.0037 -0.0912
 1535W        W 5586   6.395   3.968  13.496 -0.2519  0.4212  0.0838
 1536W        W 5587   3.658   8.310   2.570  0.3587 -0.1835  0.0132
 1537W        W 5588   0.634   5.426  13.224  0.1631  0.0777  0.0878
 1538W        W 5589   9.456   6.142   3.878 -0.0597  0.1225 -0.1108
 1539W        W 5590   6.012   0.172   8.370 -0.3177 -0.0017  0.0423
 1540W        W 5591   9.242   2.178   1.749 -0.3912  0.1332  0.1841
 1541W        W 5592   0.215   2.161   1.384 -0.0437 -0.1979  0.1482
 1542W        W 5593   4.802   8.659   1.956  0.1107 -0.2710 -0.0285
 1543W        W 5594   7.607   6.661   1.995  0.0763 -0.0741  0.3182
 1544W        W 5595   9.514   6.652  11.934  0.2172 -0.1683 -0.1912
 1545W        W 5596   0.943   0.761  13.480 -0.1019  0.2612  0.2386
 1546W        W 5597   5.834   5.614  11.823 -0.2221  0.0529  0.2315
 1547W        W 5598   9.492   8.066   4.585  0.2592  0.4215  0.2111
 1548W        W 5599   4.631   3.896   3.653 -0.0415 -0.0860  0.0392
 1549W        W 5600   5.593   2.102   0.855 -0.0336 -0.0823  0.2122
 1550W        W 5601   4.093   8.953  10.734  0.2842  0.1197 -0.2951
 1551W        W 5602   2.232   5.507   1.587  0.1631  0.1524 -0.3455
 1552W        W 5603  10.020   5.304  12.372  0.1696  0.1726 -0.1129
 1553W        W 5604   4.929   9.566  11.636  0.0472  0.2522 -0.1321
 1554W        W 5605   1.439   0.017   2.955  0.1628  0.1579  0.3814
 1555W        W 5606   0.417   7.973   4.440 -0.3105  0.0726 -0.2741
 1556W        W 5607   4.580   5.624  12.920 -0.0350 -0.0367  0.0929
 1557W        W 5608   9.769   3.906   4.123  0.3900  0.1354  0.0741
 1558W        W 5609   6.408   7.995   3.942  0.5519 -0.1476  0.1497
 1559W        W 5610   2.276   8.927  12.570 -0.1106 -0.1736 -0.0488
 1560W        W 5611   4.164   5.912  13.084  0.0094  0.2871 -0.0966
 1561W        W 5612   6.753   3.862   4.327 -0.4688 -0.2168  0.0964
 1562W        W 5613   6.108   5.085   0.284 -0.1019 -0.3676  0.2110
 1563W        W 5614   8.107   1.444   2.117  0.0038  0.2093  0.0481
 1564W        W 5615   0.576   1.949  10.606 -0.1138  0.3307 -0.0960
 1565W        W 5616   9.425   7.124   4.535  0.1233 -0.1466 -0.1000
 1566W        W 5617   2.182   8.813  10.228 -0.1656  0.0099 -0.2191
 1567W        W 5618   6.879   6.522   2.459  0.3459 -0.0439  0.2472
 1568W        W 5619   1.768   5.006  10.656  0.2491  0.1665  0.0032
 1569W        W 5620   6.049   4.729  12.228 -0.0923 -0.1210 -0.1169
 1570W        W 5621   0.812   3.375  11.665 -0.1002 -0.0381  0.1507
 1571W        W 5622   0.611   9.700   4.150  0.0831  0.2914  0.1433
 1572W        W 5623   9.449   1.648   4.642 -0.0934  0.1053 -0.0773
 1573W        W 5624   7.376   2.398   0.397  0.2348 -0.0685 -0.2758
 1574W        W 5625   4.865   2.104  12.229  0.0879 -0.1664  0.1528
 1575W        W 5626   5.327   9.779   1.686 -0.1099 -0.0608  0.1101
 1576W        W 5627   3.881   5.095   0.413  0.0254 -0.0040  0.1325
 1577W        W 5628   9.785   8.099  10.596  0.1310  0.1916  0.0780
 1578W        W 5629   4.277   5.895   3.363  0.1785  0.0728  0.0444
 1579W        W 5630  10.069   6.722  10.787  0.1083  0.4399 -0.1015
 1580W        W 5631   0.595   2.890   2.642 -0.1849 -0.1819 -0.1842
 1581W        W 5632   1.375   0.772  13.738 -0.2464 -0.0652 -0.0148
 1582W        W 5633   3.919   1.678   9.962 -0.0263  0.3069  0.0698
 1583W        W 5634   8.555   4.474  13.517  0.0500  0.1055  0.2509
 1584W        W 5635   3.363   4.384  12.533 -0.0229  0.0958  0.2822
 1585W        W 5636   9.177   8.186  13.783 -0.2325 -0.0882 -0.1783
 1586W        W 5637   6.391   1.559   4.284 -0.2144 -0.0879 -0.0139
 1587W        W 5638   8.102   9.845   2.041 -0.5001  0.0415 -0.2722
 1588W        W 5639   1.717   3.585  12.249  0.1387  0.1159 -0.1847
 1589W        W 5640   3.674   0.821  10.284 -0.1275  0.0253  0.1727
 1590W        W 5641   1.954   1.698   9.679  0.1005 -0.0143 -0.0828
 1591W        W 5642   9.234   4.819  13.153  0.1192 -0.0766 -0.0393
 1592W        W 5643   1.074   8.419   1.479  0.0195 -0.2529  0.1705
 1593W        W 5644   8.021   9.092   4.142 -0.2258  0.3279  0.0057
 1594W        W 5645   1.622   3.530   2.992  0.2829  0.2239 -0.1106
 1595W        W 5646   6.898   6.209   4.774 -0.0158 -0.0987 -0.4318
 1596W        W 5647   3.391   8.234   5.178  0.1090 -0.0101  0.1973
 1597W        W 5648   7.674   3.150  13.556  0.0171  0.2273 -0.0314
 1598W        W 5649  10.124   8.722   9.555  0.1406 -0.2036  0.0757
 1599W        W 5650   6.183   6.241   1.753 -0.2215  0.0947  0.3675
 1600W        W 5651   9.224   6.931   1.319  0.4075  0.2455  0.1094
 1601W        W 5652   8.184   8.501   4.208 -0.2387 -0.0695  0.1637
 1602W        W 5653   5.576   8.743  12.876  0.1595 -0.0429  0.2828
 1603W        W 5654   3.356   1.733  11.168  0.1981  0.3239  0.0622
 1604W        W 5655   4.118   8.993  11.210 -0.1890 -0.1304  0.1019
 1605W        W 5656  10.019   9.536   9.032 -0.1488 -0.0857  0.1374
 1606W        W 5657   6.641   2.426  13.696 -0.0718 -0.1942  0.0428
 1607W        W 5658   5.251   3.757  12.863  0.1185 -0.0916  0.4027
 1608W        W 5659   8.096   2.396   0.540  0.1478  0.0947  0.0730
 1609W        W 5660   1.184   6.294   3.293  0.0851 -0.0897 -0.2350
 1610W        W 5661   5.074   5.819  13.563 -0.0116  0.1736 -0.1137
 1611W        W 5662   4.813   0.864   0.490 -0.1956  0.1339  0.0063
 1612W        W 5663   8.864   2.097   0.802  0.0066  0.1936  0.0621
 1613W        W 5664   3.419   1.062   9.301  0.2346  0.1521  0.0836
 1614W        W 5665   8.303   3.493   3.216 -0.0147  0.2898 -0.1195
 1615W        W 5666   7.972   0.576   0.015 -0.0132  0.1547 -0.0189
 1616W        W 5667   6.618   0.406  12.846  0.5351 -0.2200 -0.1027
 1617W        W 5668   6.395   2.627   4.456 -0.1091 -0.1309 -0.3210
 1618W        W 5669   5.898   9.808  12.298  0.0140  0.2206  0.1136
 1619W        W 5670   5.870   8.890  12.431 -0.0780  0.1664  0.2583
 1620W        W 5671   6.450   5.823   3.636  0.5563  0.0076  0.1877
 1621W        W 5672   0.790   5.752  12.497 -0.0403  0.0728 -0.0760
 1622W        W 5673   7.271   7.258  12.513 -0.1660  0.1050 -0.0745
 1623W        W 5674   2.188   5.241  10.909  0.2317  0.2231 -0.0249
 1624W        W 5675   5.787   4.000   4.276  0.0897  0.1172  0.1916
 1625W        W 5676   5.947   7.394   0.121 -0.1377  0.0481 -0.2111
 1626W        W 5677   9.809   5.144  11.438 -0.2060  0.0449 -0.3362
 1627W        W 5678   4.958   1.190  12.234 -0.2903 -0.3373  0.2070
 1628W        W 5679   8.014   7.519   1.646 -0.3914 -0.1934 -0.1601
 1629W        W 5680   5.255   7.815  12.518  0.0480 -0.1206 -0.2307
 1630W        W 5681   7.040   8.316  13.509  0.1363  0.1391 -0.2400
 1631W        W 5682   7.362   1.131   9.543 -0.0099 -0.0502  0.4697
 1632W        W 5683   1.020   5.675   1.032  0.1913  0.0265 -0.2271
 1633W        W 5684   2.258   4.473  10.063  0.1898 -0.1426 -0.2998
 1634W        W 5685   1.804   6.156   3.948  0.2769  0.0530  0.0433
 1635W        W 5686   6.286   2.966  10.966 -0.0327 -0.2896 -0.0721
 1636W        W 5687   4.570   3.109  11.121 -0.0379 -0.0575 -0.2194
 1637W        W 5688   9.850   6.082   1.316 -0.0113  0.1741 -0.0386
 1638W        W 5689   5.142   9.761  13.396  0.0273  0.2066  0.1807
 1639W        W 5690   4.214   8.784   3.272  0.1804 -0.1258 -0.0432
 1640W        W 5691   1.859   8.471   1.861 -0.2926  0.0231 -0.1666
 1641W        W 5692   2.965   9.643   1.089 -0.1249 -0.0706  0.0027
 1642W        W 5693   9.883   2.260  12.240 -0.0365  0.0049 -0.0286
 1643W        W 5694   4.730   1.134   3.010 -0.2419  0.2338  0.0317
 1644W        W 5695   4.227   2.617  12.573  0.0543 -0.1041  0.0752
 1645W        W 5696   8.814   7.166  10.574  0.0915  0.1098 -0.1143
 1646W        W 5697   4.976   8.469   9.378  0.1441 -0.0234 -0.0634
 1647W        W 5698   6.989   4.331   8.475 -0.0956  0.1432 -0.5409
 1648W        W 5699   0.396   6.661   2.686 -0.0108  0.0106  0.0610
 1649W        W 5700   3.288   8.313   3.807 -0.2437  0.0006 -0.1440
 1650W        W 5701   5.460   0.812   3.363  0.1324  0.0606  0.3886
 1651W        W 5702   3.468   4.777   1.213 -0.1735  0.0115  0.0161
 1652W        W 5703   5.076   1.886  12.784  0.1262 -0.0007  0.0828
 1653W        W 5704   0.876   9.771   0.215 -0.1833 -0.3057 -0.0758
 1654W        W 5705   0.700   4.810  10.321  0.2150  0.1524 -0.1008
 1655W        W 5706   7.580   1.307   1.059 -0.1190 -0.1372  0.1426
 1656W        W 5707   5.363   3.151   3.392  0.0357  0.0298 -0.3467
 1657W        W 5708   2.661   2.791   2.326 -0.1679  0.1819  0.1594
 1658W        W 5709   7.013   8.730   3.453 -0.1631  0.0715 -0.3626
 1659W        W 5710   1.778   8.340   0.955  0.1290 -0.1329 -0.2193
 1660W        W 5711   2.884   7.914   0.884  0.0280  0.1130 -0.0811
 1661W        W 5712   9.962   2.410   9.451 -0.0225  0.1330  0.0241
 1662W        W 5713  10.115   5.891   3.704 -0.0356 -0.1680 -0.0386
 1663W        W 5714   1.903   0.086   2.289  0.0101 -0.4465 -0.3504
 1664W        W 5715   6.139   5.950  12.973  0.0390 -0.0694  0.0998
 1665W        W 5716   1.575   0.253   1.894 -0.1235  0.1212  0.2872
 1666W        W 5717   7.023   7.545   1.748 -0.3836 -0.0772 -0.3258
 1667W        W 5718  10.129   4.998   0.223 -0.0217 -0.1225  0.1039
 1668W        W 5719   8.431   8.997   5.021 -0.0093  0.2512 -0.0603
 1669W        W 5720   9.772   7.510  11.599 -0.0877  0.2266 -0.0634
 1670W        W 5721   1.194   7.616   0.380 -0.1212  0.2715  0.0474
 1671W        W 5722   6.913   8.862   2.971 -0.0867  0.2279  0.1443
 1672W        W 5723   2.122   7.064   3.605 -0.2454 -0.1482  0.2117
 1673W        W 5724   4.990   3.016   1.074 -0.0540 -0.4464  0.2477
 1674W        W 5725   6.411   3.544   4.189  0.0578 -0.1476 -0.0487
 1675W        W 5726   4.859   3.222  12.016  0.2660 -0.4040  0.1029
 1676W        W 5727   9.369   3.463   2.392  0.0298 -0.0013  0.1216
 1677W        W 5728   6.377   1.986  10.364 -0.1938 -0.2567  0.0077
 1678W        W 5729   4.932   0.461  10.584  0.1166 -0.3419  0.3156
 1679W        W 5730   3.916   3.992   2.854  0.0116 -0.2308  0.1376
 1680W        W 5731   6.698   8.070   2.728 -0.1425  0.0754 -0.1732
 1681W        W 5732   6.762   9.307  10.626 -0.0240 -0.0587 -0.0312
 1682W        W 5733   3.758   2.586   1.449  0.3549 -0.2331 -0.0136
 1683W        W 5734   3.643   3.252  11.300  0.2179  0.0775  0.0006
 1684W        W 5735   2.476   0.580  13.114 -0.0484  0.2039 -0.0767
 1685W        W 5736   9.291   1.408   9.909  0.1113 -0.0488  0.1706
 1686W        W 5737   1.421   4.452   1.852  0.2965 -0.0839 -0.0759
 1687W        W 5738   9.705   0.935  12.768 -0.0379 -0.1670  0.1502
 1688W        W 5739   6.103   5.974   2.166  0.0161  0.0316 -0.1600
 1689W        W 5740   3.463   8.283   4.262  0.2755 -0.0662  0.2001
 1690W        W 5741   1.586   4.322  12.505  0.0718  0.0757  0.1443
 1691W        W 5742   6.596   1.134   9.760 -0.1055  0.2212  0.0208
 1692W        W 5743   8.515   1.074   2.656  0.2756 -0.0865  0.1862
 1693W        W 5744   7.891   4.366   4.824 -0.1205  0.0998 -0.0805
 1694W        W 5745   3.990   2.543  11.642  0.0591 -0.2701 -0.0061
 1695W        W 5746   9.075   5.857  13.066 -0.0163 -0.4478  0.1618
 1696W        W 5747   3.013   6.635   2.013  0.1015 -0.0263  0.2618
 1697W        W 5748   5.699   1.219   9.273 -0.1670  0.2285  0.0724
 1698W        W 5749  10.044   3.305   3.038  0.2592  0.4218 -0.3175
 1699W        W 5750   8.672   8.328   9.905 -0.1777  0.1269  0.1665
 1700W        W 5751   5.049   1.621  11.849  0.2862 -0.1570 -0.4815
 1701W        W 5752   5.176   8.279  10.050 -0.0030  0.0720 -0.2002
 1702W        W 5753   7.105   6.665  11.766  0.1783  0.1945 -0.0040
 1703W        W 5754   8.328   9.511   9.869 -0.0412  0.0128  0.0207
 1704W        W 5755   5.262   6.800  11.431  0.1644  0.1546  0.2411
 1705W        W 5756   8.527   6.040   4.786  0.0301  0.1334 -0.0385
 1706W        W 5757   7.146   7.311  11.669  0.1794 -0.1853 -0.0141
 1707W        W 5758   5.425   3.678  10.456  0.0424 -0.0130  0.0572
 1708W        W 5759   2.555   5.843  13.242  0.0164  0.1541 -0.0625
 1709W        W 5760   5.844   3.024  11.302  0.1254  0.0784  0.1762
 1710W        W 5761  10.070   6.421  10.349 -0.1781 -0.1369  0.3238
 1711W        W 5762   0.458   2.885  12.060 -0.0000  0.0104 -0.3205
 1712W        W 5763   6.145   3.458  12.677 -0.0311  0.2597 -0.0765
 1713W        W 5764   3.961   8.507  12.557  0.0340  0.2484  0.4174
 1714W        W 5765   5.828   1.349   0.034 -0.0406  0.0557 -0.0976
 1715W        W 5766   8.142   5.295  13.089 -0.1787  0.2631 -0.0779
 1716W        W 5767   5.171   1.622  13.323 -0.0664 -0.1263  0.0411
 1717W        W 5768   0.140   7.001  12.153 -0.2060  0.2222 -0.1567
 1718W        W 5769   1.817   3.870  12.615  0.0081 -0.1329  0.0089
 1719W        W 5770   8.718   6.918   1.380 -0.1368 -0.1329 -0.0439
 1720W        W 5771   8.070   3.765  11.503 -0.2257  0.1018  0.0023
 1721W        W 5772   0.556   2.343  12.043  0.1151  0.0839 -0.1581
 1722W        W 5773   8.827   2.815  12.534 -0.3950  0.1254 -0.0756
 1723W        W 5774   4.328   3.850   1.906 -0.0081  0.1322 -0.1332
 1724W        W 5775   0.303   8.450   3.754 -0.0078 -0.1334 -0.0640
 1725W        W 5776   3.320   1.245   1.284  0.3316  0.1116 -0.3042
 1726W        W 5777   9.679   6.319  10.584 -0.2048 -0.0250 -0.0250
 1727W        W 5778   7.941   4.927   4.187 -0.1680 -0.1319  0.1470
 1728W        W 5779   8.379   9.144   3.738  0.0828 -0.2496  0.2532
 1729W        W 5780   5.968   7.813   1.472  0.3225 -0.2356  0.4152
 1730W        W 5781   6.644   5.752   4.764 -0.0638  0.4853  0.0042
 1731W        W 5782   9.095   2.211   3.141  0.1408 -0.1684 -0.2799
 1732W        W 5783   5.298   4.541  13.341  0.3032  0.1673 -0.0798
 1733W        W 5784   1.765   2.623   1.879 -0.0150  0.1318 -0.2442
 1734W        W 5785   5.757   6.899  11.411 -0.1290  0.1200  0.2169
 1735W        W 5786   9.297   0.466   3.744  0.2714  0.0140  0.2479
 1736W        W 5787   1.649   5.821   3.498  0.2293  0.0535 -0.0539
 1737W        W 5788   6.976   6.829   0.727 -0.0215 -0.1884 -0.1639
 1738W        W 5789   2.828   4.430   3.245  0.3414  0.3549 -0.1577
 1739W        W 5790   4.652   9.609   2.549 -0.2930  0.0378  0.2371
 1740W        W 5791   2.804   9.915   2.104  0.3436 -0.0358 -0.0871
 1741W        W 5792   4.900   5.832   1.975  0.0545  0.1614  0.1359
 1742W        W 5793   1.111   1.441   3.281  0.1594 -0.0695  0.0352
 1743W        W 5794   0.955   6.841  11.752 -0.0877 -0.2313 -0.1131
 1744W        W 5795   9.068   5.203  10.425 -0.0066  0.0038  0.1884
 1745W        W 5796   6.933   6.380  12.231 -0.0010  0.0850 -0.0345
 1746W        W 5797   6.270   1.567  10.739 -0.0183  0.2024  0.2014
 1747W        W 5798   9.324   3.511   3.976 -0.0293 -0.0643  0.0664
 1748W        W 5799   6.697   9.428   4.266 -0.0830  0.1206 -0.1127
 1749W        W 5800   7.959   4.541   0.667  0.0695 -0.0913  0.1677
 1750W        W 5801   3.419   0.855   0.382 -0.0751  0.1998 -0.0658
 1751W        W 5802   8.369   6.847   3.588  0.2836  0.1747 -0.2958
 1752W        W 5803  10.001   8.087   9.616  0.0952 -0.2863  0.3253
 1753W        W 5804   8.935   9.102  11.711 -0.0867  0.0534 -0.0125
 1754W        W 5805   4.684   0.931   8.871  0.0998 -0.0884 -0.0523
 1755W        W 5806   9.256   4.189   1.856 -0.3416  0.0035 -0.0613
 1756W        W 5807   2.741   0.990  13.158 -0.1245  0.1220  0.3510
 1757W        W 5808   3.796   2.650  12.127  0.2192  0.0858 -0.3056
 1758W        W 5809   1.698   0.928   3.133  0.2035 -0.0591  0.3104
 1759W        W 5810  10.120   9.010   3.920  0.4025 -0.2872 -0.0017
 1760W        W 5811   7.011   1.856   9.443 -0.3867 -0.0113  0.2897
 1761W        W 5812   2.518   3.284  12.533 -0.2553  0.1709 -0.4794
 1762W        W 5813   7.644   4.072  10.284  0.1266 -0.1325 -0.2241
 1763W        W 5814   6.639   4.460   0.042  0.3129  0.3103  0.0162
 1764W        W 5815   7.840   6.247  10.335  0.2464  0.4504 -0.2155
 1765W        W 5816   9.253   5.967   2.058 -0.0740 -0.0579 -0.3650
 1766W        W 5817   0.470   9.937   3.151  0.1824 -0.0968  0.0032
 1767W        W 5818   3.258   5.241   1.080  0.2053 -0.0328 -0.0464
 1768W        W 5819   4.794   8.519  11.472  0.0465 -0.3395  0.3261
 1769W        W 5820   9.061   7.567   0.289  0.0928  0.2794 -0.1371
 1770W        W 5821   7.611   7.952   3.672 -0.1808 -0.1314  0.2978
 1771W        W 5822   5.373   9.973  11.489  0.3080  0.2432 -0.1051
 1772W        W 5823   8.931   6.672   3.894 -0.1358  0.0127 -0.1252
 1773W        W 5824   8.286   0.652   4.500  0.3128  0.1073 -0.1330
 1774W        W 5825   7.669   6.565  13.670 -0.1306  0.1625 -0.2422
 1775W        W 5826   7.818   4.783   2.599  0.2451  0.0147  0.1097
 1776W        W 5827   5.476   8.388  10.836 -0.0226  0.0075  0.0729
 1777W        W 5828   4.355   9.368   0.721  0.2589 -0.1695  0.0975
 1778W        W 5829   2.600   3.617   0.166  0.3488 -0.2940  0.1387
 1779W        W 5830   5.959   0.708   2.004  0.0763  0.0367 -0.0069
 1780W        W 5831   5.825   8.281   9.826  0.2137  0.3385 -0.0716
 1781W        W 5832   2.083   6.895  10.970 -0.2044  0.0671  0.1345
 1782W        W 5833  10.054   7.848   2.662  0.2296  0.1704 -0.2556
 1783W        W 5834   1.997   5.546   0.618  0.2488 -0.0649 -0.2457
 1784W        W 5835   8.816   6.303   5.044 -0.0794  0.0397 -0.3333
 1785W        W 5836   2.953   7.820  12.080  0.1567  0.3380  0.4933
 1786W        W 5837   9.561   3.650  10.247 -0.1242  0.0761 -0.0509
 1787W        W 5838  10.085   1.531  10.945 -0.1606  0.0496 -0.3482
 1788W        W 5839   6.595   3.250   1.513 -0.1887 -0.3320 -0.1781
 1789W        W 5840   8.505   2.379  13.045 -0.0228 -0.0900 -0.2148
 1790W        W 5841   5.970   0.424   4.764 -0.1616 -0.1592 -0.1557
 1791W        W 5842   0.770   2.628  12.370  0.0996  0.1057 -0.1080
 1792W        W 5843   0.359   7.455  12.442  0.1938 -0.0035  0.1708
 1793W        W 5844   9.554   7.780   4.973 -0.4171 -0.1642 -0.0493
 1794W        W 5845   9.431   9.811   1.719 -0.0242 -0.0205  0.2597
 1795W        W 5846   8.523   1.607   0.656  0.0396  0.1871 -0.2656
 1796W        W 5847   5.617   5.914   2.510  0.0602  0.1234 -0.0325
 1797W        W 5848   7.698   0.665  10.777  0.0524  0.2061 -0.0505
 1798W        W 5849   9.166   5.081  12.044 -0.0210  0.0389  0.0085
 1799W        W 5850   8.105   1.130   3.655  0.0420  0.0075  0.1697
 1800W        W 5851   2.239   0.625  11.086  0.1689  0.3150  0.0177
 1801W        W 5852   3.497   0.684   1.244 -0.0778  0.0070  0.1442
 1802W        W 5853   3.633   7.820   2.421 -0.0006 -0.0497  0.1040
 1803W        W 5854   9.303   4.407  11.325 -0.1695 -0.1164  0.0743
 1804W        W 5855   8.831   1.410  10.144  0.0488 -0.1783  0.0111
 1805W        W 5856   5.936   1.959   1.352  0.3629  0.2394  0.0922
 1806W        W 5857   4.121  10.078   9.512  0.0214 -0.2997 -0.1394
 1807W        W 5858   7.216   7.424  13.713 -0.1466 -0.4146  0.1401
 1808W        W 5859   0.499   3.387  12.905 -0.0378  0.1821  0.1657
 1809W        W 5860   0.516   0.592  13.742 -0.2587 -0.2262  0.1252
 1810W        W 5861   2.231   2.997   1.117  0.0170  0.0777  0.0405
 1811W        W 5862  10.001   2.533   9.924 -0.0968  0.1244  0.1844
 1812W        W 5863   8.125   3.071  13.344 -0.0800 -0.1755  0.0086
 1813W        W 5864   0.235   2.630  11.616  0.0408  0.1077  0.2690
 1814W        W 5865   6.155   9.339  12.485 -0.0787  0.0690 -0.1427
 1815W        W 5866   6.805   4.698  10.309 -0.0583  0.0184  0.0098
 1816W        W 5867   8.171   8.673   1.295 -0.1811 -0.1419 -0.4323
 1817W        W 5868   6.847   9.913   4.209  0.1144  0.0360 -0.2290
 1818W        W 5869   3.176   8.714  11.656  0.1808 -0.1060  0.0817
 1819W        W 5870   4.538   9.019   9.919 -0.1705  0.1901  0.0573
 1820W        W 5871   5.017   3.804   0.217  0.0055  0.1182  0.2003
 1821W        W 5872   7.340   1.975   2.653 -0.2829 -0.1292 -0.0892
 1822W        W 5873   1.095   8.354   9.305  0.1903  0.0543  0.3255
 1823W        W 5874   8.331   3.526   4.042  0.1085  0.0626 -0.4496
 1824W        W 5875   8.514   0.430  12.319  0.1956  0.0517  0.1601
 1825W        W 5876   8.246   6.451   4.749 -0.0247 -0.1386 -0.2876
 1826W        W 5877   4.619   2.179   0.661 -0.0387  0.1082  0.1020
 1827W        W 5878   0.015   3.018  12.152  0.1208  0.2181 -0.3111
 1828W        W 5879   9.465   1.406   1.157 -0.1575 -0.3201  0.0944
 1829W        W 5880   5.587  10.005   0.684 -0.0184  0.0290  0.0822
 1830W        W 5881   5.811   4.316  12.072 -0.2295  0.2472 -0.0277
 1831W        W 5882   5.051   0.982   1.633 -0.1917 -0.3139 -0.0056
 1832W        W 5883   1.666   3.950  10.300 -0.2263 -0.3018 -0.1276
 1833W        W 5884   2.969   6.203   3.059 -0.0350 -0.3432 -0.2132
 1834W        W 5885   9.490   9.380  11.014  0.2404 -0.0124  0.3009
 1835W        W 5886   8.453   0.970   0.859 -0.2299  0.1752 -0.0474
 1836W        W 5887   3.878   3.538   2.529  0.0776  0.2049  0.0449
 1837W        W 5888   2.374   3.127   0.044 -0.0598 -0.3688  0.1662
 1838W        W 5889   8.256   2.101  10.222  0.0914 -0.1053 -0.0194
 1839W        W 5890   9.165   7.588   2.951  0.0222 -0.1669  0.1614
 1840W        W 5891   3.533   7.690  12.627 -0.2978 -0.0284  0.0081
 1841W        W 5892   4.672   3.340   3.991 -0.1163 -0.3451 -0.1949
 1842W        W 5893   8.135   0.019   5.064 -0.2186  0.0307 -0.3392
 1843W        W 5894   4.513   8.847   1.579 -0.3014 -0.0922  0.0380
 1844W        W 5895   9.378   7.880   2.032  0.1828 -0.1157 -0.0367
 1845W        W 5896   2.423   4.559   3.929  0.0401  0.1000 -0.3799
 1846W        W 5897   4.544   4.242   2.643  0.0704 -0.2235 -0.1215
 1847W        W 5898  10.004   7.545   1.127  0.1000 -0.0247 -0.1554
 1848W        W 5899   8.640   4.726   3.212 -0.0208  0.2909 -0.1610
 1849W        W 5900   1.539   1.450   2.039 -0.3198 -0.0815  0.2458
 1850W        W 5901   9.134   0.764   4.610 -0.4684  0.2210 -0.3450
 1851W        W 5902   9.673   1.106  10.587 -0.1827 -0.2852 -0.0202
 1852W        W 5903   3.001   2.674  11.805  0.0838 -0.0464  0.1324
 1853W        W 5904   5.174   2.154   3.545 -0.3823  0.0942 -0.3141
 1854W        W 5905   0.235   6.834  13.887  0.1468  0.0826  0.1895
 1855W        W 5906  10.057   3.020   0.505 -0.1440  0.0278 -0.0188
 1856W        W 5907   0.089   7.594  11.274 -0.1072  0.0822 -0.2171
 1857W        W 5908   9.717   2.414   2.436  0.0800 -0.2118 -0.2044
 1858W        W 5909   7.707   4.045  11.561  0.0733 -0.1217  0.0823
 1859W        W 5910   4.356   7.087  11.412 -0.0225  0.3445  0.1726
 1860W        W 5911   6.848   7.351   2.190 -0.0789  0.3370 -0.0904
 1861W        W 5912   4.451   6.170  12.700  0.1821 -0.1657 -0.3011
 1862W        W 5913  10.202   6.886   3.752 -0.1637  0.1764  0.3716
 1863W        W 5914   1.220   4.072  10.026 -0.1272 -0.0333 -0.1352
 1864W        W 5915   4.734   5.614   3.558  0.1422  0.0364 -0.3894
 1865W        W 5916   5.464   5.777   4.690 -0.1994  0.2197  0.1632
 1866W        W 5917   9.900   4.298   9.673  0.1655  0.0932 -0.0821
 1867W        W 5918   2.408   0.263   2.269 -0.1150 -0.0142  0.1547
 1868W        W 5919   9.182   9.043   9.695  0.1502 -0.3322  0.0799
 1869W        W 5920   7.836   8.931  13.065 -0.2496  0.2498  0.1778
 1870W        W 5921   6.278   8.157  10.093 -0.1850 -0.0322 -0.2528
 1871W        W 5922   8.938   5.275  13.352 -0.0496  0.1816  0.1040
 1872W        W 5923   7.804   3.202  12.587  0.1601 -0.1569  0.1228
 1873W        W 5924   5.651   1.387   1.513 -0.0921 -0.1967 -0.0417
 1874W        W 5925   7.893  10.011  12.002 -0.0368 -0.0030 -0.0546
 1875W        W 5926   8.531   3.701  12.062  0.2502 -0.2255  0.2659
 1876W        W 5927   9.015   1.280   0.854  0.0750  0.1479  0.0040
 1877W        W 5928   4.121   1.480   1.455 -0.2079  0.1185 -0.2515
 1878W        W 5929   0.311   8.691  13.185 -0.0249  0.0196  0.0256
 1879W        W 5930   8.998   3.640  10.942 -0.0530 -0.0576  0.0073
 1880W        W 5931   4.006   4.402   2.477 -0.1579 -0.1822 -0.0988
 1881W        W 5932   4.028   5.918   1.506  0.0315 -0.2035 -0.1423
 1882W        W 5933   0.016   0.408   3.705  0.0498  0.2755 -0.0835
 1883W        W 5934   9.795   4.169   1.864 -0.0159 -0.1871 -0.0503
 1884W        W 5935   5.198   9.016   2.298 -0.0895  0.0304 -0.0692
 1885W        W 5936   3.351   6.821   1.187 -0.0317  0.1742 -0.0283
 1886W        W 5937   2.719   1.874  10.168  0.1273 -0.3933  0.1258
 1887W        W 5938   2.916   1.373  10.180  0.1188 -0.1568  0.1188
 1888W        W 5939   5.039   2.216   0.008  0.1971 -0.1908 -0.1115
 1889W        W 5940   3.717   1.959   3.352  0.0155 -0.1000 -0.4596
 1890W        W 5941   5.094   4.763   2.962  0.3849  0.0076  0.1461
 1891W        W 5942   2.158   8.513   3.657  0.0959 -0.2759 -0.2631
 1892W        W 5943   0.615   3.463   1.552 -0.3081  0.1782 -0.0136
 1893W        W 5944   7.882   0.113   2.731 -0.0378  0.3470 -0.3349
 1894W        W 5945   0.686   5.707   3.286  0.0439  0.3779 -0.1681
 1895W        W 5946   8.687   6.097   4.102 -0.0149 -0.1893  0.1363
 1896W        W 5947   3.325   5.750  11.719  0.1752  0.1127  0.3196
 1897W        W 5948   4.550   2.960  13.278 -0.3627 -0.2527 -0.2055
 1898W        W 5949   4.908   7.338   4.232 -0.4066  0.0293  0.2683
 1899W        W 5950   3.248   2.905   2.980  0.0282  0.0557  0.3660
 1900W        W 5951   5.884   8.420   1.890  0.1029 -0.3141 -0.1103
 1901W        W 5952   9.151   7.582  11.604 -0.0507 -0.0960 -0.5837
 1902W        W 5953   2.319   2.772  12.689 -0.1854  0.1015 -0.2175
 1903W        W 5954   5.072   2.408  12.907 -0.1553  0.1749 -0.0119
 1904W        W 5955   6.581   8.359   5.353  0.0976  0.2279 -0.0496
 1905W        W 5956   2.005   8.569   3.065 -0.1843  0.1230  0.4938
 1906W        W 5957   8.165   7.422   8.976 -0.2863  0.2683  0.0412
 1907W        W 5958   4.079   3.083   2.963 -0.0394  0.3633 -0.1314
 1908W        W 5959   4.180   7.509   3.168  0.2082 -0.1123  0.1967
 1909W        W 5960   5.213   8.731   4.307  0.3227  0.0560 -0.1456
 1910W        W 5961   3.737   3.539  10.838  0.0073 -0.2384 -0.2163
 1911W        W 5962   9.264   8.775   3.420 -0.2679  0.1538  0.1286
 1912W        W 5963   6.185   9.391   4.123  0.1429 -0.1016  0.0638
 1913W        W 5964   4.169   3.480   0.210  0.2019  0.1800  0.2772
 1914W        W 5965   6.154   1.308  11.239  0.0824 -0.0736  0.3844
 1915W        W 5966   0.322   5.790   1.841  0.2159  0.0587  0.0862
 1916W        W 5967   1.089   2.648  11.408  0.1040 -0.1815  0.1649
 1917W        W 5968   8.966   4.610   0.783 -0.0055  0.2957 -0.0971
 1918W        W 5969   5.269   4.457  10.771 -0.2880  0.1977 -0.0891
 1919W        W 5970   2.554   2.461   3.167  0.3487 -0.0777  0.1436
 1920W        W 5971   6.545   9.504   3.767 -0.0566  0.0328 -0.3530
 1921W        W 5972   2.725   4.459  11.485  0.2596  0.2860  0.1845
 1922W        W 5973  10.114   3.760   0.924 -0.0077  0.3536  0.0273
 1923W        W 5974   6.145   0.933   9.159  0.0357  0.2545  0.0056
 1924W        W 5975   9.104   8.060   0.438 -0.0762 -0.0766  0.2189
 1925W        W 5976   4.492   7.599   0.890 -0.1658 -0.2782  0.0448
 1926W        W 5977   4.025   7.655  10.258  0.0087  0.0851  0.0539
 1927W        W 5978   3.744   5.708   0.141 -0.1508 -0.0648  0.1005
 1928W        W 5979   7.538   8.601  11.343 -0.1679 -0.0926 -0.0477
 1929W        W 5980   7.231   2.145   4.232 -0.1236 -0.1558 -0.4322
 1930W        W 5981   7.141   4.410   2.705  0.1002  0.1441  0.0858
 1931W        W 5982   5.028   2.520   9.970 -0.2336  0.1312 -0.1338
 1932W        W 5983   5.929   6.188  12.616 -0.2239  0.4148  0.2337
 1933W        W 5984   2.328   5.159   3.230 -0.2151 -0.1854  0.0167
 1934W        W 5985   0.712   3.685   9.376  0.0828  0.0267  0.1020
 1935W        W 5986   6.531   3.116   3.734 -0.0487  0.0337 -0.1980
 1936W        W 5987   5.905   2.326   0.524  0.0696  0.1105 -0.1279
 1937W        W 5988   2.204   2.235  13.479 -0.0365  0.2473  0.1167
 1938W        W 5989   5.377  10.020   4.986  0.1787 -0.0752 -0.1032
 1939W        W 5990   6.855  10.134   5.476  0.5145  0.0707 -0.0407
 1940W        W 5991   2.271   1.075   1.689 -0.2850 -0.0978  0.2481
 1941W        W 5992   2.647   9.453  13.258  0.0078 -0.0675  0.0369
 1942W        W 5993   8.032   8.400  13.466  0.0641  0.0896 -0.1915
 1943W        W 5994   3.011   4.560  12.857  0.2324 -0.0383 -0.1486
 1944W        W 5995   7.041   2.835  12.008 -0.0184 -0.3794 -0.1380
 1945W        W 5996   6.479   8.682   4.659  0.3713 -0.0679 -0.1734
 1946W        W 5997   5.656   3.537  12.636  0.0424  0.3496  0.0739
 1947W        W 5998   0.905   6.012   2.964 -0.0995  0.0196  0.1968
 1948W        W 5999   2.634   2.500  11.371  0.0440 -0.3319 -0.0206
 1949W        W 6000   7.113   7.724   5.554 -0.0500  0.1978 -0.0632
 1950W        W 6001   1.203   7.151  13.078  0.2542 -0.1064  0.0530
 1951W        W 6002   6.910   5.206  10.171 -0.1209 -0.1558 -0.1882
 1952W        W 6003   3.685   6.178   0.330 -0.1047 -0.0792 -0.1166
 1953W        W 6004   3.021   7.448   9.426  0.1531  0.3349 -0.0264
 1954W        W 6005   1.689   7.351  12.669 -0.2689 -0.1160 -0.0615
 1955W        W 6006   9.307   3.052   3.712 -0.1232  0.1163 -0.1666
 1956W        W 6007   9.091   6.399  11.146 -0.3029 -0.0267 -0.0015
 1957W        W 6008   7.032   8.063  12.303  0.1317  0.2979  0.0882
 1958W        W 6009   2.759   7.064  12.260 -0.2045  0.0341  0.1247
 1959W        W 6010   1.179   3.743  10.401  0.2885  0.1471 -0.2820
 1960W        W 6011   5.584   7.643   3.717 -0.0588  0.1997 -0.0320
 1961W        W 6012   2.902   1.530  10.681 -0.1118  0.0280  0.1308
 1962W        W 6013   4.541   2.524  13.084 -0.0826 -0.0402  0.0298
 1963W        W 6014   8.540   0.441   9.427 -0.1115 -0.0333  0.2116
 1964W        W 6015   6.727   6.696   0.259 -0.2649  0.2075 -0.1565
 1965W        W 6016   1.348   4.921   0.442  0.1777 -0.0064  0.2061
 1966W        W 6017   0.575   5.231   3.661 -0.0865 -0.0113 -0.0918
 1967W        W 6018   7.600   9.171   0.740 -0.0229 -0.1527  0.1759
 1968W        W 6019   0.352   2.770   4.095  0.0397 -0.2431 -0.0219
 1969W        W 6020   9.966   1.249  13.587 -0.2179 -0.1705  0.0415
 1970W        W 6021   4.379   1.040   1.494  0.3764 -0.0641 -0.2130
 1971W        W 6022   9.180   3.490  11.813  0.2134 -0.0086  0.1371
 1972W        W 6023   7.257   6.848  10.627 -0.2528  0.0888  0.1666
 1973W        W 6024  10.110   5.885  11.971 -0.1040  0.2196  0.2402
 1974W        W 6025   6.633   6.414   1.956 -0.1399  0.0036  0.1832
 1975W        W 6026   3.391   1.245  11.325 -0.1353  0.1837  0.2805
 1976W        W 6027   0.424   7.590   9.687 -0.2387  0.1255  0.0773
 1977W        W 6028   9.095   3.037  10.838  0.3538  0.0541  0.1405
 1978W        W 6029   3.482   7.081   2.607 -0.2182  0.0887  0.1520
 1979W        W 6030   8.036   1.377  13.663 -0.0025 -0.0838 -0.1220
 1980W        W 6031   0.403   9.622   0.491  0.0792 -0.1713  0.2295
 1981W        W 6032   9.281   1.548   2.370  0.1768 -0.0987 -0.1232
 1982W        W 6033   8.067   7.765   4.842 -0.0098  0.1489  0.1427
 1983W        W 6034   9.595   7.218   9.382 -0.0192 -0.2077  0.3103
 1984W        W 6035   9.109   5.597  12.145  0.2263  0.0035  0.0380
 1985W        W 6036   2.597   6.570   2.961 -0.2290 -0.1763 -0.2646
 1986W        W 6037   6.016   3.465   9.911 -0.1190  0.2300 -0.2025
 1987W        W 6038   8.807   2.491   4.060 -0.4342  0.2590 -0.1027
 1988W        W 6039   2.712   4.824  10.742  0.2698 -0.2893  0.1481
 1989W        W 6040   5.423   3.283  11.379 -0.0620 -0.0952  0.3289
 1990W        W 6041   2.655   0.288  10.886  0.2103 -0.2067 -0.1530
 1991W        W 6042   7.271   8.921   1.767  0.2510  0.2306 -0.1262
 1992W        W 6043   6.157   8.534  12.086  0.1445 -0.0119  0.0888
 1993W        W 6044   6.396   2.224  11.587 -0.1235 -0.0317 -0.1431
 1994W        W 6045   9.733   9.757  10.869  0.2283  0.1480  0.0706
 1995W        W 6046   8.964   1.483   4.455  0.1500 -0.0440 -0.0810
 1996W        W 6047   8.367   2.393   2.757 -0.1973  0.1309 -0.0167
 1997W        W 6048   2.996   0.179   3.151  0.1263  0.0800  0.0492
 1998W        W 6049   3.420   7.248  10.544 -0.0196  0.0120  0.1006
 1999W        W 6050   7.688   5.624   4.075 -0.0801  0.2908 -0.0740
 2000W        W 6051   2.565   9.948   3.917  0.1537 -0.0792  0.0820
 2001W        W 6052   9.165   0.385   3.249  0.0857 -0.1151  0.0242
 2002W        W 6053   7.388   8.105  11.271 -0.1191  0.1198 -0.0909
 2003W        W 6054   8.499   4.265  12.668  0.1718 -0.0308  0.1523
 2004W        W 6055   0.503   7.141   2.506  0.0199 -0.1681  0.3325
 2005W        W 6056   5.013   4.150  13.045  0.1134 -0.0492  0.0119
 2006W        W 6057   7.946   0.902  11.143  0.1541 -0.0651 -0.2621
 2007W        W 6058   1.690   6.864   2.975 -0.0446 -0.3540  0.0254
 2008W        W 6059   3.514   8.807  13.151  0.3337  0.0580  0.0278
 2009W        W 6060   3.599   0.959  13.805 -0.1755 -0.2463 -0.0257
 2010W        W 6061   0.611   6.669   2.211  0.0225 -0.0096  0.2392
 2011W        W 6062   3.816   7.791   9.798 -0.0548 -0.0165  0.1163
 2012W        W 6063   6.474   0.879   3.242  0.1385 -0.3957 -0.0182
 2013W        W 6064   0.729   9.634   2.351 -0.0323  0.0648 -0.0230
 2014W        W 6065   4.190  10.001   1.516 -0.0525  0.2356 -0.0465
 2015W        W 6066   8.499   8.228  13.475 -0.1042  0.0874 -0.0273
 2016W        W 6067   5.426   9.158  11.545 -0.1950  0.3439  0.3974
 2017W        W 6068   3.466   3.680   2.859 -0.1244  0.1808  0.3368
 2018W        W 6069   9.452   7.469  10.128 -0.1117  0.1292 -0.2174
 2019W        W 6070   7.590   5.819   8.754  0.2821  0.3673  0.2021
 2020W        W 6071   6.815   0.298   0.001 -0.2568 -0.0952 -0.1599
 2021W        W 6072   1.624   0.271  11.892 -0.0215 -0.2473 -0.1134
 2022W        W 6073   7.031   6.204   0.106 -0.0687  0.0166  0.1752
 2023W        W 6074   5.859   9.825   2.537 -0.2463 -0.0522 -0.1293
 2024W        W 6075   7.070   0.198   1.031 -0.0584 -0.2300 -0.0643
 2025W        W 6076   4.119   8.806  13.428  0.0872 -0.0055 -0.0424
 2026W        W 6077   1.161   8.443  12.108  0.3703  0.0034  0.3328
 2027W        W 6078   6.078   6.337   0.851 -0.0508 -0.1597 -0.0461
 2028W        W 6079   0.820   4.967  12.779 -0.2645  0.0812 -0.3046
 2029W        W 6080   1.803   7.008  11.757 -0.5570 -0.3832 -0.3158
 2030W        W 6081   6.487   4.917   9.008  0.2883 -0.1500  0.0591
 2031W        W 6082   9.983   2.273  11.757  0.1883 -0.0494 -0.1430
 2032W        W 6083   7.119   5.993  10.702 -0.1937  0.1524  0.2969
 2033W        W 6084   4.010   6.245  10.627  0.0150 -0.0771  0.1067
 2034W        W 6085   7.572   9.900   3.890  0.0411 -0.1053 -0.0703
 2035W        W 6086   8.290   8.244   1.023 -0.0371  0.1142 -0.0444
 2036W        W 6087   7.768   9.520   9.128 -0.0658 -0.0577  0.1667
 2037W        W 6088   9.580   2.669  12.111 -0.2633 -0.4241  0.1605
 2038W        W 6089   9.211   0.595  11.887  0.0733  0.2920  0.1911
 2039W        W 6090   0.406   6.321  11.574  0.3001  0.0983  0.0265
 2040W        W 6091   9.143   6.215   8.777  0.1343 -0.3676 -0.2575
 2041W        W 6092   6.929   3.533   1.906 -0.3589 -0.0136  0.1846
 2042W        W 6093   5.377   6.721   0.014 -0.0191 -0.3180 -0.1085
 2043W        W 6094   8.952   7.988   3.275  0.3410 -0.1552  0.3264
 2044W        W 6095   7.264   8.475  10.388  0.4413  0.3885 -0.0868
 2045W        W 6096   2.811   8.845   5.616  0.2176 -0.0283 -0.0027
 2046W        W 6097   2.580   0.710   3.814  0.0909  0.0947 -0.0868
 2047W        W 6098   3.411   2.268   0.217 -0.1632 -0.2320  0.1748
 2048W        W 6099   4.298   7.282   0.537  0.3786 -0.0725  0.0890
 2049W        W 6100   0.806   4.172   2.587  0.0497  0.1449  0.1055
 2050W        W 6101   8.516   1.999   9.756 -0.1069 -0.0961  0.0852
 2051W        W 6102   6.622   2.130  13.308 -0.0240  0.2650  0.0932
 2052W        W 6103   9.502   2.085   4.465 -0.3165 -0.0632  0.0266
 2053W        W 6104   2.479   0.775   1.216 -0.0509  0.1648  0.1245
 2054W        W 6105   5.780   0.464  12.730 -0.0402 -0.2598  0.2593
 2055W        W 6106   1.592   0.006   9.629  0.0766  0.2683 -0.2348
 2056W        W 6107   3.149   1.864   4.472  0.2850  0.1922 -0.0731
 2057W        W 6108   0.861   0.790   0.141 -0.1661  0.1476  0.1329
 2058W        W 6109   9.138   7.676   2.470  0.1094 -0.1570 -0.1356
 2059W        W 6110   5.383   4.756  11.233 -0.1649  0.0301  0.0106
 2060W        W 6111   3.430   2.740  13.186  0.1572  0.0372 -0.2601
 2061W        W 6112   2.375   0.203   0.356  0.0194 -0.0358 -0.2277
 2062W        W 6113   7.347   6.492   5.418  0.2149  0.2007 -0.2684
 2063W        W 6114   0.562   8.874  12.516  0.1952  0.4143 -0.4219
 2064W        W 6115   3.630   3.346  12.311  0.1254 -0.1178 -0.3012
 2065W        W 6116   0.377   9.949   4.500 -0.2846 -0.0421  0.1636
 2066W        W 6117   7.896   5.017  12.240  0.0156  0.0884 -0.1189
 2067W        W 6118   4.841   4.617   2.501 -0.0582 -0.0767 -0.1672
 2068W        W 6119   4.757   1.992   3.377 -0.0339 -0.0267  0.0388
 2069W        W 6120   7.258   1.911   3.171  0.1272  0.0114 -0.1398
 2070W        W 6121   9.047   4.997  11.004  0.1604 -0.1558  0.1504
 2071W        W 6122   0.022   4.682   9.763 -0.1187  0.1663  0.0288
 2072W        W 6123   0.473   2.399   4.604  0.0455 -0.1004 -0.4082
 2073W        W 6124   7.909   3.141   0.122  0.3427 -0.0197 -0.2702
 2074W        W 6125   7.587   9.683  10.226 -0.0145  0.0839 -0.0767
 2075W        W 6126   5.763   3.481   3.489 -0.1241  0.3235 -0.0611
 2076W        W 6127   1.365   3.404   2.207  0.2222  0.2540  0.2523
 2077W        W 6128   1.416   1.084  12.253  0.3805 -0.3321  0.0279
 2078W        W 6129   6.541   7.182   9.206 -0.0459  0.3389  0.1885
 2079W        W 6130   2.381   8.092   1.789 -0.0965  0.0204  0.0959
 2080W        W 6131   3.838   7.990   2.892 -0.0253  0.2629  0.1998
 2081W        W 6132   4.860   2.873  13.818  0.3415  0.0985  0.0617
 2082W        W 6133  10.095   4.879   1.192  0.2081  0.0416  0.2373
 2083W        W 6134   7.108   0.882  12.767  0.0564  0.0700 -0.1008
 2084W        W 6135   0.825   3.131  10.002  0.0709  0.0522  0.1088
 2085W        W 6136   6.114   9.103  13.689  0.0234  0.0683 -0.0427
 2086W        W 6137   8.811   9.143   2.710 -0.1237 -0.0316 -0.3720
 2087W        W 6138   5.440   5.708  11.230 -0.1774  0.0502  0.0795
 2088W        W 6139   4.431   0.520   0.501  0.2387 -0.3918  0.0519
 2089W        W 6140   5.768   3.247  13.003 -0.3014 -0.0369 -0.0314
 2090W        W 6141   3.734   0.808   0.789  0.1388 -0.1186  0.0989
 2091W        W 6142   1.482   1.308   4.091  0.0044 -0.0126  0.2273
 2092W        W 6143   5.912   4.654   8.767 -0.1168  0.0704 -0.0632
 2093W        W 6144   8.652   2.416   3.181 -0.0179  0.2287 -0.0484
 2094W        W 6145   5.677   4.926   0.910  0.0242  0.1981 -0.0267
 2095W        W 6146   7.257   7.718   4.967 -0.0959 -0.1293  0.0218
 2096W        W 6147   7.671   7.412   3.665 -0.0706 -0.0946 -0.3163
 2097W        W 6148   6.718   9.931   0.253  0.0187 -0.2431 -0.0754
 2098W        W 6149   4.666   2.918   2.870  0.1586 -0.0816  0.0802
 2099W        W 6150   7.376   7.675  12.230  0.3100  0.2943 -0.1442
 2100W        W 6151   7.185   5.959  13.045  0.0343 -0.2158 -0.1024
 2101W        W 6152   6.204   1.117  10.348  0.0710 -0.1475 -0.1101
 2102W        W 6153   2.905   8.946   3.615 -0.2084 -0.0049  0.0788
 2103W        W 6154  10.006   3.310  10.779 -0.3401  0.0578 -0.2096
 2104W        W 6155   7.497   1.978  13.600 -0.0433 -0.1860  0.1803
 2105W        W 6156   5.955   2.748  12.929 -0.1318 -0.0428 -0.1492
 2106W        W 6157   0.619   8.649  10.577 -0.1611  0.0156 -0.2800
 2107W        W 6158   8.107   2.928   1.255  0.1271 -0.2176  0.1212
 2108W        W 6159   9.717   0.440   2.052 -0.0698  0.0622  0.0782
 2109W        W 6160   3.161   7.033   9.776  0.1414 -0.3063 -0.1055
 2110W        W 6161   1.196   2.395   1.679  0.0111 -0.0938  0.3127
 2111W        W 6162   4.875   1.275  11.285  0.1451  0.2008  0.4333
 2112W        W 6163   9.964   2.560  11.338 -0.1815  0.2571 -0.1328
 2113W        W 6164   4.225   0.881   4.033  0.1529 -0.0175 -0.1279
 2114W        W 6165  10.074   0.364   2.664 -0.0823 -0.1232  0.0492
 2115W        W 6166   7.227   0.910   1.314  0.0847 -0.2208 -0.0840
 2116W        W 6167   6.264   7.233   8.740  0.1181  0.0411  0.0021
 2117W        W 6168   7.549   0.600   1.072 -0.1870  0.0160  0.0111
 2118W        W 6169   3.071   4.772   0.884 -0.2793  0.0948  0.3793
 2119W        W 6170   3.947   4.081   1.468 -0.1151  0.1489 -0.0209
 2120W        W 6171   8.877   9.607   2.952 -0.4252 -0.0527  0.0505
 2121W        W 6172   2.557   4.808  13.263  0.1760 -0.0489 -0.0207
 2122W        W 6173   1.821   0.275   3.259  0.3406 -0.2577 -0.0101
 2123W        W 6174   4.313   5.749  11.260  0.0755 -0.1458  0.0939
 2124W        W 6175   7.716   5.820  12.369 -0.7572 -0.1873  0.1742
 2125W        W 6176   0.494   7.310  11.226 -0.0424 -0.1870  0.0945
 2126W        W 6177   6.914   9.981   3.753  0.1104 -0.2091  0.2591
 2127W        W 6178   5.525   5.301   0.401 -0.5054 -0.0627  0.0022
 2128W        W 6179   1.027   7.122   0.433  0.0926  0.1315  0.2107
 2129W        W 6180   7.228   8.529  10.890  0.0707  0.0940 -0.0936
 2130W        W 6181   8.843   9.881  13.480 -0.4005  0.0507  0.3685
 2131W        W 6182   9.514   2.154   9.814  0.1321  0.0390 -0.0940
 2132W        W 6183   8.213   4.154   0.439  0.1721  0.0509  0.0367
 2133W        W 6184   3.814   9.208  10.367 -0.1933  0.2091 -0.3890
 2134W        W 6185   3.910   0.662   5.162  0.1125 -0.0324  0.0742
 2135W        W 6186   4.475   6.178   2.894  0.2559  0.6854  0.1326
 2136W        W 6187   2.939   6.093   4.572 -0.0557  0.5093  0.3207
 2137W        W 6188   8.083   8.402   0.442  0.2417  0.0929 -0.3763
 2138W        W 6189   0.316   2.479  13.413  0.3174 -0.3063  0.2001
 2139W        W 6190   0.135   5.893  13.747 -0.3017 -0.0756 -0.1895
 2140W        W 6191   6.277   9.747   1.515  0.1118  0.3815  0.0214
 2141W        W 6192   7.770   0.356   5.104  0.0685  0.3109  0.0305
 2142W        W 6193   3.234   6.953  12.276 -0.1995 -0.0449 -0.2251
 2143W        W 6194   8.704   1.646  11.071  0.2011 -0.0615  0.2530
 2144W        W 6195  10.166   0.107   1.158  0.2994 -0.0991  0.0559
 2145W        W 6196   8.249   8.043   9.826 -0.1744  0.1749  0.1304
 2146W        W 6197   6.777   5.061  10.993 -0.0063 -0.4069  0.0258
 2147W        W 6198   7.295   7.840  11.755  0.1029  0.1928 -0.0119
 2148W        W 6199   0.642   9.688   8.853 -0.1869 -0.2551 -0.0272
 2149W        W 6200   8.350   9.712   3.691  0.2313 -0.0683  0.2031
 2150W        W 6201   6.134   0.807  11.475  0.2717 -0.2602  0.0692
 2151W        W 6202   5.531   1.259  13.141 -0.1624  0.0273 -0.1504
 2152W        W 6203   2.403   5.564   2.938  0.0596 -0.1832  0.1745
 2153W        W 6204   7.146   9.162   0.933  0.0846  0.0243  0.5290
 2154W        W 6205   9.029   3.898  10.104 -0.1624  0.2835 -0.0494
 2155W        W 6206   1.031   8.258  10.433 -0.0194  0.2860 -0.1339
 2156W        W 6207   9.087   6.549   1.619  0.2370  0.0315  0.0393
 2157W        W 6208   2.924   5.225   1.970  0.5746  0.0287  0.1912
 2158W        W 6209   4.840   1.600  10.260  0.3006 -0.0498 -0.1425
 2159W        W 6210   0.280   4.643   9.335 -0.2678 -0.0669 -0.1083
 2160W        W 6211   6.345   5.650  12.022 -0.0279 -0.1470  0.2033
 2161W        W 6212   8.372   0.580  12.860 -0.1072  0.0912  0.3509
 2162W        W 6213   9.494   4.077  12.384  0.1307  0.1468 -0.0886
 2163W        W 6214   3.172   4.684   1.900  0.0280  0.0638 -0.1831
 2164W        W 6215   8.855   7.324  11.331 -0.2203 -0.1358 -0.0724
 2165W        W 6216   1.052   4.773  11.713  0.0535 -0.0940 -0.2523
 2166W        W 6217   9.648   5.629  12.174  0.1169 -0.2017 -0.0858
 2167W        W 6218   4.969   6.564  13.535  0.2117  0.0253 -0.3227
 2168W        W 6219   4.548   8.348   0.130 -0.0257  0.1045 -0.2047
 2169W        W 6220   8.831   1.871   3.830  0.0213 -0.0427  0.2106
 2170W        W 6221   8.476   0.451  13.647  0.2267  0.0876 -0.0390
 2171W        W 6222   6.234   0.701  12.656  0.0260  0.0478  0.0270
 2172W        W 6223   5.482   1.387  10.314 -0.0510  0.1331 -0.3385
 2173W        W 6224   5.846   2.406   4.061  0.3802  0.0394  0.0528
 2174W        W 6225   9.940   7.585  13.116  0.2697 -0.3043  0.1872
 2175W        W 6226   3.065   3.263   9.466 -0.0813 -0.0802  0.2822
 2176W        W 6227   9.522   3.016   3.248  0.1723  0.1943  0.0157
 2177W        W 6228   7.015   6.479  11.068 -0.0212  0.0612 -0.1271
 2178W        W 6229   7.343   0.840   3.134 -0.4726  0.3144 -0.0669
 2179W        W 6230   0.265   6.420  12.768 -0.0778 -0.0205  0.0663
 2180W        W 6231   6.491   3.659   0.977  0.0965 -0.0235  0.0573
 2181W        W 6232   5.087   7.561   4.665  0.0404  0.4156 -0.0404
 2182W        W 6233   5.633   5.531   3.260  0.2392 -0.1017  0.1206
 2183W        W 6234   6.403   8.912  10.098 -0.0159 -0.2639 -0.0225
 2184W        W 6235   5.175   1.970   2.224 -0.1796  0.2253  0.1687
 2185W        W 6236   1.112  10.082   2.461  0.3682  0.1609  0.3622
 2186W        W 6237   7.885   3.776   2.364  0.0571 -0.2860  0.0445
 2187W        W 6238   2.103   6.020  12.466 -0.1957 -0.1654 -0.0202
 2188W        W 6239   9.007   0.801   4.007 -0.2243  0.0094 -0.3159
 2189W        W 6240   8.667   5.001  11.333 -0.3309  0.1824  0.2114
 2190W        W 6241   7.683   5.219   8.843 -0.1363 -0.0014 -0.0419
 2191W        W 6242   4.396   2.826   9.397 -0.0369 -0.0816  0.1267
 2192W        W 6243   0.035   6.185   0.835  0.1367  0.0991  0.0052
 2193W        W 6244   4.696   7.992   2.935 -0.1978 -0.0712 -0.2539
 2194W        W 6245   1.940   9.231  10.312 -0.0758 -0.3390 -0.0315
 2195W        W 6246   2.335   0.911   0.416 -0.2260 -0.0528  0.3407
 2196W        W 6247   1.045   6.767  12.767  0.0155 -0.0122  0.0099
 2197W        W 6248   8.917   4.479   8.878  0.3028  0.0094 -0.0569
 2198W        W 6249   7.004   9.158   2.412 -0.0930 -0.3421 -0.5449
 2199W        W 6250   0.633   8.077   3.858 -0.1990  0.2126  0.2099
 2200W        W 6251   8.695   2.657  10.725 -0.2730 -0.1103  0.1410
 2201W        W 6252   2.458   8.900   3.811  0.2839 -0.2357 -0.0359
 2202W        W 6253   6.963   0.131   4.933  0.0416  0.0640 -0.2180
 2203W        W 6254   8.277   3.633   1.631 -0.3933  0.3496  0.1851
 2204W        W 6255   9.154   8.041  11.031 -0.1316  0.1330 -0.1736
 2205W        W 6256   7.388  10.016   0.889  0.2367 -0.0130 -0.0693
 2206W        W 6257   7.883   0.108   4.176  0.0764  0.2080 -0.2870
 2207W        W 6258   9.439   3.558   4.486  0.1167  0.2209 -0.0155
 2208W        W 6259   9.504   6.857   9.963  0.2012 -0.2404 -0.1040
 2209W        W 6260   5.443   2.233   0.361 -0.0912 -0.0392 -0.0884
 2210W        W 6261   9.527   0.609   1.497  0.0612  0.0384  0.0683
 2211W        W 6262   1.601   2.657   3.663  0.0780  0.0557  0.1842
 2212W        W 6263   9.577   1.608  11.203 -0.2825 -0.2510 -0.3556
 2213W        W 6264   1.116   9.667  13.063 -0.2893 -0.1545  0.1019
 2214W        W 6265   0.803   3.418  13.384  0.0526 -0.2228  0.1553
 2215W        W 6266   1.515   6.275   1.572 -0.0864 -0.1147  0.1196
 2216W        W 6267   6.130   6.765   3.800 -0.1724 -0.0223  0.2938
 2217W        W 6268   9.398   4.188  11.818 -0.2654 -0.0707  0.0005
 2218W        W 6269   1.188   3.056   0.283  0.2284  0.1327  0.4215
 2219W        W 6270   4.714   6.003   9.993 -0.0514 -0.1212  0.0299
 2220W        W 6271   5.035   4.108   3.518 -0.1219 -0.3461 -0.0422
 2221W        W 6272   9.789   6.375   0.920 -0.1158 -0.0131  0.2336
 2222W        W 6273   6.673   2.470   2.106 -0.1409 -0.2105 -0.1046
 2223W        W 6274   2.584   7.681   3.040 -0.0502  0.1335 -0.0922
 2224W        W 6275   0.084  10.031  11.699  0.0651 -0.0334  0.2324
 2225W        W 6276   6.588   9.025  12.479  0.2900 -0.1006  0.5909
 2226W        W 6277   1.643   1.237  10.410  0.0796 -0.1067  0.0967
 2227W        W 6278   2.853   7.817   1.837 -0.1962  0.2383  0.1665
 2228W        W 6279   8.230   4.045  12.273 -0.3150  0.1302  0.0305
 2229W        W 6280   0.856   8.825   1.945  0.0974  0.0692 -0.4054
 2230W        W 6281   6.107   7.451   5.679 -0.2589  0.3339  0.2212
 2231W        W 6282   6.758   3.607   2.339  0.1493 -0.3520  0.0023
 2232W        W 6283   9.150   5.975   5.080 -0.5767  0.3416 -0.1155
 2233W        W 6284   1.874   5.325   2.241  0.2637  0.1893  0.3417
 2234W        W 6285   4.658   9.670   1.014  0.0047 -0.0132  0.0667
 2235W        W 6286   2.512   9.331   2.669  0.1191  0.0062  0.1687
 2236W        W 6287   5.847   1.657  12.222 -0.2977 -0.1172 -0.0662
 2237W        W 6288   5.887   0.824  12.347  0.0679 -0.2758  0.2010
 2238W        W 6289   5.356   4.789   9.948 -0.1013  0.1401 -0.0776
 2239W        W 6290   1.078   4.268   1.564  0.2402  0.1232  0.0676
 2240W        W 6291   0.557   9.335   2.656 -0.3793  0.2187  0.1276
 2241W        W 6292   1.211   3.523   3.355 -0.0187 -0.0747  0.3499
 2242W        W 6293   5.574   7.783  11.600  0.4021 -0.1886 -0.0391
 2243W        W 6294   7.092   8.061   1.830  0.1580 -0.0422 -0.1938
 2244W        W 6295   7.363   9.105   3.615 -0.0281  0.1537  0.2873
 2245W        W 6296   5.791   7.276   8.943 -0.0382 -0.2077  0.2085
 2246W        W 6297   8.735   6.459   4.464  0.0252 -0.2514 -0.0620
 2247W        W 6298   9.322   2.655   3.989  0.2031 -0.0715 -0.0209
 2248W        W 6299   8.085   7.899   4.344  0.0256 -0.1629  0.0877
 2249W        W 6300   9.976   5.254   3.016  0.1401 -0.1039 -0.0332
 2250W        W 6301   1.525   4.160   1.310 -0.0554  0.0645 -0.2293
 2251W        W 6302   4.406   0.110  11.854 -0.0022  0.1501 -0.1298
 2252W        W 6303   9.050   3.748  13.371 -0.0299  0.0648  0.2619
 2253W        W 6304   9.637   4.284   9.207  0.0875  0.2952 -0.0054
 2254W        W 6305   7.401   3.071   0.035  0.0547  0.1578 -0.0650
 2255W        W 6306   6.506   4.034   3.462 -0.3454  0.3449 -0.0181
 2256W        W 6307   0.998   8.112   9.775 -0.1327  0.0676 -0.1341
 2257W        W 6308   2.787   1.680  12.504  0.0291  0.3469  0.1991
 2258W        W 6309   1.748   0.486   9.796  0.1186 -0.0584  0.2604
 2259W        W 6310   8.303   7.762   3.137  0.0789  0.1038 -0.0521
 2260W        W 6311   8.569   6.249  11.698  0.1205 -0.0701 -0.0562
 2261W        W 6312   4.423   9.187   3.385 -0.2001 -0.2183  0.1841
 2262W        W 6313   7.047   4.238   9.390 -0.0835 -0.1096  0.3388
 2263W        W 6314   0.051   5.572  10.198 -0.0772 -0.1632 -0.0410
 2264W        W 6315   6.980   5.194  12.176 -0.0918 -0.0054  0.4038
 2265W        W 6316   5.313   2.813  10.271  0.0952 -0.0595  0.2679
 2266W        W 6317   0.806   9.532   3.080  0.0418 -0.0228  0.1493
 2267W        W 6318   3.191   8.985  13.657 -0.0545 -0.0906 -0.1621
 2268W        W 6319   8.069   5.059   4.733  0.0876  0.0343 -0.3393
 2269W        W 6320   1.816   1.389  11.154  0.0351  0.0678  0.2648
 2270W        W 6321   0.950   5.109  10.059  0.3055  0.0967  0.1624
 2271W        W 6322   8.952   0.782   0.774  0.0326 -0.2574 -0.1505
 2272W        W 6323   3.418   7.356   3.558 -0.0168 -0.3126 -0.0151
 2273W        W 6324   5.988   5.800   0.704  0.1665 -0.1501  0.0527
 2274W        W 6325   0.170   9.527  12.829  0.2963 -0.2048  0.0775
 2275W        W 6326   3.183   9.150  10.737 -0.2118  0.0583 -0.1786
 2276W        W 6327   7.511   2.165  11.687  0.2717  0.0987  0.0015
 2277W        W 6328   7.377   8.724   1.210  0.4134  0.0279  0.1237
 2278W        W 6329   7.824   1.169   0.159 -0.2146  0.0018  0.0754
 2279W        W 6330   2.678   5.686   1.270  0.0605  0.2391  0.0884
 2280W        W 6331   5.431   5.032  11.607  0.1541  0.2255 -0.1164
 2281W        W 6332   6.758   6.434  13.236 -0.0272  0.2872  0.1526
 2282W        W 6333   7.360   5.201   4.848  0.1536  0.1649  0.0266
 2283W        W 6334   9.255   4.897  12.565  0.3030 -0.1921 -0.1721
 2284W        W 6335   1.618   9.065   0.191 -0.0551 -0.3079 -0.1627
 2285W        W 6336   0.933   6.214  10.944  0.0991  0.1392  0.0215
 2286W        W 6337   8.855   8.233   0.888 -0.0472  0.1361  0.1180
 2287W        W 6338   4.066  10.124   2.891  0.0671  0.0461  0.2054
 2288W        W 6339   6.892   9.757  12.142 -0.4079 -0.3033 -0.1029
 2289W        W 6340   2.400   9.970   0.736 -0.0349  0.0604 -0.0927
 2290W        W 6341   5.038   8.896   1.562 -0.1364 -0.1902  0.1355
 2291W        W 6342   3.200   9.230   9.477  0.2280 -0.2292 -0.1424
 2292W        W 6343   6.227   7.559  13.383 -0.0892 -0.0338  0.2133
 2293W        W 6344   0.611   0.694   9.648  0.0869 -0.0853  0.2063
 2294W        W 6345   0.947   7.647   3.794  0.1586 -0.1009 -0.0041
 2295W        W 6346   7.862   8.888   3.710  0.2382  0.1155  0.1763
 2296W        W 6347   2.585   5.138  12.297 -0.2669  0.1173  0.0776
 2297W        W 6348   1.358   2.422  10.499 -0.0662  0.0022 -0.0457
 2298W        W 6349   5.029   7.666   8.844  0.0567 -0.0174  0.1393
 2299W        W 6350   1.507   1.680  11.609 -0.2383  0.0399  0.0090
 2300W        W 6351   4.219   0.225   0.202 -0.0989  0.2301  0.2413
 2301W        W 6352   7.477   2.185   9.853 -0.1176 -0.1114 -0.0944
 2302W        W 6353   1.174   5.699   2.562 -0.3262  0.5224 -0.0398
 2303W        W 6354   6.883   6.176   3.742 -0.0913  0.0969  0.1904
 2304W        W 6355   6.776   7.448   4.787 -0.1054 -0.2827  0.5656
 2305W        W 6356   8.333   4.694   4.466  0.0133  0.1984  0.0583
 2306W        W 6357   8.371   6.428  11.182  0.0056 -0.0580  0.0891
 2307W        W 6358   5.415   2.076   8.757 -0.0419 -0.0156 -0.2206
 2308W        W 6359   8.168   0.805  10.136 -0.2097 -0.1770 -0.1491
 2309W        W 6360   9.487   4.390   0.791 -0.0798 -0.0725 -0.0089
 2310W        W 6361   6.210   3.615  11.752 -0.0495 -0.4261 -0.0059
 2311W        W 6362   2.079   7.914  10.857  0.0185 -0.0969  0.2414
 2312W        W 6363   5.915   0.098  13.739  0.1394  0.0540 -0.1714
 2313W        W 6364   9.710   0.134  11.060 -0.1114  0.3388  0.1937
 2314W        W 6365   9.758   5.793   2.734  0.0021 -0.0221 -0.1520
 2315W        W 6366   8.472   7.803  13.168  0.2597 -0.1979 -0.0269
 2316W        W 6367   1.702   9.936   4.397 -0.3890  0.0438 -0.0281
 2317W        W 6368   5.613   4.924   2.960  0.0895  0.2822 -0.4193
 2318W        W 6369   3.845   9.746   3.218  0.0605 -0.0913  0.3516
 2319W        W 6370   4.250   4.418  13.825 -0.2116 -0.0428  0.1573
 2320W        W 6371   2.674   5.257   1.500  0.0029 -0.1047  0.1613
 2321W        W 6372   8.955   1.389   2.014  0.0154  0.1658 -0.0261
 2322W        W 6373   4.137   4.081   0.994  0.2835 -0.2567 -0.3142
 2323W        W 6374   3.012   7.094  10.780 -0.3968  0.1453 -0.3187
 2324W        W 6375   5.763   6.734   2.469 -0.1415 -0.3977  0.3681
 2325W        W 6376   2.081   9.167   0.064 -0.3285  0.2963  0.2375
 2326W        W 6377   4.457   6.880  11.829  0.0141 -0.0066  0.1087
 2327W        W 6378   0.889   8.936  10.957  0.0130 -0.2676  0.0037
 2328W        W 6379   6.026   0.254  11.620  0.1313  0.3317  0.1592
 2329W        W 6380   5.444   8.087   1.843  0.2326 -0.2897  0.2015
 2330W        W 6381   6.342   1.182   8.191 -0.0977 -0.2852  0.2009
 2331W        W 6382   1.964   4.787   9.648 -0.1176 -0.1226 -0.1937
 2332W        W 6383   7.444   8.837  11.908 -0.1274 -0.1577 -0.1175
 2333W        W 6384   5.923   1.404   4.031  0.2821 -0.0804 -0.3255
 2334W        W 6385   1.768   5.275   9.760 -0.0256  0.2055 -0.0197
 2335W        W 6386   1.980   9.486   9.900  0.2968  0.4587  0.0597
 2336W        W 6387   5.541   6.790  13.487  0.0503 -0.1892  0.3972
 2337W        W 6388   6.380   7.858   1.015 -0.1520  0.0897 -0.0937
 2338W        W 6389   9.574   0.617   2.476  0.0700 -0.2933  0.2888
 2339W        W 6390   5.260   4.229   1.432  0.0235  0.1529 -0.4477
 2340W        W 6391   1.161   7.241  10.772  0.1596  0.3499 -0.0433
 2341W        W 6392   4.664   8.818   4.808  0.2047  0.2794 -0.3538
 2342W        W 6393   4.346   9.931   4.440  0.0637 -0.0904 -0.0684
 2343W        W 6394   6.752   5.620   4.008  0.3512 -0.2056  0.0938
 2344W        W 6395  10.003   1.739   1.327 -0.1158 -0.1301 -0.0380
 2345W        W 6396   2.942   2.631   2.680  0.2605  0.0293  0.0359
 2346W        W 6397   5.236   6.824   2.598  0.2748 -0.3490 -0.1012
 2347W        W 6398   4.721   9.112  11.913 -0.0597 -0.2778 -0.0156
 2348W        W 6399   0.735   6.042   1.761 -0.1416  0.0750  0.0059
 2349W        W 6400   6.665   4.929  13.739 -0.0215 -0.2422  0.1762
 2350W        W 6401   5.481   7.429   4.258  0.1141 -0.1122  0.3093
 2351W        W 6402   2.340   4.738  11.567  0.0221 -0.0481 -0.4373
 2352W        W 6403   5.749   4.280   9.361  0.3155  0.6733  0.0336
 2353W        W 6404   0.379   9.991   1.077  0.0810  0.2505 -0.2083
 2354W        W 6405   1.571   9.422  12.049  0.0015 -0.0479  0.3080
 2355W        W 6406   4.691   1.447   9.292 -0.1557 -0.1095  0.2322
 2356W        W 6407   9.480   5.769   1.119  0.1118  0.1366 -0.0342
 2357W        W 6408   3.452   4.448  13.623 -0.1577 -0.1718  0.0829
 2358W        W 6409   8.636   0.595   2.525  0.0497  0.3662  0.1453
 2359W        W 6410   2.565   6.064   3.262 -0.0969  0.1440  0.1073
 2360W        W 6411   0.960   7.357   0.001 -0.2841  0.1179 -0.2525
 2361W        W 6412   9.791   1.449   4.318  0.0376 -0.0379 -0.0965
 2362W        W 6413   9.029   0.533   2.806 -0.1612 -0.2117 -0.1799
 2363W        W 6414   8.080   6.615   9.601 -0.0602  0.1018 -0.2115
 2364W        W 6415   5.752   5.612  10.569  0.1283 -0.4816 -0.2418
 2365W        W 6416   9.520   9.705   3.202 -0.0373  0.2507  0.0154
 2366W        W 6417   4.580   8.599  10.249  0.1419  0.4086  0.0272
 2367W        W 6418   0.680   2.006   1.066 -0.0776  0.2912 -0.0485
 2368W        W 6419   1.812   1.135   0.414 -0.1305  0.1631  0.1032
 2369W        W 6420   0.117   1.723   3.233  0.1545 -0.0565  0.0843
 2370W        W 6421   7.485   0.348   2.452 -0.1044  0.3503  0.1440
 2371W        W 6422   9.122  10.054   1.083 -0.1478  0.0812 -0.0412
 2372W        W 6423   7.121   2.178  13.917  0.0699  0.3133 -0.0681
 2373W        W 6424   1.697   0.069  10.110 -0.1252 -0.1953  0.3871
 2374W        W 6425   1.874   5.670   4.226 -0.1633 -0.1523  0.3713
 2375W        W 6426   5.378   4.919   3.404  0.2191 -0.0341  0.1571
 2376W        W 6427   3.263   1.004   3.473  0.2496  0.0712  0.1538
 2377W        W 6428   8.246   4.243  11.316  0.0499  0.0896  0.0189
 2378W        W 6429   0.083   2.994  12.780  0.1337  0.2391  0.0663
 2379W        W 6430   3.919   2.304  13.300 -0.0916 -0.0519  0.2654
 2380W        W 6431   2.748   8.980   9.555  0.0947 -0.1090  0.2077
 2381W        W 6432   1.068   3.444   4.025  0.2416 -0.1135 -0.2323
 2382W        W 6433   4.792   0.788  12.162 -0.4299  0.4476  0.1152
 2383W        W 6434   1.222   9.611   0.914 -0.2070  0.0298  0.2132
 2384W        W 6435   5.817   1.677  11.289 -0.0429 -0.0044 -0.2049
 2385W        W 6436   8.336   9.746  12.179  0.1380  0.3694  0.2664
 2386W        W 6437   4.079   0.602   1.248  0.3436  0.1479  0.1549
 2387W        W 6438   3.188   8.556  12.146  0.1084 -0.0136 -0.2925
 2388W        W 6439  10.104   9.811   0.847  0.2244  0.0937 -0.1678
 2389W        W 6440   7.497   1.572   9.130 -0.3446 -0.0911  0.3121
 2390W        W 6441   6.010   3.856   3.791 -0.0967 -0.2192  0.1402
 2391W        W 6442   6.159   3.072  10.410 -0.0613 -0.0563 -0.0979
 2392W        W 6443   8.693   4.134   0.172 -0.0255 -0.0875  0.0276
 2393W        W 6444   5.762   9.607  10.168  0.1822  0.4419  0.2287
 2394W        W 6445   6.253   6.146  13.872  0.0953  0.0094 -0.0261
 2395W        W 6446   3.706   2.392  13.737  0.2674 -0.0031  0.1454
 2396W        W 6447   6.450   5.144  11.941 -0.0639 -0.2461 -0.2817
 2397W        W 6448   9.628   0.793  12.228  0.0064  0.0777  0.0047
 2398W        W 6449   6.345   7.204  13.741 -0.1567 -0.1563  0.2974
 2399W        W 6450   8.136   6.841  13.066 -0.0102  0.3411 -0.0386
 2400W        W 6451   5.536   6.854  11.924 -0.2032 -0.1984  0.1317
 2401W        W 6452   2.010   0.841   1.305  0.0392  0.2212 -0.1448
 2402W        W 6453   5.702   9.381   4.320 -0.3457  0.1228  0.3602
 2403W        W 6454   2.041   5.531   3.391 -0.0164  0.2150 -0.0419
 2404W        W 6455   3.799   3.440   3.970  0.0081  0.0043  0.1523
 2405W        W 6456   5.499   1.867  10.965 -0.4038 -0.0626 -0.0833
 2406W        W 6457   0.243   5.776  12.363 -0.1792 -0.0390 -0.1800
 2407W        W 6458   0.251   0.073  13.109  0.2239  0.1499  0.2711
 2408W        W 6459   3.196   3.672   3.271  0.0137  0.0985 -0.0664
 2409W        W 6460   7.093   7.055   1.147 -0.2225  0.0183  0.0377
 2410W        W 6461   8.669   5.513   0.403 -0.1508  0.0749  0.3130
 2411W        W 6462  10.103   9.145  11.530  0.0181 -0.2050  0.3029
 2412W        W 6463   0.061   9.676   4.018 -0.0272 -0.4770  0.2856
 2413W        W 6464   1.191   9.598  10.901 -0.3999 -0.1554  0.0641
 2414W        W 6465   2.640  10.016   9.777 -0.0746  0.0872  0.2160
 2415W        W 6466   5.431   3.387  10.854  0.2179 -0.0180  0.0459
 2416W        W 6467   9.837   0.956   1.824 -0.0193 -0.1092 -0.3270
 2417W        W 6468   7.914   0.867  12.787  0.2053  0.0222 -0.1903
 2418W        W 6469   2.469   1.516  11.084  0.1608  0.2118  0.1204
 2419W        W 6470   5.527   4.660   4.097  0.0466 -0.2274  0.0115
 2420W        W 6471   6.965   1.407   9.993  0.1052 -0.3068 -0.0184
 2421W        W 6472   0.548   7.177   0.272 -0.2607 -0.1602  0.0222
 2422W        W 6473   0.255   0.882   2.741  0.2890 -0.1968  0.0514
 2423W        W 6474   1.193   7.576  12.019 -0.3311  0.0449 -0.0498
 2424W        W 6475   2.337   3.324  11.618  0.1763  0.0233 -0.2045
 2425W        W 6476  10.097   4.675   3.101 -0.2346 -0.0183  0.1253
 2426W        W 6477   9.401   9.999  13.247  0.2509  0.2839 -0.1878
 2427W        W 6478   6.043   6.814   0.932  0.3261  0.1370 -0.4016
 2428W        W 6479   2.523   5.104  13.644 -0.1529  0.1899  0.1875
 2429W        W 6480   0.814   7.118   9.801  0.2420 -0.1277  0.0497
 2430W        W 6481   3.132   1.268   3.072 -0.0352  0.2199  0.0757
 2431W        W 6482   0.856   1.282  10.190  0.3824  0.0919 -0.2887
 2432W        W 6483   3.144   9.347   3.824 -0.2595  0.1033 -0.0587
 2433W        W 6484   4.065   0.783   1.788  0.2116 -0.1763 -0.0336
 2434W        W 6485   7.190   2.179   2.116 -0.0757 -0.0611 -0.3234
 2435W        W 6486   6.467   8.794   1.433 -0.0339  0.2673 -0.1339
 2436W        W 6487   1.893   0.352   1.363 -0.0231 -0.1077 -0.0324
 2437W        W 6488   3.312   3.761  13.233  0.0990 -0.3502  0.1090
 2438W        W 6489   6.818   5.485  13.684  0.3796  0.2164  0.0278
 2439W        W 6490   7.043   7.751   9.860 -0.0970 -0.3993 -0.1020
 2440W        W 6491   3.171   4.333   1.053  0.0917 -0.4435 -0.0683
 2441W        W 6492   2.876   1.500   0.524  0.2497  0.2301  0.1859
 2442W        W 6493   6.530   6.737  12.739  0.2804 -0.2365 -0.0330
 2443W        W 6494   1.827   4.000  13.583  0.0752 -0.2062 -0.1816
 2444W        W 6495   1.885   7.856   9.758  0.2717 -0.1240 -0.0873
 2445W        W 6496   2.641   6.358   0.476 -0.1691 -0.0186  0.3955
 2446W        W 6497   6.262   8.367   2.726 -0.2428 -0.4069 -0.0436
 2447W        W 6498   5.567   8.126  13.524 -0.0638  0.1221 -0.2432
 2448W        W 6499   2.162   0.502   3.900  0.1534  0.0184  0.2235
 2449W        W 6500   3.203   0.935  12.663  0.3975 -0.2815  0.1205
 2450W        W 6501   9.416   0.508   9.011  0.0314 -0.1451 -0.3051
 2451W        W 6502   8.131   9.966   4.584  0.1021 -0.3179  0.0358
 2452W        W 6503   8.589   7.039   3.159 -0.0331  0.0642  0.4505
 2453W        W 6504   1.758   9.083  11.721  0.4075 -0.3173  0.2096
 2454W        W 6505   5.616   9.889  13.216  0.0648  0.0788  0.2616
 2455W        W 6506   4.630   2.355  13.541  0.1729  0.4110 -0.3535
 2456W        W 6507   0.260   6.879  13.003 -0.0464  0.2156 -0.0826
 2457W        W 6508   7.594   1.412   0.528 -0.2415 -0.1817  0.0364
 2458W        W 6509   0.847   6.241   2.452 -0.0678 -0.2052 -0.1003
 2459W        W 6510   3.926   3.578  13.671 -0.0872 -0.0003  0.0268
 2460W        W 6511   8.780   7.986  13.935  0.0168 -0.0983 -0.0233
 2461W        W 6512   4.461   9.317  11.485  0.1764  0.1203 -0.1560
 2462W        W 6513   4.545   2.491  11.570 -0.4176  0.0011 -0.0457
 2463W        W 6514   1.726   3.996   2.312  0.3652  0.0140  0.3653
 2464W        W 6515   3.245   9.663   9.211  0.1677 -0.0497 -0.0292
 2465W        W 6516   2.503   8.680   3.314 -0.1433 -0.0634 -0.3591
 2466W        W 6517   6.458   1.701   3.741 -0.3904  0.2566 -0.2252
 2467W        W 6518   6.960   6.035   9.165 -0.2117 -0.4054 -0.0027
 2468W        W 6519   3.706   3.320  10.419 -0.2773 -0.0648  0.2605
 2469W        W 6520   6.693   4.109   1.187  0.0033  0.0110 -0.0615
 2470W        W 6521   3.259   3.440   0.702 -0.1638 -0.0732 -0.0516
 2471W        W 6522   2.486   9.186   3.308 -0.0419 -0.0796  0.0818
 2472W        W 6523   7.416   4.493   4.260  0.0817  0.1981  0.1054
 2473W        W 6524   7.710   0.560  10.054  0.1760  0.1903  0.0614
 2474W        W 6525   5.194   3.799  12.318 -0.0616  0.2802 -0.1400
 2475W        W 6526   7.040   9.686   1.569  0.3025  0.0675 -0.1665
 2476W        W 6527   2.621  10.131  11.496 -0.1909  0.1199 -0.0037
 2477W        W 6528   6.425   1.344  12.859  0.1054  0.0273  0.3083
 2478W        W 6529   0.054   3.885  13.041 -0.1654 -0.2675 -0.0039
 2479W        W 6530   0.242   2.245   3.230  0.2808  0.2332  0.3643
 2480W        W 6531   9.909   4.362  13.775  0.0006  0.3291  0.0368
 2481W        W 6532   8.199   0.730   2.049  0.1822  0.5795  0.0926
 2482W        W 6533   8.399   9.747   0.278  0.1877  0.0129 -0.0265
 2483W        W 6534   3.632   6.457  11.085  0.1721 -0.1224  0.3082
 2484W        W 6535   8.746   0.026   9.254 -0.1301 -0.0715  0.0579
 2485W        W 6536   4.935   6.231   8.976  0.1470 -0.1276 -0.2660
 2486W        W 6537  10.087   8.694  11.928  0.4566  0.5337 -0.0405
 2487W        W 6538   8.738   2.227   1.814 -0.2423 -0.2576 -0.0986
 2488W        W 6539   5.184   3.045   9.785  0.4653 -0.0347  0.3888
 2489W        W 6540   1.311   9.316  10.525  0.0723  0.1268 -0.0468
 2490W        W 6541   4.323   3.137   0.924  0.2126 -0.0590 -0.0007
 2491W        W 6542   9.832   5.443  10.025  0.1790  0.2247 -0.0148
 2492W        W 6543   5.338   8.773   5.982 -0.0899 -0.2971  0.4603
 2493W        W 6544   7.109   0.622   0.812 -0.0910  0.0015  0.0251
 2494W        W 6545   7.560   9.889  11.480 -0.1611  0.0306 -0.0302
 2495W        W 6546   0.673   3.270   0.372 -0.1082 -0.0578  0.2882
 2496W        W 6547   9.672   4.335   3.459 -0.0659 -0.0305  0.1530
 2497W        W 6548   0.385   8.303  10.326 -0.1557  0.1025  0.0095
 2498W        W 6549   3.275   8.235   1.762 -0.3774 -0.0835  0.0664
 2499W        W 6550   4.166   9.096  13.836  0.2414  0.2458  0.0874
 2500W        W 6551   7.280   4.808  10.013  0.1549  0.2429  0.1882
 2501W        W 6552   2.043   1.432  10.194  0.0046 -0.3658  0.0085
 2502W        W 6553   7.505   3.109   4.293  0.6013 -0.0036 -0.0390
 2503W        W 6554   8.413   8.094   3.920 -0.0484 -0.1845 -0.1531
 2504W        W 6555   3.025   4.053  12.280 -0.4121 -0.0237 -0.1772
 2505W        W 6556   6.691   6.468  13.790 -0.0816 -0.1367 -0.0449
 2506W        W 6557   2.216   9.445  12.592  0.2236  0.4425 -0.1422
 2507W        W 6558   4.623   5.080   0.201  0.1873 -0.3046  0.0496
 2508W        W 6559   9.659   4.059  13.083 -0.0241  0.0330  0.0141
 2509W        W 6560   0.853   6.350  11.912 -0.0684 -0.1873  0.0826
 2510W        W 6561   0.255   4.797  13.839  0.1358  0.2747  0.2559
 2511W        W 6562   4.141   4.698  10.994  0.0889  0.0987 -0.2781
 2512W        W 6563   9.749   9.329   2.242 -0.0466 -0.3877  0.2993
 2513W        W 6564   6.135   7.766  13.839  0.2432  0.0773  0.1173
 2514W        W 6565   0.010   8.912   0.738  0.0447  0.1035  0.2227
 2515W        W 6566   3.167   1.669   0.903  0.3781 -0.1847  0.3922
 2516W        W 6567   4.075   8.562   0.009  0.2299 -0.3016 -0.1744
 2517W        W 6568   2.596   6.183   1.459  0.0700  0.0814 -0.1806
 2518W        W 6569   7.483   7.980   9.816 -0.0751 -0.1214  0.0707
 2519W        W 6570   1.885   7.348   3.116 -0.3563  0.2143 -0.0243
 2520W        W 6571   2.678   4.954  12.786 -0.1901 -0.2186  0.0689
 2521W        W 6572   3.793   4.304  11.015  0.3575 -0.1883 -0.0158
 2522W        W 6573   7.702   7.163   3.161  0.0732  0.0758  0.0395
 2523W        W 6574   5.051   4.937  10.825  0.1032 -0.0174 -0.1136
 2524W        W 6575   0.024   2.104  10.649  0.2668  0.0927  0.2218
 2525W        W 6576   3.456   7.752   8.572  0.2680  0.0845  0.0475
 2526W        W 6577   5.759   4.579  11.570 -0.0262  0.0402 -0.3736
 2527W        W 6578   8.826   8.000  10.325 -0.2414  0.2134  0.2456
 2528W        W 6579   5.028   3.783   3.946 -0.1036 -0.1224 -0.3082
 2529W        W 6580   4.982   5.748   0.630  0.0230  0.0096 -0.0504
 2530W        W 6581   1.180   8.587  13.424 -0.0700 -0.2068  0.1890
 2531W        W 6582   9.100   1.934   9.630  0.1850  0.0396  0.1157
 2532W        W 6583   2.467   2.452  10.908  0.2188 -0.0863 -0.2233
 2533W        W 6584   3.190   9.496   2.104  0.2122 -0.1758 -0.0015
 2534W        W 6585   9.960  10.186  10.027 -0.1625  0.0972 -0.0809
 2535W        W 6586   0.331   0.912   4.382  0.0149  0.3590  0.2383
 2536W        W 6587   4.415   4.142  11.678 -0.0296  0.1329 -0.1267
 2537W        W 6588   6.329   0.471   2.955  0.0423 -0.2080 -0.1169
 2538W        W 6589   3.071   0.736   9.508 -0.0669 -0.0370  0.0710
 2539W        W 6590   1.328   3.996   0.337  0.2022  0.0639  0.0386
 2540W        W 6591   7.216   6.644   0.063  0.3906 -0.4457 -0.3415
 2541W        W 6592   7.685   4.004   8.814  0.2487 -0.1768  0.1830
 2542W        W 6593   2.225   8.212  11.857  0.2340 -0.0356  0.2607
 2543W        W 6594   7.641   5.733   0.386  0.1159 -0.4191  0.1088
 2544W        W 6595   6.149   4.385   9.579 -0.1840 -0.2513 -0.0703
 2545W        W 6596   4.524   5.922   1.459 -0.0479  0.1633 -0.0225
 2546W        W 6597   2.447   1.503   1.927  0.2806 -0.1955  0.0991
 2547W        W 6598   1.899   7.765  13.105 -0.0133 -0.0175  0.2881
 2548W        W 6599   8.876   0.413   5.020  0.0999  0.3106  0.0391
 2549W        W 6600   4.217   9.537  13.596 -0.0920 -0.0079  0.2066
 2550W        W 6601   2.176   9.948  12.576 -0.3673 -0.0455  0.3807
 2551W        W 6602   6.405   2.879   1.773  0.0065 -0.0197  0.1736
 2552W        W 6603   8.999   8.462  10.320 -0.2648 -0.3529  0.1815
 2553W        W 6604   2.367   9.569   4.826 -0.0927 -0.0423  0.0417
 2554W        W 6605   7.738   4.484  11.262  0.0524 -0.1408 -0.1661
 2555W        W 6606   8.831   6.373  13.186 -0.0267  0.0032  0.0608
 2556W        W 6607  10.175   4.158  11.114 -0.0233 -0.0072 -0.1178
 2557W        W 6608   8.415   6.239  12.195 -0.0836 -0.0558 -0.1070
 2558W        W 6609   0.694   8.630   3.452 -0.2706  0.0267 -0.0250
 2559W        W 6610   6.222   8.378   4.992  0.0062  0.1677  0.1071
 2560W        W 6611   3.294  10.203   5.315 -0.3734 -0.2554  0.1529
 2561W        W 6612   6.732   7.125   4.284  0.1485 -0.1266  0.2449
 2562W        W 6613   3.683   0.542   3.333  0.0698 -0.0121 -0.1546
 2563W        W 6614   7.565   5.862  10.476  0.2589 -0.0571  0.2262
 2564W        W 6615   3.769   9.279  13.593  0.0978  0.0126  0.1905
 2565W        W 6616  10.169   0.346  10.323 -0.1901 -0.2137  0.0924
 2566W        W 6617   8.107   6.782  10.178  0.2874  0.0012 -0.3032
 2567W        W 6618   3.881   1.768   2.853 -0.1327  0.0633  0.0267
 2568W        W 6619   3.361   9.807  11.754 -0.0265 -0.1574  0.0531
 2569W        W 6620   4.693   1.438  10.795  0.2541  0.1958 -0.2338
 2570W        W 6621  10.079   8.201   0.324  0.0082  0.1490  0.0729
 2571W        W 6622   7.880   7.741  11.458 -0.2378  0.0512  0.1901
 2572W        W 6623   6.660   5.554  12.851  0.0831 -0.0079  0.0585
 2573W        W 6624   6.805   6.011  13.626  0.3381 -0.1366 -0.1311
 2574W        W 6625   5.891   0.220  10.180  0.2165 -0.0273  0.0779
 2575W        W 6626   3.714   9.575   0.099 -0.2062 -0.1174  0.4391
 2576W        W 6627   2.440   1.526  12.953  0.0188 -0.0724  0.1541
 2577W        W 6628   8.830   1.260   0.023  0.0393  0.0283  0.0281
 2578W        W 6629   5.466   6.825   3.615  0.1397 -0.0110 -0.1787
 2579W        W 6630   2.125   1.777   4.279  0.1078  0.2047  0.2957
 2580W        W 6631   6.876   6.828   2.884 -0.0108 -0.1815 -0.2151
 2581W        W 6632   6.202   2.463   2.013 -0.1957  0.3307  0.1214
 2582W        W 6633   3.197   9.087  12.696 -0.1536 -0.0305 -0.0055
 2583W        W 6634   7.328   6.157  11.226 -0.2661  0.2953 -0.0804
 2584W        W 6635   8.071   7.927   2.077 -0.3394 -0.0147 -0.0629
 2585W        W 6636   6.377   8.218  12.960  0.1789  0.0573  0.0618
 2586W        W 6637   7.317   5.675  13.530  0.0097 -0.0067 -0.1119
 2587W        W 6638   5.669   2.754   3.305 -0.5835  0.0211 -0.2243
 2588W        W 6639   4.131   6.290   4.986  0.1482 -0.1443 -0.1473
 2589W        W 6640   4.491   5.904  11.812 -0.1166  0.0384 -0.0100
 2590W        W 6641   0.145   7.351   0.032  0.2427  0.0677  0.3228
 2591W        W 6642   0.390   0.352   0.641  0.0243  0.4534  0.0042
 2592W        W 6643   8.262   8.244  11.149 -0.0309 -0.1081 -0.2305
 2593W        W 6644   3.910   4.540  13.366 -0.1174  0.0456 -0.2470
 2594W        W 6645   1.662   8.640   3.631  0.0757  0.2109 -0.0971
 2595W        W 6646   2.969   9.219   9.941 -0.0339 -0.1446  0.2167
 2596W        W 6647   7.272   3.729  10.276  0.5756  0.1103 -0.2552
 2597W        W 6648   7.506   7.266   4.144 -0.2432 -0.3675  0.0712
 2598W        W 6649   5.531   5.447   8.833  0.1203  0.0179  0.0731
 2599W        W 6650   6.523   9.256  13.420  0.2210 -0.0035  0.0043
 2600W        W 6651   0.268   5.776  13.236 -0.3728 -0.0691 -0.1595
 2601W        W 6652   8.581   8.704   1.744  0.0945 -0.1895 -0.2529
 2602W        W 6653   7.194   5.813   3.410  0.0502 -0.2363  0.0054
 2603W        W 6654   9.374   2.705   2.743  0.0667 -0.2502 -0.1964
 2604W        W 6655   7.345   6.441   4.578  0.1330  0.1017 -0.0503
 2605W        W 6656   3.133   5.526   2.484  0.0167  0.1523 -0.0604
 2606W        W 6657   2.977   3.916   1.309 -0.0591  0.0215 -0.2957
 2607W        W 6658   7.209   8.750   2.535  0.2300  0.0509 -0.4777
 2608W        W 6659   6.644   5.964  13.131 -0.1284 -0.0782  0.0856
 2609W        W 6660   7.493   6.942   5.030 -0.1115  0.0890  0.1946
 2610W        W 6661   2.156   6.342   3.157 -0.1459 -0.0644 -0.2292
 2611W        W 6662   9.021   6.839   2.114 -0.1232 -0.0201 -0.0483
 2612W        W 6663   0.504   3.943  13.771 -0.2314  0.3578  0.2191
 2613W        W 6664   7.356   2.433   2.877  0.2629 -0.0148  0.0958
 2614W        W 6665   4.013   9.483  11.235  0.0351  0.0031 -0.1750
 2615W        W 6666   6.434   7.454   9.581  0.1537 -0.1166 -0.1741
 2616W        W 6667   2.667   0.167   1.844  0.0617 -0.2025  0.0573
 2617W        W 6668   7.556   0.086   8.927  0.3048 -0.3246 -0.0980
 2618W        W 6669   6.047   8.115  13.402 -0.1968  0.1377 -0.3088
 2619W        W 6670   4.374   9.790  11.651 -0.2085 -0.1359 -0.0507
 2620W        W 6671   3.629   4.745   0.111 -0.1421 -0.0430 -0.1201
 2621W        W 6672   0.634   6.704   0.349 -0.0423  0.0926 -0.0186
 2622W        W 6673   5.663   0.933  10.115  0.1167 -0.3447 -0.3556
 2623W        W 6674   2.895   5.839   3.614 -0.0641  0.3021 -0.2893
 2624W        W 6675   6.435   3.123  13.190 -0.2043 -0.1909  0.4393
 2625W        W 6676   1.837   3.987  11.334 -0.0828  0.1102  0.2725
 2626W        W 6677   7.822   7.713   5.971 -0.1449  0.1187  0.1008
 2627W        W 6678   0.788   1.985   4.517 -0.2049 -0.1001  0.1115
 2628W        W 6679   7.164   2.838   2.092 -0.1628 -0.0971 -0.1718
 2629W        W 6680  10.094   9.373   0.513  0.1000 -0.1166 -0.1713
 2630W        W 6681   9.304   0.243  13.099 -0.0150  0.3067  0.2873
 2631W        W 6682   9.418   7.554   1.638  0.0308  0.2812 -0.1709
 2632W        W 6683   1.329   7.052   1.872  0.0315 -0.1477 -0.0888
 2633W        W 6684   0.629   5.820   0.095  0.2837 -0.0494  0.0935
 2634W        W 6685   6.704   5.478  11.291 -0.3015 -0.0870  0.2595
 2635W        W 6686   8.816   0.148  10.908 -0.1113  0.0928  0.0122
 2636W        W 6687   0.020   4.027   2.176 -0.1448 -0.3065 -0.0384
 2637W        W 6688   9.638   8.202   0.743 -0.0976 -0.0947  0.1366
 2638W        W 6689   8.906   3.077   1.172 -0.1514 -0.1210 -0.0104
 2639W        W 6690   6.394   2.222  10.839  0.0090  0.1113  0.0011
 2640W        W 6691   0.470  10.001   0.087 -0.1315 -0.2599  0.2472
 2641W        W 6692   3.292   8.147  11.821  0.1252  0.0579  0.3024
 2642W        W 6693   7.796   9.087   3.033  0.1050 -0.0967  0.1432
 2643W        W 6694   2.234   0.126   3.572  0.1088 -0.0882  0.0154
 2644W        W 6695   5.309   3.751  11.269  0.1049 -0.0019 -0.0424
 2645W        W 6696   6.622   6.599  11.871 -0.0572  0.0683  0.0385
 2646W        W 6697   4.937   8.956   9.062  0.2029 -0.3895 -0.0645
 2647W        W 6698   9.752   7.331   1.908 -0.1158  0.2280 -0.0704
 2648W        W 6699   4.570   0.660  10.292 -0.0811 -0.4212 -0.2580
 2649W        W 6700   1.007   1.147   3.769  0.0034 -0.0997 -0.0319
 2650W        W 6701   6.006   0.290   5.386  0.0116 -0.2663 -0.0539
 2651W        W 6702   5.132   6.291   0.681 -0.1444  0.0758 -0.2415
 2652W        W 6703   7.450   6.309   0.445 -0.2741 -0.0581 -0.1197
 2653W        W 6704   8.663   7.401  12.867  0.0969  0.1446  0.1229
 2654W        W 6705   0.065   6.728   4.222  0.3228  0.0223  0.1970
 2655W        W 6706   5.438   3.438  10.030 -0.2066  0.0679  0.5813
 2656W        W 6707   0.714   9.153   5.005 -0.3122 -0.0841  0.0763
 2657W        W 6708   8.836   1.217  12.528  0.2277  0.2419  0.0356
 2658W        W 6709   4.886   4.214   0.536  0.4821  0.1251 -0.3004
 2659W        W 6710   9.061   6.456  11.879 -0.3212  0.2146 -0.3122
 2660W        W 6711   9.649   7.089   2.852  0.0192  0.1132  0.0466
 2661W        W 6712   6.346   7.020   0.264  0.0108 -0.1349 -0.2349
 2662W        W 6713   5.136   7.522   3.456  0.0404  0.0876 -0.1538
 2663W        W 6714  10.104   7.178  11.682  0.1792  0.0259  0.2264
 2664W        W 6715   4.837   1.590   4.994  0.4997 -0.1954  0.0239
 2665W        W 6716   2.039   5.878   2.979 -0.1116  0.0078 -0.1134
 2666W        W 6717   0.868   5.284  10.610  0.1336 -0.2292 -0.1729
 2667W        W 6718   2.283   0.563   0.015  0.0508  0.0370  0.0318
 2668W        W 6719   1.727   0.214   0.269  0.2640  0.3377  0.2711
 2669W        W 6720   2.301   4.701   1.169 -0.0734 -0.1728 -0.0558
 2670W        W 6721   1.452   9.607   9.145  0.1197  0.1679  0.0432
 2671W        W 6722   3.085   3.095   2.476 -0.0223 -0.0901  0.0026
 2672W        W 6723   3.062   9.558  12.827  0.0229 -0.1356  0.0275
 2673W        W 6724   2.510   4.545   0.231  0.1449  0.3687  0.1151
 2674W        W 6725   9.634   8.106  13.922 -0.1016  0.0037  0.0523
 2675W        W 6726   4.053   6.796   3.896  0.0267  0.0408  0.3265
 2676W        W 6727   1.023   7.367   1.443  0.0001 -0.0143 -0.0103
 2677W        W 6728   6.110   0.908   0.044  0.2592 -0.0281  0.0685
 2678W        W 6729   3.819   6.569  13.416 -0.1734  0.2895  0.3154
 2679W        W 6730   3.645   0.699   2.705  0.2884 -0.0169  0.1243
 2680W        W 6731   9.409   5.345  12.468  0.0442 -0.0235  0.1546
 2681W        W 6732   3.738   7.032   9.839 -0.1688  0.2131  0.1931
 2682W        W 6733   2.960   6.557  12.615  0.0090 -0.3365  0.1385
 2683W        W 6734   7.768   5.265   9.622  0.0296  0.0721 -0.1561
 2684W        W 6735   9.608   4.816   2.941 -0.2427 -0.2330  0.2325
 2685W        W 6736   6.768   4.224   8.980 -0.0079 -0.0826 -0.0147
 2686W        W 6737   3.413   1.406   9.649 -0.0690 -0.2292  0.0641
 2687W        W 6738   1.948   8.992   4.410 -0.0831 -0.0739 -0.0027
 2688W        W 6739   4.439   9.288   5.518 -0.0452 -0.0607 -0.2291
 2689W        W 6740   3.072   1.665  11.602 -0.0745  0.0307  0.3032
 2690W        W 6741   5.576   3.131   0.160  0.0632 -0.4911  0.4881
 2691W        W 6742   3.578   5.977   0.761  0.3820  0.0401  0.1677
 2692W        W 6743   8.578   3.912  13.501  0.2626 -0.1467 -0.1095
 2693W        W 6744   8.706   4.503   9.385 -0.2708 -0.1388 -0.1802
 2694W        W 6745   3.064   4.653  13.353  0.2087 -0.0798  0.1972
 2695W        W 6746   3.441   9.073   9.892 -0.0229  0.1707  0.0019
 2696W        W 6747   6.859   2.383  10.794  0.3192 -0.2980  0.3314
 2697W        W 6748   1.876   6.597  12.088  0.1052 -0.2697 -0.2709
 2698W        W 6749   2.024  10.125   4.053  0.0589 -0.1300  0.4635
 2699W        W 6750   1.237   3.858   2.395  0.0073 -0.0011 -0.1119
 2700W        W 6751   3.979   9.020   3.656  0.2846 -0.1207 -0.0675
 2701W        W 6752   9.331   4.452  10.302 -0.0324 -0.1416 -0.3256
 2702W        W 6753   0.817   3.963  13.364  0.1122  0.0597 -0.1219
 2703W        W 6754   5.069   6.867  10.987 -0.0128  0.2575  0.0104
 2704W        W 6755   5.373   0.479   1.525  0.0117 -0.1015 -0.1168
 2705W        W 6756   8.006   7.053   0.281 -0.1673  0.2254  0.3027
 2706W        W 6757   8.014   7.310  13.615  0.0895 -0.2326  0.0055
 2707W        W 6758   1.883   3.104  13.766  0.3643  0.0046 -0.1867
 2708W        W 6759   0.462   4.941   0.913  0.1402  0.1363  0.2091
 2709W        W 6760   0.667  10.044   2.709 -0.1393  0.0481 -0.1061
 2710W        W 6761   8.210   9.408  12.806 -0.0902 -0.1880 -0.1613
 2711W        W 6762   1.550   8.553   1.466 -0.1796 -0.2082 -0.2241
 2712W        W 6763   1.919   6.540  11.447  0.2405 -0.0796 -0.2263
 2713W        W 6764   6.305   1.816  12.091 -0.0875  0.3598 -0.2075
 2714W        W 6765   5.890   6.131  10.159  0.1265 -0.3415  0.1361
 2715W        W 6766   0.243   2.238  11.263  0.1376  0.0093 -0.2961
 2716W        W 6767   8.454   4.874   9.157 -0.0717 -0.0402  0.2111
 2717W        W 6768   9.284   9.446   1.289 -0.1840  0.2845 -0.1128
 2718W        W 6769   9.936   6.700   2.775 -0.0483  0.1082 -0.0958
 2719W        W 6770   7.016   6.405   4.168  0.1341  0.1814 -0.1128
 2720W        W 6771   0.951   1.097   9.675  0.1671  0.2235  0.0938
 2721W        W 6772   5.110   7.655  11.517  0.1379 -0.6503  0.6010
 2722W        W 6773   5.236   3.412   1.269 -0.1220 -0.1615 -0.0849
 2723W        W 6774   3.643   1.978   2.323  0.2525 -0.1767 -0.1563
 2724W        W 6775   6.342   0.238   9.213 -0.1145  0.2328  0.0384
 2725W        W 6776   3.940   5.261  10.757  0.2642  0.0646 -0.3159
 2726W        W 6777   5.720   2.234  13.860  0.3198 -0.2850 -0.1088
 2727W        W 6778   7.991   4.651  13.309  0.0601  0.0775  0.1650
 2728W        W 6779   8.070   4.205   8.549  0.1262  0.3216 -0.0274
 2729W        W 6780   3.468   7.291  13.507  0.1836  0.1775 -0.0141
 2730W        W 6781   6.937  10.067   1.903 -0.1220 -0.0492 -0.0130
 2731W        W 6782   4.240   9.904   3.953  0.0846  0.1777 -0.1779
 2732W        W 6783  10.098   1.001   4.784 -0.1979  0.0940  0.0695
 2733W        W 6784   0.299   0.454   4.118 -0.0254 -0.0819 -0.1428
 2734W        W 6785   7.420   4.971   4.095 -0.1776  0.2403 -0.1379
 2735W        W 6786   5.533   8.268   2.993 -0.0366 -0.0703 -0.0587
 2736W        W 6787   6.728   7.448   1.191  0.1024 -0.0894 -0.4436
 2737W        W 6788   1.964   1.859  10.976  0.1477 -0.0026  0.1233
 2738W        W 6789   7.188   5.190   9.683 -0.1216  0.0132  0.1616
 2739W        W 6790   1.743   3.558   2.518 -0.0031 -0.3222 -0.0321
 2740W        W 6791   0.805   2.923  13.462  0.1887 -0.3099  0.0797
 2741W        W 6792   1.743  10.077  12.725 -0.0297  0.4232 -0.0818
 2742W        W 6793   5.840   5.523   1.131 -0.1050  0.0227 -0.0168
 2743W        W 6794   0.750   3.037   4.121 -0.3282 -0.2331 -0.1639
 2744W        W 6795   4.095   8.780  10.205 -0.1740 -0.2049 -0.0438
 2745W        W 6796   7.959   3.367   0.930  0.0172  0.0302 -0.1363
 2746W        W 6797   2.098   8.064   4.749  0.1020 -0.0932 -0.0390
 2747W        W 6798   0.972   8.448  11.009 -0.0046  0.2315 -0.0401
 2748W        W 6799   5.349   2.569   0.872 -0.2441 -0.2417 -0.1374
 2749W        W 6800   3.753   5.972   3.333  0.1304 -0.0192 -0.3303
 2750W        W 6801   7.385   9.989  10.567 -0.1425  0.2785  0.1562
 2751W        W 6802  10.082   6.646   1.401  0.0437 -0.1829 -0.3110
 2752W        W 6803   6.834   3.796   8.490  0.1992  0.4547  0.2275
 2753W        W 6804   9.505   3.361   0.255 -0.1674  0.2244  0.3702
 2754W        W 6805   5.915   9.647  12.753 -0.0983 -0.2103  0.3436
 2755W        W 6806   0.492   7.703   3.561 -0.0545  0.2566  0.1452
 2756W        W 6807   2.131   0.272  10.725 -0.1556  0.0110  0.1841
 2757W        W 6808   0.095   5.242   4.026 -0.0093 -0.1698 -0.0613
 2758W        W 6809   3.167   9.042  12.184 -0.0590 -0.1202 -0.0026
 2759W        W 6810   9.100   4.288   0.461  0.0651  0.1209  0.0151
 2760W        W 6811   8.847   1.074   9.784 -0.2287 -0.1075  0.4063
 2761W        W 6812   8.334   1.452   0.164 -0.1580  0.0927  0.1466
 2762W        W 6813   5.658   7.510   0.557 -0.1280 -0.1502 -0.0758
 2763W        W 6814   4.316   7.899   9.790  0.2681 -0.0021 -0.0797
 2764W        W 6815   2.430   8.424   4.829  0.0947  0.3837  0.0436
 2765W        W 6816   5.549   6.388   2.789 -0.0018 -0.2168  0.1488
 2766W        W 6817   0.177   6.640  13.437  0.3905  0.0556  0.0435
 2767W        W 6818   7.219   6.060  11.892 -0.1302 -0.1721  0.2222
 2768W        W 6819   8.551   0.900   4.911  0.1725 -0.2069 -0.0324
 2769W        W 6820   5.091   4.897   1.573  0.1011 -0.1545  0.0643
 2770W        W 6821   1.357   0.666  10.622  0.0123  0.4205 -0.2782
 2771W        W 6822   6.965   5.155   4.114  0.1172 -0.0725 -0.0469
 2772W        W 6823   1.368   1.414   4.638  0.3100  0.2866 -0.1765
 2773W        W 6824   5.286   9.681   3.861  0.1795 -0.1215 -0.1568
 2774W        W 6825   6.018   1.610   9.946  0.0699  0.0149  0.1018
 2775W        W 6826   6.719   0.727   2.626  0.1167  0.0293 -0.0948
 2776W        W 6827   5.403  10.153   3.618 -0.1233 -0.0997  0.0952
 2777W        W 6828   4.783   7.922   0.284 -0.2291  0.2028  0.2111
 2778W        W 6829   2.559   0.277  11.811 -0.0034 -0.2554 -0.1538
 2779W        W 6830   0.462   0.225   2.909  0.0054  0.1123 -0.0185
 2780W        W 6831   5.526   4.700  12.083 -0.3276 -0.0411  0.1036
 2781W        W 6832   6.393   8.780   3.123 -0.0673 -0.1755  0.0072
 2782W        W 6833   2.532   7.393   1.686  0.2268  0.2326 -0.1990
 2783W        W 6834   8.782   1.613  13.300  0.2227  0.0987  0.0993
 2784W        W 6835   3.803   6.339   2.006 -0.0542  0.2080  0.0291
 2785W        W 6836   6.943   3.373   0.150  0.0087 -0.0993  0.0046
 2786W        W 6837   4.939   3.412  11.384  0.1403  0.0138  0.2037
 2787W        W 6838   1.709   7.329  13.135  0.4934  0.0150 -0.0196
 2788W        W 6839  10.142   1.724  11.429 -0.1906  0.2081  0.1557
 2789W        W 6840   5.548   0.114   4.569 -0.3368  0.0525  0.1289
 2790W        W 6841   1.084   1.165   1.564  0.2211 -0.1481 -0.1882
 2791W        W 6842   1.619   1.223   1.190 -0.1027 -0.1358  0.2624
 2792W        W 6843   8.507   2.656   1.502 -0.1221  0.0930  0.1029
 2793W        W 6844   9.585  10.137   5.364  0.2290  0.0239 -0.1627
 2794W        W 6845   6.863   2.935  11.488 -0.0459 -0.2156  0.0189
 2795W        W 6846   6.215   2.116   3.510 -0.4590 -0.0838 -0.3235
 2796W        W 6847   9.567   1.619  13.594  0.0555 -0.2443  0.0617
 2797W        W 6848   0.077   2.081   0.917  0.0913 -0.1154 -0.0409
 2798W        W 6849   8.476   8.832   9.269 -0.1426 -0.2122  0.1074
 2799W        W 6850   2.831   7.453   4.631 -0.1820 -0.1306  0.1106
 2800W        W 6851   0.084   4.973  11.056 -0.0643  0.2225 -0.0770
 2801W        W 6852   6.027   1.115   9.819 -0.1254  0.0505 -0.3199
 2802W        W 6853   2.620   4.075   4.021 -0.1083  0.1018  0.2488
 2803W        W 6854   6.878   0.543   3.238  0.1769  0.1386 -0.0402
 2804W        W 6855   9.332   7.223   3.321  0.1992 -0.2383 -0.1274
 2805W        W 6856   7.931   0.591   2.441 -0.0455 -0.2703 -0.1352
 2806W        W 6857   6.441   7.424  12.100 -0.2329  0.2791  0.0100
 2807W        W 6858   9.378   7.192  11.192 -0.1167  0.0810  0.1577
 2808W        W 6859   1.824   4.807  11.663 -0.1880  0.1705 -0.3988
 2809W        W 6860   3.516   2.288   9.291 -0.0365  0.2911 -0.1335
 2810W        W 6861   7.594   8.263   0.564 -0.1771  0.1068  0.1483
 2811W        W 6862   8.223   9.161  13.240  0.0064 -0.1309 -0.0379
 2812W        W 6863   5.973   0.413   1.452  0.1707  0.2311  0.1118
 2813W        W 6864   9.164   0.300   2.404 -0.0358 -0.0209  0.0614
 2814W        W 6865   7.590   2.402  12.682  0.0134  0.1669 -0.2375
 2815W        W 6866   7.585   1.338   3.622 -0.0928 -0.0271 -0.0491
 2816W        W 6867   8.616   5.601  13.062 -0.0512  0.3524  0.1583
 2817W        W 6868   3.098   0.480  10.962  0.1102 -0.2767  0.2043
 2818W        W 6869   3.368   2.568  10.619  0.0547  0.0608  0.0079
 2819W        W 6870   8.141   5.374   5.687 -0.0257  0.2291 -0.2757
 2820W        W 6871   8.945   7.712   1.858  0.2147  0.1626  0.0661
 2821W        W 6872   7.574   2.523  11.250 -0.0401  0.1999 -0.0266
 2822W        W 6873   8.179   1.652   3.261 -0.2460 -0.2691 -0.3549
 2823W        W 6874   7.335   2.884  12.581 -0.0097  0.0485  0.0491
 2824W        W 6875   6.848   3.257  13.566  0.1632 -0.2043  0.1336
 2825W        W 6876   5.319   4.051  13.374 -0.3047 -0.0103 -0.1040
 2826W        W 6877   9.265   9.644  10.630 -0.0836  0.1556  0.0511
 2827W        W 6878   2.720   4.081  13.885 -0.2879 -0.2626 -0.2942
 2828W        W 6879   0.133   1.539  13.716 -0.2876 -0.2471 -0.2966
 2829W        W 6880   6.245   1.187   1.631  0.2255  0.0380 -0.2304
 2830W        W 6881   9.661   1.826  12.789 -0.2777  0.0302  0.0352
 2831W        W 6882   7.321   8.757   5.686  0.2185  0.1755  0.6073
 2832W        W 6883   7.942   6.970   0.857 -0.0484  0.2481 -0.2578
 2833W        W 6884   9.921   6.597   2.250  0.4820 -0.2529 -0.0085
 2834W        W 6885   4.422   3.067   1.906 -0.0479  0.1050 -0.0558
 2835W        W 6886   4.985   4.912  13.395  0.0129 -0.2504  0.1524
 2836W        W 6887   8.273   0.621   3.559 -0.1248  0.3151 -0.1888
 2837W        W 6888   5.621   1.764   9.501 -0.2599  0.0411  0.0877
 2838W        W 6889   9.123   1.835  11.352  0.0872 -0.1210  0.2345
 2839W        W 6890   6.331   5.805   4.287  0.3754  0.5613 -0.0008
 2840W        W 6891   2.927   2.341  13.927 -0.1743 -0.0121  0.0029
 2841W        W 6892   2.601   9.255  12.270 -0.3623  0.1898  0.0802
 2842W        W 6893   4.663   8.854  11.053  0.0640 -0.2461  0.0135
 2843W        W 6894   8.303   6.315  10.112  0.2076  0.0518 -0.0132
 2844W        W 6895   1.258   4.627   0.871 -0.0581 -0.1610  0.0423
 2845W        W 6896   4.713   0.425  10.997  0.0346 -0.1571  0.1797
 2846W        W 6897   4.383   4.407   1.667 -0.1225  0.1590 -0.3619
 2847W        W 6898   5.730   1.188   1.996  0.2094  0.3152 -0.0811
 2848W        W 6899   8.995   0.205  11.714 -0.1127 -0.1373 -0.1262
 2849W        W 6900   8.388   8.512   4.798  0.1249 -0.3818 -0.3020
 2850W        W 6901   4.274   5.747   9.172 -0.1243 -0.1530  0.1560
 2851W        W 6902   5.150   8.888   9.635 -0.0011 -0.1474 -0.1396
 2852W        W 6903   0.835  10.124   4.141  0.0640  0.1175 -0.1209
 2853W        W 6904   6.689   9.843   5.091 -0.1388  0.2058 -0.0034
 2854W        W 6905   3.583   2.054   1.452 -0.1224 -0.2310  0.2156
 2855W        W 6906   7.108   0.736  10.611  0.2262  0.0650 -0.2177
 2856W        W 6907   3.269   5.664   3.947  0.1415  0.0980  0.0074
 2857W        W 6908   0.404   3.683  11.764  0.1042 -0.0039 -0.3511
 2858W        W 6909   3.731   7.051  13.095  0.1063 -0.2713 -0.0774
 2859W        W 6910   5.356   0.655   4.685 -0.1235 -0.0488 -0.1289
 2860W        W 6911   0.453   7.236   3.007 -0.0233 -0.0766  0.2639
 2861W        W 6912   6.110   5.445   3.654 -0.1398  0.3888 -0.0583
 2862W        W 6913   5.185   3.715   2.237 -0.1977  0.2760  0.2848
 2863W        W 6914  10.083   5.420   2.529  0.1516 -0.4181 -0.0655
 2864W        W 6915   7.792   0.176   9.699 -0.0030 -0.1369  0.3803
 2865W        W 6916   3.408   5.181  11.046  0.1285  0.1571 -0.1279
 2866W        W 6917   3.386   7.745   1.837  0.4243  0.0295 -0.2171
 2867W        W 6918   7.622   4.283   2.767  0.3532  0.1268  0.2427
 2868W        W 6919   5.828   9.188  12.829 -0.1096  0.0205 -0.1907
 2869W        W 6920   6.283   9.129  10.569  0.1262 -0.2383  0.0660
 2870W        W 6921   3.799   8.414  13.224  0.3128  0.0361  0.0660
 2871W        W 6922   0.618   1.410   4.501 -0.2800 -0.0580  0.0757
 2872W        W 6923   4.028   6.101   9.407 -0.0359 -0.2757  0.3054
 2873W        W 6924   0.104   9.605  10.905 -0.0558 -0.0629 -0.3469
 2874W        W 6925   1.973   6.282  10.018 -0.0849 -0.2845  0.0513
 2875W        W 6926   9.371   5.496  10.082  0.3656 -0.0940  0.1700
 2876W        W 6927   3.239   4.252   0.104  0.1566  0.1853  0.2037
 2877W        W 6928   8.253  10.127   1.609  0.1180 -0.1200 -0.0549
 2878W        W 6929  10.033   8.976   0.158  0.2862 -0.2080  0.0537
 2879W        W 6930  10.143   2.589  10.825 -0.1340 -0.1017 -0.0399
 2880W        W 6931   7.200   5.510  10.972  0.3806  0.0678  0.1211
 2881W        W 6932   0.230   8.921   1.255 -0.1531  0.1236  0.0024
 2882W        W 6933   9.725   6.176  13.181  0.1593  0.0912 -0.1549
 2883W        W 6934   3.128   2.320   1.644  0.1146  0.1243 -0.1478
 2884W        W 6935   2.604   4.243   1.523 -0.0167  0.1174  0.2727
 2885W        W 6936   8.426   8.902   2.467 -0.1881  0.1782 -0.0897
 2886W        W 6937   4.694   8.164   1.216 -0.2517 -0.0045 -0.2219
 2887W        W 6938   0.325   4.736   3.803 -0.1129  0.0032  0.0960
 2888W        W 6939   9.889   5.951  10.306  0.2829  0.0484 -0.1840
 2889W        W 6940   9.783   6.783   0.604 -0.1505 -0.0211 -0.1267
 2890W        W 6941   2.670   2.022   9.611  0.1010 -0.3140  0.1570
 2891W        W 6942   6.761   7.653  11.689 -0.0296 -0.0949  0.0346
 2892W        W 6943   3.020   8.441  12.779  0.1279  0.2584  0.0943
 2893W        W 6944   2.503   9.302  13.726 -0.0058 -0.1550 -0.2299
 2894W        W 6945   1.497   0.870   0.653 -0.0218 -0.0424  0.1777
 2895W        W 6946   6.233   0.596  13.130  0.0213 -0.1514  0.1661
 2896W        W 6947   5.070   5.931   0.190  0.1424 -0.1460 -0.2247
 2897W        W 6948   8.872   8.277   4.054 -0.0233  0.2059 -0.0675
 2898W        W 6949   2.221   0.531  12.086  0.0967  0.1062 -0.0735
 2899W        W 6950   8.214   0.795  10.709  0.0448  0.2938 -0.0537
 2900W        W 6951   9.823   3.176  12.430  0.0095 -0.1450  0.2003
 2901W        W 6952   0.908   5.602  10.262 -0.0539  0.1161  0.0951
 2902W        W 6953   9.434   8.495  10.679 -0.1480  0.4063  0.0538
 2903W        W 6954   1.438   2.119   3.715  0.0247  0.0001  0.2627
 2904W        W 6955   3.796   0.018   2.476 -0.0958 -0.3717  0.2284
 2905W        W 6956   5.133   6.111   5.268  0.2467 -0.0460 -0.1443
 2906W        W 6957   6.273   1.022   4.153 -0.1599 -0.2105 -0.3036
 2907W        W 6958  10.097   6.265   3.053  0.2022  0.0280 -0.2066
 2908W        W 6959   8.647   1.155   0.452  0.1620  0.1333 -0.0245
 2909W        W 6960   9.790   7.528  12.641  0.0359 -0.1211 -0.3526
 2910W        W 6961   8.735   9.032  10.526  0.2720  0.0151  0.0219
 2911W        W 6962   9.283   8.307   3.705  0.1188 -0.2326  0.1381
 2912W        W 6963   6.528   7.639   4.325 -0.2283 -0.1507  0.1070
 2913W        W 6964   5.514   8.719   9.978 -0.1963  0.3648  0.1608
 2914W        W 6965   2.964   1.653  12.945 -0.1161  0.1426 -0.4134
 2915W        W 6966   0.184   5.362   2.072 -0.4043  0.2472  0.2420
 2916W        W 6967   1.379   1.227   2.483 -0.1476  0.2793  0.0611
 2917W        W 6968   6.883   5.998   2.764 -0.0498  0.0627  0.4040
 2918W        W 6969   2.673   9.751  12.489 -0.0092  0.2892  0.0570
 2919W        W 6970   3.998   0.293  12.141  0.2505  0.1465  0.2926
 2920W        W 6971   9.074   8.309   8.975  0.1888  0.2235 -0.0643
 2921W        W 6972   0.553   1.257   3.982 -0.1872  0.2085  0.1371
 2922W        W 6973   1.216   2.509   3.927  0.0847  0.1886 -0.1435
 2923W        W 6974   1.874   3.591  13.120  0.0280 -0.1671 -0.1665
 2924W        W 6975   8.617   6.719   1.851 -0.1254 -0.0617 -0.2477
 2925W        W 6976   0.684   8.119   0.533  0.1297  0.4405 -0.2203
 2926W        W 6977   8.443   7.664   1.966  0.1435 -0.2869 -0.1423
 2927W        W 6978   0.614   8.191  13.046 -0.3078  0.0811  0.3103
 2928W        W 6979   4.970   4.792   1.101  0.1259  0.1730 -0.0143
 2929W        W 6980   6.562   5.088   2.624  0.0892 -0.0109 -0.3711
 2930W        W 6981   5.981   9.436  11.941  0.0706 -0.0985  0.0416
 2931W        W 6982   8.501  10.122  13.806  0.0988  0.0917  0.2226
 2932W        W 6983   8.488   0.401   1.619  0.2517 -0.1125  0.0456
 2933W        W 6984   7.635   9.802  10.972  0.2332 -0.1417  0.0037
 2934W        W 6985   7.265   2.700  13.019 -0.1021 -0.0199 -0.1982
 2935W        W 6986   1.950   4.649  12.182  0.3914 -0.2480  0.1370
 2936W        W 6987   1.416   9.385  12.538  0.2547  0.0035 -0.0447
 2937W        W 6988   1.167   2.950  12.583  0.0845  0.2642  0.1362
 2938W        W 6989   9.357   0.733  10.396  0.1056  0.1528 -0.2036
 2939W        W 6990   5.074   4.424   3.976 -0.0626 -0.2693 -0.0485
 2940W        W 6991   9.759   6.230   1.940  0.0120 -0.0337 -0.0176
 2941W        W 6992   1.528   4.361  11.622  0.0926  0.1163 -0.0832
 2942W        W 6993   6.734   1.283   3.400 -0.2334 -0.0303 -0.2496
 2943W        W 6994   6.991   7.243  10.382 -0.2273  0.6008  0.0390
 2944W        W 6995   4.531   6.209  11.264 -0.1573  0.0622 -0.1470
 2945W        W 6996   2.614   7.926   1.309 -0.1014 -0.4132  0.2252
 2946W        W 6997   2.959   9.305   0.511  0.1482  0.1657  0.0962
 2947W        W 6998   2.017   3.391   0.857  0.0565  0.1423  0.0615
 2948W        W 6999   2.293   6.849  13.052  0.0137  0.2397 -0.0890
 2949W        W 7000   5.388   1.466  12.243  0.3089 -0.0534 -0.0696
 2950W        W 7001   8.544   3.657   2.056 -0.1941  0.1545 -0.2082
 2951W        W 7002  10.200   0.381   3.206 -0.1980  0.2848 -0.0578
 2952W        W 7003  10.190   7.883  12.710 -0.1001 -0.0152  0.1714
 2953W        W 7004   9.285   1.528   0.178  0.0923 -0.0577 -0.0979
 2954W        W 7005   5.406   6.994  12.804  0.4099 -0.2409  0.1627
 2955W        W 7006   8.097   9.181   4.612 -0.3226 -0.1686  0.1832
 2956W        W 7007   4.518   7.160   3.292  0.0286 -0.1094  0.0975
 2957W        W 7008   4.718   4.922  11.213 -0.0030  0.0167 -0.0174
 2958W        W 7009   4.589   2.631   0.277 -0.2956 -0.2659 -0.0973
 2959W        W 7010   1.220   2.853   1.125  0.0370  0.1265  0.0615
 2960W        W 7011   0.773   2.107  12.549 -0.0412 -0.0744  0.4528
 2961W        W 7012   5.170   2.912  12.240 -0.2142 -0.1530 -0.5504
 2962W        W 7013   6.017   6.359  11.046  0.2449 -0.1079  0.0191
 2963W        W 7014   5.368   3.525   0.483 -0.0082  0.1227 -0.0300
 2964W        W 7015   5.342   0.124  10.832 -0.0657 -0.2147  0.1087
 2965W        W 7016   5.164   9.558  13.843  0.0515 -0.2333  0.3189
 2966W        W 7017   5.669   1.805   3.843 -0.1723 -0.1257  0.4098
 2967W        W 7018   5.113   5.202   8.963  0.1393  0.0898  0.0965
 2968W        W 7019   9.520   0.946  11.709 -0.0067 -0.0621 -0.5006
 2969W        W 7020   5.783   5.378   2.303 -0.0266  0.1320  0.0670
 2970W        W 7021   3.350   8.423  10.954  0.1383 -0.1479  0.0926
 2971W        W 7022   4.201   6.670  10.979  0.1599 -0.1727 -0.0090
 2972W        W 7023   1.675   7.435   2.662  0.0260  0.2016 -0.0042
 2973W        W 7024   7.013   4.548  13.032 -0.1394 -0.0240 -0.2971
 2974W        W 7025   1.479   6.744  12.490 -0.0807  0.0421 -0.0070
 2975W        W 7026   1.307   0.786   4.090  0.1384 -0.3146  0.2983
 2976W        W 7027  10.037   0.998  11.935 -0.0494  0.2343  0.0527
 2977W        W 7028   0.600   1.544  12.913  0.1416 -0.0323  0.1203
 2978W        W 7029   3.499   9.575   4.068  0.1157  0.4641 -0.2207
 2979W        W 7030   1.970   5.331   2.877  0.0541  0.0057  0.5178
 2980W        W 7031   0.545   1.809  11.402 -0.2631  0.0544 -0.1275
 2981W        W 7032   2.566   2.918  10.584  0.0278 -0.1164  0.2049
 2982W        W 7033   6.790   4.945   9.792 -0.2962 -0.0303  0.0499
 2983W        W 7034   8.363   1.585   9.963  0.0254 -0.0290 -0.3890
 2984W        W 7035   9.213   4.557   1.203  0.3520  0.0801 -0.0043
 2985W        W 7036   7.702   4.045   3.982 -0.1239 -0.2019  0.0952
 2986W        W 7037   2.672   4.829   1.739 -0.1040 -0.1532  0.1568
 2987W        W 7038   6.703   5.751   5.964 -0.2527 -0.0567  0.0102
 2988W        W 7039  10.057   4.920   2.689  0.1851  0.2867  0.1243
 2989W        W 7040   1.143   6.836   3.117 -0.0686 -0.0309 -0.0472
 2990W        W 7041   1.941   3.451  10.040 -0.4803 -0.0206  0.0639
 2991W        W 7042   7.166   3.996   4.028 -0.1146  0.1707 -0.1499
 2992W        W 7043   1.233   7.112   9.022 -0.0526 -0.4431 -0.1465
 2993W        W 7044   3.478   8.810   1.119 -0.0950  0.1015  0.0841
 2994W        W 7045   6.657   5.467  12.386 -0.2383 -0.2219  0.1751
 2995W        W 7046   0.434   2.420   1.068  0.1689 -0.1218 -0.3653
 2996W        W 7047   6.198   6.494  13.012  0.1577 -0.2041 -0.1022
 2997W        W 7048   5.034   2.552  11.431  0.0402 -0.0468  0.0705
 2998W        W 7049   0.978   7.656  13.036 -0.3014 -0.0036 -0.1707
 2999W        W 7050   0.761   4.477  13.031 -0.0805  0.2788  0.1829
 3000W        W 7051   7.512   2.587  13.881  0.2463  0.3602 -0.0720
 3001W        W 7052   3.002   7.185  10.246  0.1220  0.0330 -0.3534
 3002W        W 7053   5.963   4.778   9.279 -0.0428  0.2722 -0.1015
 3003W        W 7054   6.045   5.139   1.870 -0.1352  0.1123  0.2609
 3004W        W 7055   2.106   7.410  12.358  0.2505 -0.0853  0.1546
 3005W        W 7056   7.919   0.120   0.222 -0.0111 -0.0993 -0.0457
 3006W        W 7057   0.130   8.640  10.678  0.1292 -0.1464  0.1413
 3007W        W 7058   8.158   7.451   9.754  0.0154  0.0911  0.0249
 3008W        W 7059   6.225   0.144   9.714  0.1630  0.2608 -0.1416
 3009W        W 7060   6.616  10.082   9.468  0.0584 -0.0114  0.1357
 3010W        W 7061  10.052   7.319   4.034 -0.3782  0.1102 -0.2347
 3011W        W 7062   5.941   3.295  10.871 -0.0608  0.4805  0.2046
 3012W        W 7063   0.379   8.966  10.267  0.2709  0.1616 -0.0439
 3013W        W 7064   7.586   5.385   1.630  0.0484 -0.4559 -0.3030
 3014W        W 7065   0.694   4.457   0.748  0.1231  0.0916 -0.3224
 3015W        W 7066   8.092   7.868  13.504  0.3174 -0.0756  0.0403
 3016W        W 7067   4.088   1.939  10.437 -0.0166  0.2526 -0.1198
 3017W        W 7068   5.676   6.971  10.834  0.3662 -0.0470  0.2423
 3018W        W 7069   6.367   6.333   3.615  0.1272  0.2052 -0.0835
 3019W        W 7070   9.929   9.868   2.385 -0.2125  0.2760  0.1134
 3020W        W 7071   6.875   0.243   4.315 -0.5071  0.4019  0.0957
 3021W        W 7072   7.152   2.245  10.243  0.0847 -0.0443 -0.3949
 3022W        W 7073   7.054   2.420   3.341 -0.0438 -0.0503 -0.0967
 3023W        W 7074   9.218   1.081   0.370 -0.1264  0.1244 -0.0246
 3024W        W 7075   3.581   8.011   0.126  0.3644  0.0689 -0.5761
 3025W        W 7076   8.027   4.435   9.903  0.0277  0.0220 -0.1444
 3026W        W 7077   4.108   7.666   2.656  0.0576 -0.1942 -0.0306
 3027W        W 7078   7.199   5.511  10.439 -0.0691  0.4752  0.5497
 3028W        W 7079   9.945   5.763   3.217  0.0370 -0.3673 -0.0915
 3029W        W 7080   3.229   2.304  13.460 -0.4307  0.2815 -0.2318
 3030W        W 7081   1.515  10.024   2.080 -0.1133  0.3469 -0.0812
 3031W        W 7082   5.285   2.337  10.398  0.2572 -0.3731  0.2678
 3032W        W 7083   8.680  10.046   1.810  0.3590 -0.0049  0.1207
 3033W        W 7084   6.418   1.092   0.388  0.0142 -0.1143 -0.1411
 3034W        W 7085   0.448   8.566   0.788 -0.0069 -0.1568 -0.0903
 3035W        W 7086   1.950   0.053   0.717 -0.2749  0.1680 -0.3084
 3036W        W 7087   0.696   7.573   2.309 -0.1035 -0.0374  0.0001
 3037W        W 7088   7.905   3.592   2.840  0.1868 -0.0650 -0.0136
 3038W        W 7089   4.120   1.659   2.339 -0.0945 -0.3615  0.1649
 3039W        W 7090   7.881   9.956  13.250 -0.2805 -0.2775 -0.0082
 3040W        W 7091   2.599   4.803   2.945  0.1186  0.1615  0.0152
 3041W        W 7092   7.908   3.650   0.385 -0.0482  0.0449  0.2501
 3042W        W 7093   5.311   6.368   9.193 -0.1884 -0.1508  0.0821
 3043W        W 7094   9.613   2.684  13.724  0.1275 -0.2239 -0.4578
 3044W        W 7095   8.714   5.377   3.919  0.0270  0.1327 -0.0444
 3045W        W 7096   9.182   8.745   5.704 -0.1310  0.1930  0.0590
 3046W        W 7097   5.433   9.639  11.969  0.2593 -0.2110 -0.0761
 3047W        W 7098   1.168   2.549   3.353 -0.4069 -0.2959  0.4508
 3048W        W 7099   4.923   3.162   9.330  0.2176  0.0505  0.0936
 3049W        W 7100   9.300   3.585   9.341 -0.0317 -0.2735 -0.0642
 3050W        W 7101   0.486   7.772  11.002  0.2560  0.0666  0.0494
 3051W        W 7102   4.322   0.168  10.785 -0.1701  0.1233  0.0563
 3052W        W 7103   8.177   2.328   1.666 -0.1622 -0.0071 -0.1392
 3053W        W 7104   2.913   9.215   0.030  0.3929 -0.0968  0.1555
 3054W        W 7105   2.528   8.244   4.151  0.3219 -0.1901 -0.0579
 3055W        W 7106   9.737   4.451  11.024  0.1814 -0.1147  0.3211
 3056W        W 7107   5.177   6.501   5.765  0.2007  0.3410  0.3354
 3057W        W 7108   6.919   2.885   3.553 -0.1674  0.0548  0.2459
 3058W        W 7109   9.883   2.058  11.202  0.0256  0.1167  0.4391
 3059W        W 7110   7.201   0.491   2.817 -0.2457  0.1057 -0.3023
 3060W        W 7111   4.824   1.040   9.582  0.0638  0.0962 -0.1139
 3061W        W 7112   2.956   3.651  13.775 -0.0861 -0.3589  0.1266
 3062W        W 7113   4.247   7.189   1.780  0.1193 -0.1176 -0.1136
 3063W        W 7114   2.611   7.212  13.020  0.3990 -0.2123 -0.3196
 3064W        W 7115   0.819   1.130  11.109  0.2951 -0.0343  0.1059
 3065W        W 7116   2.770   8.891  11.902 -0.0303  0.2002 -0.0134
 3066W        W 7117   3.727   9.015  12.321 -0.0804  0.1431 -0.2885
 3067W        W 7118  10.138   7.496  12.248 -0.2266  0.2826  0.0700
 3068W        W 7119   4.556   8.550  12.586  0.1358 -0.0167  0.0120
 3069W        W 7120   5.038   3.846   2.739 -0.2135  0.3119  0.0305
 3070W        W 7121   7.453   8.628   9.426  0.0366  0.0766 -0.0962
 3071W        W 7122   3.959   6.338   3.143  0.1572 -0.1116 -0.2779
 3072W        W 7123   1.621   9.896  11.079  0.0891 -0.0829 -0.1144
 3073W        W 7124   4.528   7.666  12.362 -0.0809 -0.0023  0.1782
 3074W        W 7125   6.215   0.013   1.201  0.0559  0.0507  0.2072
 3075W        W 7126   3.163   8.794   4.470 -0.0966  0.1311 -0.2815
 3076W        W 7127   0.602   4.950   4.174 -0.2926 -0.3108 -0.2683
 3077W        W 7128   7.912   8.044  12.522  0.4380  0.1512  0.4326
 3078W        W 7129   7.787   3.548  13.270 -0.0788 -0.2585 -0.0455
 3079W        W 7130   5.078   9.964   4.520 -0.1203 -0.1488  0.1513
 3080W        W 7131   0.632   9.530   4.657 -0.1270 -0.0890 -0.0279
 3081W        W 7132   4.364   0.289   9.519 -0.1362  0.4523  0.1348
 3082W        W 7133   9.153  10.025  12.584 -0.0928  0.2302  0.0156
 3083W        W 7134   0.236   9.957   2.359  0.1951 -0.2761 -0.0709
 3084W        W 7135   9.843   8.206   1.989 -0.0259  0.2269  0.0256
 3085W        W 7136   8.580   8.619  11.226  0.2331  0.1045  0.0110
 3086W        W 7137   0.031   3.085   2.607 -0.0511 -0.2504  0.1605
 3087W        W 7138   8.057   1.824  11.772  0.0161  0.1581 -0.1142
 3088W        W 7139   4.754  10.156  10.863  0.1335  0.2089  0.3456
 3089W        W 7140   0.042   9.594  10.413  0.1624 -0.1814 -0.1146
 3090W        W 7141   7.699   4.370   1.191 -0.1448 -0.1828 -0.1352
 3091W        W 7142  10.156   0.720   9.479  0.3601 -0.0063  0.1806
 3092W        W 7143   1.781   8.379  12.044  0.2043  0.1963 -0.1885
 3093W        W 7144   1.431   3.297   1.523 -0.0891  0.0439 -0.0758
 3094W        W 7145   3.534   3.189   2.681 -0.1476 -0.1882  0.0292
 3095W        W 7146   6.856   7.286   9.917 -0.0503  0.3973 -0.2596
 3096W        W 7147   9.586   0.919  13.428  0.0864 -0.1703  0.0353
 3097W        W 7148   5.756   5.953   1.519 -0.1309  0.1176  0.0807
 3098W        W 7149   2.107   0.080   4.989  0.0691  0.0007  0.1668
 3099W        W 7150   9.082   3.906  12.144 -0.1322 -0.2250  0.0375
 3100W        W 7151   7.861   9.883   5.905  0.3384 -0.0125 -0.0336
 3101W        W 7152   1.105   1.904  10.724  0.2037 -0.0259 -0.1053
 3102W        W 7153   2.538  10.124  10.521  0.0053 -0.0204  0.1996
 3103W        W 7154   8.940   5.306   3.026 -0.0141  0.2225 -0.0960
 3104W        W 7155   0.000   6.300   2.560 -0.3831 -0.1946 -0.0211
 3105W        W 7156   3.420   2.076   0.942 -0.1139 -0.3970  0.0192
 3106W        W 7157   9.152   4.454   3.438  0.2008  0.0177 -0.1701
 3107W        W 7158   3.024   2.196  13.052 -0.3385  0.3199 -0.1612
 3108W        W 7159   5.822   9.609  10.653 -0.0930 -0.1834 -0.2352
 3109W        W 7160   8.259   1.308   8.457  0.0408 -0.2190 -0.2421
 3110W        W 7161   1.276   1.440   0.547  0.3333 -0.0034 -0.2180
 3111W        W 7162   9.237   9.172  12.894  0.1259 -0.1662 -0.0559
 3112W        W 7163   1.728   8.835  11.243 -0.2274 -0.1318  0.0850
 3113W        W 7164   0.237   6.466   0.419 -0.0690  0.1196 -0.0738
 3114W        W 7165   4.783   7.125  12.201 -0.0112 -0.1262  0.1467
 3115W        W 7166   8.874   4.072  11.158  0.1838 -0.1055 -0.1419
 3116W        W 7167   5.986   1.925  10.894  0.1511 -0.1907  0.1991
 3117W        W 7168   2.410   7.711   2.173 -0.4634  0.1493  0.1924
 3118W        W 7169   6.059   6.061   9.736  0.1778 -0.3199  0.1432
 3119W        W 7170  10.078   0.552  12.257 -0.4396 -0.1796  0.0883
 3120W        W 7171   1.853   7.482  10.882 -0.1191  0.0902 -0.0412
 3121W        W 7172   6.583   6.543  10.006 -0.0406  0.4301 -0.0519
 3122W        W 7173  10.141   5.903   2.191  0.1466  0.0788 -0.2030
 3123W        W 7174   8.427   3.656   4.556 -0.1325 -0.0076 -0.0011
 3124W        W 7175   3.019   2.537  11.025  0.1149  0.3515  0.2410
 3125W        W 7176   1.749   9.933   2.617 -0.1886  0.0983  0.0059
 3126W        W 7177   3.817   0.476   4.190  0.0198  0.0244 -0.0656
 3127W        W 7178   5.882   7.340  11.276 -0.1730 -0.0198 -0.3522
 3128W        W 7179   3.821   5.577  11.146  0.2478 -0.1009 -0.0011
 3129W        W 7180   9.718   2.842   9.298 -0.0720 -0.1859  0.1262
 3130W        W 7181   7.401   9.571   0.556 -0.2780 -0.1286  0.0621
 3131W        W 7182   0.342   3.161   3.122  0.2305  0.2044  0.2581
 3132W        W 7183   4.005   2.234   1.989 -0.2373  0.0423 -0.0083
 3133W        W 7184  10.042   8.503   3.907  0.0338  0.0294 -0.0753
 3134W        W 7185   9.185   8.570   9.772 -0.2180  0.1404 -0.0381
 3135W        W 7186   8.950   3.454  12.342  0.0308  0.0583 -0.1417
 3136W        W 7187   2.998   8.671  13.286  0.4130 -0.0538  0.0309
 3137W        W 7188   4.614   3.503  12.369 -0.0467 -0.1996 -0.0587
 3138W        W 7189   7.436   7.924  10.354 -0.2439 -0.0179  0.0698
 3139W        W 7190   3.795   6.280  13.005  0.0731 -0.2571  0.0209
 3140W        W 7191   3.672   9.056   4.040  0.1156 -0.0226 -0.3367
 3141W        W 7192   9.969   7.052   4.642 -0.1223 -0.1512  0.0078
 3142W        W 7193   4.127   1.373   3.164 -0.1194  0.0126  0.0435
 3143W        W 7194   4.078   6.082  11.610 -0.3379 -0.1418 -0.2072
 3144W        W 7195   2.969   1.415  13.907 -0.1925 -0.0788 -0.0478
 3145W        W 7196   2.793   4.650   1.237 -0.2043 -0.0739  0.1224
 3146W        W 7197   8.092   5.910   1.095  0.0336  0.2995  0.0602
 3147W        W 7198   4.814   9.543  11.153  0.0594 -0.1141  0.0065
 3148W        W 7199   3.932   9.650   9.743 -0.1223  0.1373 -0.0766
 3149W        W 7200   9.540   1.871  11.623 -0.1038  0.0399  0.0053
 3150W        W 7201   2.909   7.642   9.990 -0.0374  0.0037  0.1346
 3151W        W 7202   9.906   1.706   2.937  0.1428  0.2363  0.1720
 3152W        W 7203   6.056   9.952  13.052 -0.1988 -0.2463 -0.1341
 3153W        W 7204   5.387   0.843  12.736 -0.2899 -0.0368  0.0175
 3154W        W 7205   5.584   7.844   9.569  0.2778 -0.0368  0.1407
 3155W        W 7206   4.923   6.877  12.616  0.0641 -0.1022 -0.0280
 3156W        W 7207   2.235   2.987   2.484  0.0425  0.2623 -0.1986
 3157W        W 7208   6.170   6.861   5.958 -0.1330 -0.1321  0.2404
 3158W        W 7209   5.759   9.647  11.562  0.2104  0.1586 -0.0722
 3159W        W 7210   5.772   3.581  11.203  0.1699 -0.3550  0.2492
 3160W        W 7211   1.226   7.751  11.551  0.2422  0.1856 -0.2802
 3161W        W 7212   6.916   7.375  12.198 -0.0450  0.1452  0.0891
 3162W        W 7213   8.245   5.028   5.293  0.0906 -0.1194 -0.2012
 3163W        W 7214   1.998   6.933  12.519  0.0958  0.3784  0.2494
 3164W        W 7215   1.036   2.071  12.111 -0.4036  0.0239  0.1514
 3165W        W 7216   5.682   4.105  12.928 -0.0184 -0.0691 -0.0150
 3166W        W 7217   6.651   2.550  11.779 -0.0235 -0.0384 -0.2403
 3167W        W 7218   0.525   5.383   0.754  0.1668 -0.3349 -0.2220
 3168W        W 7219   1.232   9.345   3.456  0.0749 -0.1035  0.0913
 3169W        W 7220   6.363   0.009   3.077  0.0306  0.0238 -0.0582
 3170W        W 7221   0.857   2.458  13.330 -0.1127 -0.1551  0.1325
 3171W        W 7222   7.556   9.101   9.722 -0.2386 -0.0263  0.0450
 3172W        W 7223   7.410  10.204   2.912 -0.1300 -0.4576  0.0697
 3173W        W 7224   0.895   3.632   9.960  0.0765 -0.0513  0.1398
 3174W        W 7225   4.767   9.067  12.440 -0.1312 -0.0471  0.3845
 3175W        W 7226   1.726   5.804  10.328  0.2391  0.0585  0.4288
 3176W        W 7227   3.961   3.518   3.028  0.1252  0.0261  0.0789
 3177W        W 7228   7.752   4.394   3.346 -0.0255  0.0008 -0.1795
 3178W        W 7229   2.749   9.828   8.519 -0.2173  0.1175 -0.2266
 3179W        W 7230   3.081  10.020  12.460  0.0341  0.3186  0.3390
 3180W        W 7231   1.296   7.731   1.218 -0.2174  0.0660  0.2386
 3181W        W 7232   9.622   6.867  10.920 -0.0001  0.0075 -0.0246
 3182W        W 7233   1.093   2.901  10.508 -0.1077  0.1701 -0.0482
 3183W        W 7234   4.267   9.593   2.883  0.1521  0.1701  0.3103
 3184W        W 7235   7.396   9.957  11.994  0.0678  0.0793  0.2248
 3185W        W 7236   4.643   6.257   2.225  0.0180  0.1518  0.1866
 3186W        W 7237   6.321   6.512  10.500 -0.0686 -0.0356  0.2113
 3187W        W 7238   6.294   4.939   8.472 -0.0250  0.5595 -0.0850
 3188W        W 7239   0.668   8.529  13.473  0.1469  0.0397 -0.0671
 3189W        W 7240   3.111   6.247  11.921  0.0143 -0.0101 -0.1657
 3190W        W 7241   1.876   6.761   1.260  0.2619  0.0266 -0.1270
 3191W        W 7242   2.090   6.742  13.807  0.0871  0.1157  0.1302
 3192W        W 7243   5.267   3.140   2.021 -0.3714  0.0690  0.2685
 3193W        W 7244   7.294   1.034   0.702  0.3762  0.1246 -0.0333
 3194W        W 7245   0.572   1.386   9.348  0.4405  0.1759 -0.3504
 3195W        W 7246   1.733   4.900   1.795 -0.0573  0.1078  0.0385
 3196W        W 7247  10.112   5.989  12.908  0.0922  0.1267  0.1898
 3197W        W 7248   3.311   6.841  10.218 -0.3133 -0.0774  0.1980
 3198W        W 7249   5.749   3.861  10.109 -0.2629 -0.4866  0.4269
 3199W        W 7250   7.961   5.222   2.714  0.3599 -0.1373  0.3739
 3200W        W 7251   1.220   9.717   3.019  0.0122 -0.1045 -0.2177
 3201W        W 7252   4.149   2.099  13.658  0.0378  0.0591  0.2125
 3202W        W 7253   5.553   7.894  10.152 -0.0710 -0.0948  0.1045
 3203W        W 7254   8.835   9.481  10.301  0.2245  0.0164  0.2099
 3204W        W 7255  10.142   4.876  12.667 -0.0041 -0.2180  0.0898
 3205W        W 7256   4.677   4.930  10.387  0.1395 -0.1256 -0.1899
 3206W        W 7257   1.171   7.356   0.858 -0.0511  0.0805 -0.2660
 3207W        W 7258   1.828   4.909  11.197 -0.0959 -0.0700 -0.1827
 3208W        W 7259   0.346   5.978  10.886  0.2869  0.1758  0.3632
 3209W        W 7260   9.323   6.008  11.954 -0.0355  0.0197  0.0633
 3210W        W 7261   0.311   8.904  11.706  0.1552 -0.0964 -0.0443
 3211W        W 7262   5.716   4.654  12.988  0.0425  0.0528 -0.3384
 3212W        W 7263   2.805  10.071   1.428  0.0315 -0.2421  0.4745
 3213W        W 7264   8.460   7.148   0.033  0.0929 -0.0085  0.0118
 3214W        W 7265   4.213   0.951   0.880  0.3881 -0.2162  0.0967
 3215W        W 7266   6.546   4.848   0.355  0.0970 -0.0918 -0.1853
 3216W        W 7267   5.763   4.097   2.844  0.1546 -0.3315 -0.1214
 3217W        W 7268   6.406   6.064   9.325  0.1120  0.1276  0.0950
 3218W        W 7269   8.301   1.563  13.166  0.0029 -0.1582 -0.0435
 3219W        W 7270   6.528   2.344   1.623  0.1289  0.2995  0.1084
 3220W        W 7271   3.205   9.153   4.878 -0.3630  0.2001 -0.2214
 3221W        W 7272   2.181   2.608   1.546 -0.1881 -0.4532  0.1224
 3222W        W 7273   4.952   0.759   3.246  0.0550 -0.0326  0.1810
 3223W        W 7274   8.778   3.987  13.040 -0.1128 -0.0130 -0.1453
 3224W        W 7275   3.286   5.847   3.295 -0.0871  0.2056 -0.3836
 3225W        W 7276   7.820   9.535  13.743  0.3490  0.1420 -0.0440
 3226W        W 7277   1.283   4.637  12.145 -0.0138  0.0422 -0.1303
 3227W        W 7278   0.687   9.514  11.535 -0.0191  0.1326  0.1782
 3228W        W 7279   6.447   1.112   5.129  0.2393 -0.4047  0.2386
 3229W        W 7280   6.810   9.688   9.820 -0.0482 -0.1402  0.0921
 3230W        W 7281   1.642   2.474  13.024  0.0058  0.3661 -0.0104
 3231W        W 7282   6.944   5.932   0.991  0.0632  0.0302  0.1287
 3232W        W 7283   7.877   1.997   1.393 -0.1554 -0.0166 -0.2266
 3233W        W 7284   0.698   7.627  11.920 -0.0988 -0.0260  0.0521
 3234W        W 7285   6.507   7.004  10.155  0.2237  0.2216 -0.0628
 3235W        W 7286   6.998   4.689  12.369  0.2161 -0.0791  0.1396
 3236W        W 7287   3.804   3.153   0.054  0.1943  0.4276  0.0597
 3237W        W 7288   9.531   8.798  11.709  0.0741  0.0264 -0.1064
 3238W        W 7289   4.278   3.755  12.023 -0.3668 -0.1078 -0.0400
 3239W        W 7290   1.284   5.955   0.693 -0.1146 -0.1229  0.1089
 3240W        W 7291   9.935   5.624  13.302  0.0468 -0.2450  0.3504
 3241W        W 7292   9.793   8.264  11.980  0.0133 -0.1457  0.0876
 3242W        W 7293   4.704   9.159   2.315 -0.3283 -0.3270  0.2695
 3243W        W 7294   2.374   9.836   9.380  0.1428  0.2853  0.3007
 3244W        W 7295   9.967   7.054  13.666 -0.1353  0.0984  0.1742
 3245W        W 7296   9.315   2.634   3.457 -0.0437  0.1910 -0.1874
 3246W        W 7297   6.991   3.259  10.199  0.0993 -0.1561  0.4172
 3247W        W 7298   9.905   3.595   0.448  0.1376 -0.0389 -0.2077
 3248W        W 7299   7.720   7.436   4.625  0.2855 -0.2329 -0.0488
 3249W        W 7300   1.655   8.849   8.686  0.0243 -0.0703 -0.1574
 3250W        W 7301   0.940   3.096   3.580  0.0044  0.0682  0.1979
 3251W        W 7302   4.152   4.391  10.603 -0.2775  0.1140  0.3204
 3252W        W 7303   9.517   0.013   3.344 -0.1719 -0.3682  0.0486
 3253W        W 7304   8.868   3.118   0.152 -0.0635  0.0229  0.1012
 3254W        W 7305   3.342   6.423  12.379  0.0392  0.1634  0.1449
 3255W        W 7306   8.971   2.575  12.972  0.0969 -0.1226 -0.1331
 3256W        W 7307   4.398   3.311  11.816 -0.0559  0.0291 -0.1091
 3257W        W 7308   4.705   9.488   3.110 -0.1043 -0.2537 -0.0898
 3258W        W 7309   7.221   8.270   4.869 -0.2389 -0.0052  0.0115
 3259W        W 7310   4.634   0.178   4.600 -0.0902 -0.3297 -0.1007
 3260W        W 7311   7.816   8.228  11.468  0.0566 -0.3512  0.3574
 3261W        W 7312   3.153   4.753   0.349  0.0264  0.2215  0.1327
 3262W        W 7313   4.552   6.865   3.738 -0.0094  0.1980  0.0536
 3263W        W 7314   4.102   4.627   0.879  0.2050  0.0486 -0.0721
 3264W        W 7315   5.003   4.901   3.775 -0.2241 -0.0740 -0.1440
 3265W        W 7316   7.621   8.768   0.406  0.0442  0.1211 -0.1285
 3266W        W 7317   7.206  10.028  10.050  0.2031 -0.2204 -0.0151
 3267W        W 7318   1.223   1.521  10.377 -0.1713 -0.2092 -0.0859
 3268W        W 7319   2.538   3.022   1.545  0.4913 -0.3392 -0.0485
 3269W        W 7320   5.043   1.225   8.930 -0.2637  0.2481 -0.0982
 3270W        W 7321   1.717   0.501  11.013 -0.1966 -0.2496  0.0486
 3271W        W 7322   0.635   0.262   0.145 -0.2800  0.1681  0.1037
 3272W        W 7323   5.818   4.194   4.750  0.2851 -0.1061  0.0627
 3273W        W 7324   0.224   8.462  13.686 -0.1127  0.3020 -0.0653
 3274W        W 7325   6.435   5.560   0.532  0.0034 -0.0951  0.0669
 3275W        W 7326   3.579   3.043   4.361 -0.2295  0.2660 -0.2047
 3276W        W 7327   2.589   2.738   0.814 -0.4508  0.0016  0.4305
 3277W        W 7328   5.115   0.546   8.789 -0.2175 -0.1383 -0.1430
 3278W        W 7329   6.806   4.868   3.731 -0.1023 -0.0052  0.0181
 3279W        W 7330   4.307   7.744   1.324 -0.1229  0.1725  0.0784
 3280W        W 7331   8.910   1.342   2.580  0.1712 -0.2101  0.0210
 3281W        W 7332   2.513   8.349  12.653  0.2894  0.2050  0.3139
 3282W        W 7333   5.612   2.920  10.907  0.0089 -0.1545  0.3673
 3283W        W 7334   7.439   9.361  11.853  0.1498 -0.3041  0.2043
 3284W        W 7335   9.624   4.639   8.918  0.1948  0.0318 -0.2414
 3285W        W 7336   4.427   3.561  13.382  0.2209 -0.0496  0.2341
 3286W        W 7337   9.780   5.155   4.058 -0.0122 -0.2061  0.1403
 3287W        W 7338   1.979   1.360   3.191 -0.2077  0.0357  0.1417
 3288W        W 7339   4.723   7.573   9.771 -0.0608 -0.2091 -0.2637
 3289W        W 7340   4.735   2.948  11.561  0.0217  0.2186  0.0749
 3290W        W 7341   4.216   2.628  13.504  0.0100  0.0035 -0.1378
 3291W        W 7342   5.063   8.697  11.832  0.1076  0.0160 -0.1077
 3292W        W 7343   5.373   4.165   0.493 -0.1966 -0.0634  0.1335
 3293W        W 7344   2.163   1.347   1.169 -0.1709 -0.1959 -0.3245
 3294W        W 7345   6.675   1.967   1.971  0.0318  0.1351  0.1293
 3295W        W 7346   4.505   4.328  11.141 -0.0437  0.3894  0.1946
 3296W        W 7347   3.372   7.673   0.856  0.1277 -0.3078  0.1342
 3297W        W 7348   6.495   4.076   3.973  0.1656  0.2408  0.3512
 3298W        W 7349   2.479   7.506   0.873 -0.2772 -0.0830  0.1681
 3299W        W 7350   2.119   5.691  11.189  0.1839 -0.0116  0.0599
 3300W        W 7351   8.461   4.159   4.569 -0.0469 -0.0211 -0.0974
 3301W        W 7352   9.430   7.412  10.645 -0.1411 -0.1123  0.1740
 3302W        W 7353   3.413   9.015   0.666 -0.0996 -0.0966 -0.1359
 3303W        W 7354   5.327   8.432   3.927  0.1728  0.3304  0.1089
 3304W        W 7355   1.010   3.437  12.420 -0.1259  0.0872 -0.0435
 3305W        W 7356   9.970   8.854  12.482  0.1532 -0.1696 -0.2840
 3306W        W 7357   0.295   1.776  13.268 -0.2240 -0.0701 -0.1593
 3307W        W 7358   7.258   0.297   9.978 -0.0279  0.0765  0.0103
 3308W        W 7359   0.700   1.444  13.451 -0.3748  0.3653  0.3166
 3309W        W 7360   3.782   9.909  10.912 -0.0975  0.0794  0.1419
 3310W        W 7361   5.240   0.400  12.997  0.0424  0.0137 -0.0984
 3311W        W 7362   5.155   3.587   1.781  0.0431  0.2693 -0.3412
 3312W        W 7363   9.414   1.162   4.266 -0.2221  0.3142 -0.0588
 3313W        W 7364   2.082  10.177  13.844 -0.0299 -0.1182  0.1729
 3314W        W 7365   1.549   1.632  13.273 -0.0013  0.1657 -0.1394
 3315W        W 7366   7.241   0.057   4.078 -0.0448  0.0286  0.0497
 3316W        W 7367   9.747   0.456   3.461 -0.0697  0.0231 -0.1161
 3317W        W 7368   3.333   8.403   4.707  0.0564 -0.0613  0.2040
 3318W        W 7369   4.839   4.394  13.507  0.1103 -0.0786 -0.1763
 3319W        W 7370   2.709   0.558  13.594 -0.1818  0.0536 -0.3510
 3320W        W 7371   7.998   4.120   1.563 -0.0365 -0.2727 -0.1700
 3321W        W 7372   0.888   7.293   3.258 -0.2235 -0.0410 -0.1004
 3322W        W 7373   6.854   6.381  10.528  0.1956  0.1298  0.1144
 3323W        W 7374   9.348   2.975   0.997 -0.1289 -0.1890  0.0268
 3324W        W 7375   7.031   0.453  13.125  0.1390  0.1586 -0.3420
 3325W        W 7376   0.624   8.444   9.510 -0.1718  0.0092  0.1558
 3326W        W 7377   2.303   8.998   9.759  0.1154 -0.0845 -0.2433
 3327W        W 7378   3.422   4.919   9.861 -0.1095 -0.1984  0.0053
 3328W        W 7379   6.471   7.509   0.195 -0.0551 -0.2786 -0.2880
 3329W        W 7380   9.388   3.056   1.446  0.2020 -0.0017  0.0777
 3330W        W 7381   9.095   3.475   9.792  0.2683  0.1757 -0.0644
 3331W        W 7382   0.446   0.645  12.328 -0.2819  0.0994 -0.2889
 3332W        W 7383   2.631   7.638   0.061 -0.0359  0.1998 -0.0680
 3333W        W 7384   7.336   8.231   4.099 -0.0787 -0.0153 -0.1356
 3334W        W 7385   4.418  10.022   0.782 -0.1665  0.2585 -0.0122
 3335W        W 7386   1.006   6.886   9.376 -0.1149 -0.1327 -0.1391
 3336W        W 7387   8.955   5.057   9.185 -0.2853  0.0614  0.0599
 3337W        W 7388   7.363   6.628  13.127  0.1046  0.1240 -0.0658
 3338W        W 7389   1.232   7.297   4.096 -0.1628  0.0260  0.0373
 3339W        W 7390   7.563   7.404  10.447  0.0660 -0.3266  0.2185
 3340W        W 7391   2.954   1.417  11.149 -0.0249 -0.0585 -0.0751
 3341W        W 7392   2.406   2.953  12.172  0.0230  0.2494  0.0888
 3342W        W 7393   2.042   9.147   2.278 -0.1538  0.2153 -0.0873
 3343W        W 7394   3.155   1.913   0.474  0.0496 -0.1091 -0.1277
 3344W        W 7395   8.354   4.685  12.889  0.0834 -0.1094 -0.0476
 3345W        W 7396   6.988   0.948  11.496 -0.0991 -0.0115 -0.2412
 3346W        W 7397   1.449   5.751   1.592 -0.1202  0.0557 -0.0258
 3347W        W 7398   5.900   7.547   1.063 -0.0673  0.1984 -0.2251
 3348W        W 7399   4.502   9.568   2.074  0.0446  0.2292  0.2980
 3349W        W 7400   2.686   5.279  11.092 -0.1452  0.3866  0.1459
 3350W        W 7401   5.675   2.779  13.712 -0.2137 -0.1887  0.1398
 3351W        W 7402   0.236   7.668   2.467 -0.1899 -0.0003 -0.0963
 3352W        W 7403   8.869   3.270   9.413  0.0877 -0.1797 -0.0619
 3353W        W 7404   9.254   6.405  12.364 -0.2382 -0.0554 -0.0818
 3354W        W 7405   8.859   7.567   0.799  0.0369  0.2033  0.0942
 3355W        W 7406   4.055   0.195   0.824 -0.0346  0.2488 -0.2856
 3356W        W 7407   8.227   7.502   2.376  0.3074  0.2536  0.2339
 3357W        W 7408   8.125   4.652   3.034 -0.2386  0.1038  0.0699
 3358W        W 7409   8.115   2.352  12.529  0.1400  0.0739 -0.1155
 3359W        W 7410   7.582   3.713  10.731  0.0841 -0.1330 -0.0767
 3360W        W 7411   6.265   3.045   9.851 -0.3861  0.2063 -0.1164
 3361W        W 7412   2.740   2.080   3.468  0.0966 -0.2000  0.0792
 3362W        W 7413   2.062   2.735  13.068 -0.3029  0.0238  0.1865
 3363W        W 7414   2.134   0.048   2.769 -0.1719  0.2028  0.0268
 3364W        W 7415   0.872   3.227   3.059 -0.0564  0.1590  0.2336
 3365W        W 7416   2.094   0.244   1.833 -0.0332 -0.1373  0.0916
 3366W        W 7417   1.909   2.109   3.951  0.0755  0.1500  0.1443
 3367W        W 7418   0.145   9.640   4.799  0.1480 -0.1110  0.0163
 3368W        W 7419   6.062   8.410   1.444 -0.1035 -0.0419  0.2013
 3369W        W 7420   3.608   5.112   2.720 -0.2806  0.0636  0.0981
 3370W        W 7421   3.437   2.441   2.041 -0.0121 -0.2114 -0.1439
 3371W        W 7422   5.997   2.432   2.561 -0.0560  0.0016  0.3367
 3372W        W 7423   6.186   1.549   1.972 -0.3038  0.0132  0.0829
 3373W        W 7424   7.564   1.365  10.074 -0.3261 -0.2830 -0.0384
 3374W        W 7425   8.264   4.238  13.845 -0.0356  0.1904 -0.0190
 3375W        W 7426   7.927   7.028   9.803  0.0329 -0.2977  0.2019
 3376W        W 7427   6.963   9.637   5.539  0.1762 -0.1119 -0.0837
 3377W        W 7428   0.424   9.363  13.491  0.3644  0.1338  0.1614
 3378W        W 7429   6.589   4.961  12.354 -0.0654  0.1480 -0.0533
 3379W        W 7430   3.670   8.037   4.637  0.2151  0.2194  0.0844
 3380W        W 7431   8.504   5.448  10.301 -0.0804  0.1472 -0.1620
 3381W        W 7432   8.755  10.087  11.328  0.1022 -0.1035 -0.3119
 3382W        W 7433   8.193   9.238  12.305  0.1055 -0.0478  0.2090
 3383W        W 7434   0.896   5.706  12.004 -0.2168  0.1100  0.1034
 3384W        W 7435   8.920   7.049   3.557  0.0419 -0.0893  0.0069
 3385W        W 7436   7.263   4.272   3.227 -0.2514 -0.0029  0.1291
 3386W        W 7437   1.966   8.599  10.647  0.2558  0.1303  0.0960
 3387W        W 7438   4.793   0.201   0.672 -0.2599 -0.0022 -0.0705
 3388W        W 7439   0.504   4.359   0.230 -0.1073 -0.3301  0.2902
 3389W        W 7440   1.950   4.365   3.237 -0.1150  0.1460  0.0978
 3390W        W 7441   2.963   4.083   2.906 -0.1438  0.0210  0.0109
 3391W        W 7442   4.378   7.729   1.909 -0.0729 -0.1189  0.0312
 3392W        W 7443   0.023  10.081  11.055  0.3479 -0.0126 -0.1074
 3393W        W 7444   6.864   5.331   4.567  0.0154 -0.1021 -0.2360
 3394W        W 7445   9.440   4.246  13.740 -0.0710 -0.0626 -0.1093
 3395W        W 7446   9.665   8.768   2.537 -0.1111 -0.2314 -0.0152
 3396W        W 7447   5.779   2.720  10.471 -0.3850 -0.0132  0.3284
 3397W        W 7448   7.040   4.831   1.674  0.1067 -0.2823 -0.0725
 3398W        W 7449   5.465   2.839  13.186 -0.0146  0.1502 -0.0124
 3399W        W 7450   8.697   6.242  10.385 -0.0228 -0.1243 -0.1737
 3400W        W 7451   9.292   4.463  12.798 -0.1242  0.3535  0.1000
 3401W        W 7452   0.655   9.013   3.076  0.0537  0.1875 -0.1134
 3402W        W 7453   9.221   5.082   1.299  0.3120  0.2967  0.1646
 3403W        W 7454   4.180   7.678   3.727 -0.1465  0.0889 -0.0869
 3404W        W 7455   8.070   0.168  13.694  0.0506  0.1173  0.1231
 3405W        W 7456   7.709   4.943   3.145  0.2910  0.1606 -0.1108
 3406W        W 7457   0.338   3.355  10.288  0.2236  0.0431  0.1056
 3407W        W 7458   2.386   7.128   1.291  0.3973  0.4198 -0.0709
 3408W        W 7459   4.746   6.154  13.791  0.3584  0.1837  0.2145
 3409W        W 7460   8.281   7.093   9.449  0.1138  0.0226  0.0808
 3410W        W 7461   8.932   4.123  11.703  0.0051  0.0901  0.2005
 3411W        W 7462   0.441   1.020  10.188  0.0652 -0.3399 -0.0677
 3412W        W 7463   4.254   0.618  11.071  0.0684  0.0287  0.3747
 3413W        W 7464   1.701   2.094  13.349 -0.1027  0.2451 -0.0417
 3414W        W 7465   6.031   1.830   0.843 -0.1023 -0.1570 -0.0283
 3415W        W 7466   3.864   3.163  11.878  0.3146 -0.2555 -0.0156
 3416W        W 7467   1.950   2.568   2.540  0.1587 -0.3079 -0.0657
 3417W        W 7468   7.792   0.989   9.773 -0.0172 -0.3443 -0.0836
 3418W        W 7469   4.698   9.329   8.775 -0.0372  0.3829  0.0110
 3419W        W 7470   4.649   3.698  11.669 -0.1230 -0.0554  0.2144
 3420W        W 7471   1.393   9.177   4.274 -0.2948  0.0788 -0.0959
 3421W        W 7472  10.030   0.158  11.440  0.0487 -0.1616 -0.0132
 3422W        W 7473   7.403   6.807  12.648 -0.0171 -0.1119  0.1156
 3423W        W 7474   3.097   4.980   1.524 -0.0536  0.2400  0.2485
 3424W        W 7475   1.428   8.071   3.598 -0.0140 -0.2534  0.2298
 3425W        W 7476   6.262   6.613   4.971 -0.2052 -0.0049  0.2073
 3426W        W 7477   0.955  10.049   9.574  0.3315 -0.0551  0.2868
 3427W        W 7478   0.220   9.158   9.483  0.0658 -0.1131 -0.2008
 3428W        W 7479   2.837   0.468   1.525 -0.1826 -0.3439 -0.1365
 3429W        W 7480   4.673   1.078  12.556  0.1167  0.2518 -0.0623
 3430W        W 7481   7.349   1.522   4.910 -0.2096 -0.2569 -0.1035
 3431W        W 7482   8.595   1.996   2.912 -0.1034  0.1794  0.2961
 3432W        W 7483   0.500   5.994   4.268 -0.2529 -0.0124  0.2380
 3433W        W 7484   5.409   6.794   1.151  0.0720 -0.1944 -0.0598
 3434W        W 7485   8.710   8.274  11.516  0.0587 -0.0883 -0.0749
 3435W        W 7486   4.358   7.585  13.010 -0.2091  0.0856  0.3514
 3436W        W 7487   4.634   9.964   0.325  0.5081  0.1425  0.3026
 3437W        W 7488   4.573   0.906   2.631 -0.1747  0.2508  0.3800
 3438W        W 7489   9.265   9.442  13.793 -0.0474  0.0464 -0.2066
 3439W        W 7490   2.655   2.724  13.683 -0.3479 -0.0550 -0.0226
 3440W        W 7491   7.334   8.167   1.424 -0.0052 -0.0129 -0.0254
 3441W        W 7492   6.612   2.607  12.357 -0.2036  0.0661 -0.2570
 3442W        W 7493   2.380   2.360   3.636  0.1354  0.0510 -0.1227
 3443W        W 7494   0.365   6.880  10.987  0.3469  0.0421 -0.0029
 3444W        W 7495   0.157   7.412   4.438  0.1271  0.1496  0.0275
 3445W        W 7496   1.707   9.553  12.902 -0.0760  0.2593  0.0429
 3446W        W 7497   9.549   7.392   4.037 -0.3872  0.0123 -0.0842
 3447W        W 7498   0.546   2.590   2.081 -0.1369  0.0926 -0.2747
 3448W        W 7499   4.402   1.943   1.070  0.2335 -0.2286 -0.0588
 3449W        W 7500   5.870   0.444   2.437 -0.0378 -0.0422  0.0806
 3450W        W 7501   3.926   8.230   9.943 -0.0614 -0.3012  0.0300
 3451W        W 7502   5.546   0.018   2.967  0.4556 -0.0085  0.0814
 3452W        W 7503   9.186  10.139   3.771  0.1615 -0.1299 -0.0130
 3453W        W 7504   0.614   9.927  10.885  0.0918 -0.0941 -0.1236
 3454W        W 7505   7.196   6.608   3.292 -0.1206 -0.3633 -0.0841
 3455W        W 7506   6.622   6.693   4.097 -0.0769 -0.2629 -0.1248
 3456W        W 7507   1.580   9.947   0.306  0.1764  0.2255  0.2041
 3457W        W 7508   9.363   5.800   0.634  0.1659  0.0605 -0.1899
 3458W        W 7509   9.185   3.746  12.761 -0.0598 -0.0239  0.2374
 3459W        W 7510   7.515   3.501   4.561  0.1174 -0.0400 -0.1515
 3460W        W 7511   0.576   1.126  12.006  0.2013 -0.0024 -0.0751
 3461W        W 7512   1.965   0.594  13.083  0.1187 -0.2756  0.3034
 3462W        W 7513   2.679   9.271  12.784 -0.1002  0.1736 -0.2600
 3463W        W 7514   8.910   5.411  13.925  0.4153 -0.5237  0.2376
 3464W        W 7515   7.589   6.259   1.668  0.1055  0.1207  0.1920
 3465W        W 7516   7.239   7.975  13.914  0.3559 -0.3777 -0.0752
 3466W        W 7517   0.780   1.967   9.703 -0.0687 -0.0616  0.2302
 3467W        W 7518   9.250   1.382  10.431 -0.0884 -0.0128 -0.3210
 3468W        W 7519  10.137   2.274   2.805 -0.0433 -0.0907  0.3336
 3469W        W 7520   1.679   7.068   2.190  0.0342  0.2280 -0.0084
 3470W        W 7521   2.254   5.662  11.722  0.2187  0.0043 -0.3072
 3471W        W 7522   4.716   4.617  12.966 -0.0506 -0.3449  0.0891
 3472W        W 7523   0.124  10.015   1.699  0.2435  0.2012  0.1713
 3473W        W 7524   4.674   3.114  10.592  0.0282 -0.1185  0.0194
 3474W        W 7525   3.567   9.793   3.657 -0.0063  0.0687  0.3909
 3475W        W 7526   0.780   1.610   3.667 -0.1816 -0.2256  0.0652
 3476W        W 7527   2.445   6.258   2.269 -0.0452 -0.1229  0.1025
 3477W        W 7528   2.074   4.793   2.947 -0.1020 -0.2825 -0.1456
 3478W        W 7529   1.599   8.083   1.960 -0.0186 -0.0412 -0.0581
 3479W        W 7530   3.450   6.725   2.237  0.1394 -0.2533  0.0545
 3480W        W 7531   1.700   9.940  11.905 -0.2683  0.2307 -0.2206
 3481W        W 7532   4.614   9.912  12.777  0.1583 -0.0459 -0.0820
 3482W        W 7533   6.122   9.030   4.426 -0.1435  0.1281 -0.3381
 3483W        W 7534   9.797   3.052   9.788 -0.2714  0.1651  0.0688
 3484W        W 7535   4.486   0.593   0.976 -0.0849  0.3178  0.0724
 3485W        W 7536   6.552   7.346  10.545 -0.3224 -0.0242  0.1339
 3486W        W 7537   9.041   9.813   4.180  0.1002 -0.4287  0.0551
 3487W        W 7538   4.603   2.101  12.808 -0.0919  0.0390  0.1702
 3488W        W 7539   5.554   0.521   9.910 -0.0721 -0.1889 -0.1575
 3489W        W 7540   7.447   8.311  11.799  0.0523  0.1860  0.2245
 3490W        W 7541   6.479   2.785   3.329 -0.1524 -0.1241 -0.2806
 3491W        W 7542   4.043   8.082   1.652 -0.0436 -0.3213  0.0799
 3492W        W 7543   1.703   2.399   0.471  0.1571 -0.0880  0.0288
 3493W        W 7544   5.308   9.539  11.276  0.0801 -0.1353 -0.3567
 3494W        W 7545   9.143   7.640   4.655  0.0570  0.0707  0.1632
 3495W        W 7546   9.718   6.683   3.695 -0.0139  0.0137 -0.0357
 3496W        W 7547   2.464   8.188   0.129 -0.2874 -0.1096 -0.2464
 3497W        W 7548   8.944   0.194  13.399  0.0769  0.4936 -0.0872
 3498W        W 7549   7.878   1.053   3.209 -0.3477  0.2249 -0.0713
 3499W        W 7550   0.722   4.805   0.022  0.0994 -0.1102  0.1533
 3500W        W 7551   6.344   1.031  13.485 -0.3312  0.1150  0.0149
 3501W        W 7552   1.649   9.473   2.738 -0.0477 -0.0081 -0.0309
 3502W        W 7553   4.888  10.030   1.278 -0.2362 -0.0732 -0.2470
 3503W        W 7554   3.240   8.359   2.907 -0.0366 -0.0662 -0.2778
 3504W        W 7555   0.407   5.956  12.811  0.1521 -0.2333  0.1514
 3505W        W 7556   7.113   8.928  10.613 -0.2075  0.1719 -0.3280
 3506W        W 7557   1.769   4.490   2.232  0.1642 -0.1497  0.2930
 3507W        W 7558   2.246   7.402   3.975 -0.1693 -0.1198  0.0809
 3508W        W 7559   1.087   9.701   4.453  0.1991 -0.2672 -0.4953
 3509W        W 7560   8.289   9.427   2.413 -0.0780 -0.0632  0.1472
 3510W        W 7561   8.773   6.652  12.273  0.0652  0.0720 -0.2476
 3511W        W 7562   4.949   3.346   0.652  0.3371 -0.0039  0.0837
 3512W        W 7563   6.537   3.229   2.125 -0.0702 -0.5084 -0.0249
 3513W        W 7564   7.820   7.395  12.262  0.0721  0.0341  0.0422
 3514W        W 7565   7.409   8.850  12.417 -0.2125  0.1378 -0.1224
 3515W        W 7566   7.185   7.605   3.469 -0.2851 -0.0882  0.0110
 3516W        W 7567   5.676   3.677   2.000 -0.1874  0.0034 -0.0122
 3517W        W 7568   7.238   1.511   0.098 -0.3151  0.2522 -0.1042
 3518W        W 7569   4.952   0.478  13.672 -0.3026  0.1349  0.3488
 3519W        W 7570   6.763   0.908  11.999 -0.3227  0.0944 -0.0263
 3520W        W 7571   9.438   5.471  11.712 -0.1553 -0.4193 -0.2150
 3521W        W 7572   2.669   2.493  12.136  0.0414 -0.1947 -0.2337
 3522W        W 7573   5.054   6.746  13.086 -0.1768  0.0936  0.0570
 3523W        W 7574   3.168   1.905  13.859 -0.0929  0.2382 -0.2410
 3524W        W 7575   3.848   8.224  11.153 -0.1985  0.0398  0.0012
 3525W        W 7576   3.306   7.239   3.096 -0.0130 -0.1803  0.2163
 3526W        W 7577   2.186   8.618   1.104  0.0498  0.0253 -0.0765
 3527W        W 7578   7.478   5.349  10.069  0.0588 -0.0634 -0.0107
 3528W        W 7579   8.334   2.885   9.760  0.1966  0.0034  0.0623
 3529W        W 7580   5.571   3.886  10.865 -0.2211 -0.2555 -0.2626
 3530W        W 7581   8.003   5.583  11.560  0.0337 -0.3739  0.2094
 3531W        W 7582   3.915   1.444  13.506  0.0428  0.0235 -0.2507
 3532W        W 7583   0.372   8.775   9.805 -0.0435  0.2359  0.1832
 3533W        W 7584   2.535   7.380  11.448  0.2007  0.1001 -0.1261
 3534W        W 7585   6.918   1.391   9.465  0.0901 -0.3172 -0.3485
 3535W        W 7586   5.812   4.744   3.523 -0.1041  0.0582  0.0140
 3536W        W 7587   6.068   7.229   0.661 -0.2673  0.0632  0.1141
 3537W        W 7588   7.118   5.293   1.503  0.0374 -0.1741  0.0866
 3538W        W 7589   2.254   6.961   1.719 -0.0566 -0.1790 -0.3143
 3539W        W 7590   0.006   9.446   2.361 -0.0994 -0.4251 -0.1185
 3540W        W 7591   7.758   4.543  11.781  0.1147  0.0083 -0.0229
 3541W        W 7592   0.987   1.575  11.177 -0.0313  0.3093 -0.0932
 3542W        W 7593   0.305   3.202  11.526 -0.1929  0.0557 -0.1001
 3543W        W 7594   1.977   7.272  11.316  0.0481  0.0764 -0.1556
 3544W        W 7595   0.618   9.886  13.558  0.0638  0.1886 -0.0236
 3545W        W 7596   2.363   1.443  12.473 -0.0950  0.1386  0.1616
 3546W        W 7597   5.996   8.061   4.437  0.0002  0.0059 -0.0570
 3547W        W 7598   0.115   2.900  10.023  0.1764  0.2110 -0.4795
 3548W        W 7599   7.654   9.930   4.417 -0.0147  0.3245 -0.2349
 3549W        W 7600   7.041   2.253   1.668  0.1550 -0.1056 -0.2763
 3550W        W 7601   4.001   7.058  12.496  0.1364 -0.0368  0.0233
 3551W        W 7602   5.435   2.797  12.685 -0.1774  0.0564 -0.1539
 3552W        W 7603   7.800   2.695   0.284 -0.0292  0.0774  0.0705
 3553W        W 7604   5.097   0.156   2.652  0.3335 -0.1777 -0.0141
 3554W        W 7605   6.165   2.150  12.992 -0.1446 -0.0237  0.1845
 3555W        W 7606   2.850   8.658   4.041  0.1118  0.1286 -0.3104
 3556W        W 7607   8.477   8.555   3.102  0.0325 -0.0895  0.1306
 3557W        W 7608   9.846   4.711   4.555  0.0988  0.2003  0.1655
 3558W        W 7609   0.910   9.010  10.071 -0.0578 -0.2554 -0.0741
 3559W        W 7610   9.657   5.133  12.023 -0.0258 -0.0273 -0.1312
 3560W        W 7611   0.003   6.042   9.955  0.0426 -0.0474 -0.1286
 3561W        W 7612   8.662   8.849   9.749 -0.0129 -0.1600 -0.1432
 3562W        W 7613   6.899   7.939   4.630 -0.0655 -0.1973 -0.1004
 3563W        W 7614   5.778   3.341  11.718  0.1702  0.0410  0.4408
 3564W        W 7615   8.727   2.015   5.050 -0.1162  0.3068  0.3782
 3565W        W 7616   3.823   7.137  10.338 -0.0386  0.5601 -0.0276
 3566W        W 7617   9.851   3.369   4.063  0.2060  0.1310  0.2071
 3567W        W 7618   9.822   0.801   2.916 -0.1326  0.1647  0.0283
 3568W        W 7619   3.239   1.368  12.425  0.0080  0.1031  0.0977
 3569W        W 7620   3.813   2.377  10.608  0.0126  0.0309  0.0786
 3570W        W 7621   3.521   1.517  13.127  0.2439 -0.0168 -0.2614
 3571W        W 7622   6.934   9.351   3.436  0.0844  0.2999  0.1616
 3572W        W 7623   0.804   3.306  10.505  0.0459  0.2605 -0.0406
 3573W        W 7624   6.946   6.791  10.182 -0.1391  0.1079  0.2236
 3574W        W 7625   7.994   6.215  12.454  0.1513 -0.0264  0.0031
 3575W        W 7626   7.348   8.352   2.107  0.1847 -0.1840  0.1648
 3576W        W 7627   6.065   2.479   1.489 -0.1431  0.2214 -0.2194
 3577W        W 7628   4.324   4.232   9.863 -0.0167  0.0457  0.1291
 3578W        W 7629   4.312   4.002  12.558 -0.2587  0.0822  0.1282
 3579W        W 7630   1.938   7.340   0.230  0.2843  0.3601  0.0008
 3580W        W 7631   6.628   4.586   3.322  0.1289 -0.2213  0.2457
 3581W        W 7632   3.251   3.582  11.155 -0.1475 -0.3222  0.1048
 3582W        W 7633   7.033   0.741  13.654 -0.0517  0.1899 -0.1616
 3583W        W 7634   3.452   7.966  10.776 -0.1279 -0.0468 -0.2515
 3584W        W 7635   9.423   7.306   1.051  0.2284 -0.3448 -0.0744
 3585W        W 7636   2.837   1.894   1.897 -0.2016 -0.1077  0.0854
 3586W        W 7637   5.597   1.640   1.085  0.1899 -0.1501 -0.0451
 3587W        W 7638   6.300   6.463   9.620 -0.1930  0.2255 -0.0615
 3588W        W 7639   8.503   8.271  12.028  0.2146 -0.0600  0.1931
 3589W        W 7640   4.100   3.129  11.427 -0.0819 -0.2851 -0.3460
 3590W        W 7641   8.705   0.774  10.719 -0.0679 -0.0759  0.1119
 3591W        W 7642   3.334   4.284  13.128 -0.2712  0.0155  0.0935
 3592W        W 7643   9.854   3.617   2.288 -0.1659 -0.2029  0.0807
 3593W        W 7644   6.340   1.597   0.403 -0.2419 -0.0631  0.2448
 3594W        W 7645   9.707   7.202   1.458  0.1572 -0.2712 -0.1756
 3595W        W 7646   8.213   2.611  13.410 -0.1468  0.1226 -0.1135
 3596W        W 7647   1.660   0.027   1.102 -0.0507  0.0451 -0.0650
 3597W        W 7648   8.744   7.487   3.254  0.1629  0.0154  0.1314
 3598W        W 7649   2.016   1.554   0.228  0.2176  0.0135 -0.0347
 3599W        W 7650   5.498   4.442   2.218  0.0542 -0.3956  0.1486
 3600W        W 7651   0.891   7.576  12.438 -0.4370  0.0571  0.0672
 3601W        W 7652   1.591   6.708   9.961  0.1555 -0.0387  0.1496
 3602W        W 7653   5.747   5.626  10.024  0.1053  0.0942 -0.1197
 3603W        W 7654   2.325   6.538  12.341 -0.2908  0.0946 -0.0304
 3604W        W 7655   1.119   1.236   1.037 -0.1839 -0.2270  0.4429
 3605W        W 7656   4.052   9.214   9.908 -0.2149  0.1257 -0.1650
 3606W        W 7657   2.175   7.331  12.849 -0.1907  0.2315 -0.0119
 3607W        W 7658   8.957   6.056   1.231 -0.2065  0.0837  0.1009
 3608W        W 7659   0.945   4.786   1.679 -0.0876 -0.0702  0.1708
 3609W        W 7660   5.622   6.793   9.102 -0.1766  0.0785 -0.2128
 3610W        W 7661   4.231   2.526   1.628  0.1113 -0.1515  0.1242
 3611W        W 7662   1.359   3.272   0.663  0.2490  0.2823  0.0239
 3612W        W 7663   1.043   0.155   1.921  0.0219 -0.0469 -0.0914
 3613W        W 7664   1.256   9.200  13.277 -0.0493 -0.0613 -0.2496
 3614W        W 7665   1.692   4.798  12.576 -0.0054  0.1662  0.0487
 3615W        W 7666  10.125   0.376  13.423  0.2379 -0.2037 -0.0131
 3616W        W 7667   7.722   6.560   9.944  0.1482 -0.1164 -0.0603
 3617W        W 7668   7.990   4.296   2.391  0.0792  0.1338  0.0504
 3618W        W 7669   4.847   0.284  12.129  0.0609 -0.0649 -0.1148
 3619W        W 7670   3.838   7.183   0.383 -0.2483  0.2134  0.0577
 3620W        W 7671   5.451   6.573  11.046 -0.3015  0.1685  0.1245
 3621W        W 7672   0.412   8.552   3.006 -0.3284 -0.0305  0.0919
 3622W        W 7673   2.727   8.364  12.123  0.0027  0.0540  0.1919
 3623W        W 7674   1.111   2.871  11.000 -0.0843 -0.2636 -0.2932
 3624W        W 7675   4.389   6.410   0.177 -0.1412 -0.0911  0.1599
 3625W        W 7676   2.349   2.692  11.758 -0.0303 -0.0244 -0.1907
 3626W        W 7677   7.410   9.875   1.955 -0.0250 -0.4945 -0.0806
 3627W        W 7678   6.006   8.599  11.609 -0.3043  0.2088 -0.1534
 3628W        W 7679   9.444   5.601  13.315  0.0204  0.0263  0.2066
 3629W        W 7680   4.653   4.658  10.810 -0.0159 -0.0347  0.2260
 3630W        W 7681   9.368   3.809   0.557  0.0335 -0.3623  0.3687
 3631W        W 7682   5.285   1.847  10.451 -0.1261  0.2220 -0.0914
 3632W        W 7683   7.395   5.591   2.494  0.2277  0.2449  0.0766
 3633W        W 7684   9.205   2.031   5.381  0.0895 -0.0829 -0.1257
 3634W        W 7685   6.811   5.479   0.857 -0.0507  0.3305 -0.3338
 3635W        W 7686   4.907   5.805  11.202 -0.2607 -0.0720 -0.1913
 3636W        W 7687   0.473   8.018  13.676  0.0475 -0.5432 -0.0770
 3637W        W 7688   3.480   6.087   3.779 -0.3086 -0.1591  0.0960
 3638W        W 7689   0.848   8.427  12.476  0.0120  0.2024  0.1401
 3639W        W 7690   6.097   3.895   3.225  0.1623  0.1329 -0.1658
 3640W        W 7691   5.988   3.021   5.230 -0.1447 -0.1068  0.0701
 3641W        W 7692   1.366   2.509  12.336 -0.2119 -0.0966 -0.0534
 3642W        W 7693   0.868   5.508   9.797 -0.0268  0.0813  0.3379
 3643W        W 7694   0.727   2.327  10.074  0.0090 -0.2883 -0.3078
 3644W        W 7695   1.356   5.051   3.123 -0.1544 -0.3003  0.2401
 3645W        W 7696   2.622   7.455  12.521  0.0873 -0.0151 -0.0351
 3646W        W 7697   9.175   0.406   1.049 -0.0720 -0.0055  0.0430
 3647W        W 7698   0.794   6.475   3.074 -0.1261 -0.0558  0.0108
 3648W        W 7699   7.154   7.458   8.889 -0.1819 -0.2142  0.0377
 3649W        W 7700   9.184   3.113   1.937  0.1783 -0.2455 -0.2662
 3650W        W 7701   4.222   2.657   2.692  0.1237  0.0686  0.1400
 3651W        W 7702   9.049   4.600  13.540 -0.2788 -0.0152 -0.2327
 3652W        W 7703   2.650   0.621   4.275  0.1300  0.0295  0.4283
 3653W        W 7704   9.108   7.032  13.327 -0.0447  0.1490 -0.0553
 3654W        W 7705   3.004  10.016  13.384  0.3166 -0.1377 -0.0256
 3655W        W 7706   2.811   6.762  10.477  0.1539 -0.0688 -0.1983
 3656W        W 7707   1.119   4.170  10.633  0.1897  0.0656 -0.0827
 3657W        W 7708   9.861   7.209   0.247 -0.1657  0.2006  0.0927
 3658W        W 7709   5.319   8.459  13.257  0.1593  0.0133 -0.3648
 3659W        W 7710   5.710   2.271   3.527 -0.1886  0.0399  0.1335
 3660W        W 7711   5.392   5.726   1.272  0.0600 -0.0105  0.3679
 3661W        W 7712   7.176   7.306   5.152  0.2209 -0.4489  0.2693
 3662W        W 7713   6.898   9.132  12.957 -0.2523 -0.0413  0.2200
 3663W        W 7714   9.886   7.828   1.633 -0.1842  0.0617 -0.1690
 3664W        W 7715  10.072   4.716  10.664 -0.0333 -0.1046 -0.2412
 3665W        W 7716   6.753   6.706  11.382 -0.1826 -0.1818 -0.0489
 3666W        W 7717   3.167   1.120  13.518 -0.0556 -0.0145 -0.2591
 3667W        W 7718   3.494   7.396  11.482  0.1656  0.1518 -0.1992
 3668W        W 7719   0.649   9.230  11.956 -0.0789 -0.1295 -0.1725
 3669W        W 7720   5.457   6.445   1.696 -0.0817 -0.0460  0.1518
 3670W        W 7721   9.146   8.756   3.901 -0.0034 -0.1420 -0.0007
 3671W        W 7722   2.242   1.400  11.979 -0.0250  0.0801  0.0126
 3672W        W 7723   8.207   0.171   3.763  0.0862 -0.0306  0.0026
 3673W        W 7724  10.003   6.922   1.826 -0.1664  0.1386  0.1368
 3674W        W 7725   0.976   9.685   9.213  0.3117 -0.0541 -0.0540
 3675W        W 7726   1.875   8.648   0.019 -0.0335  0.1927  0.1794
 3676W        W 7727   8.788   9.695  11.609 -0.0697 -0.0707 -0.0393
 3677W        W 7728   2.695   0.137   3.622 -0.1617  0.4666 -0.3593
 3678W        W 7729   1.699   9.678  10.599  0.1794  0.0622  0.3770
 3679W        W 7730   4.507   4.053   1.398 -0.0079  0.0573  0.1491
 3680W        W 7731   5.234   7.548   9.341  0.4889  0.5206  0.0018
 3681W        W 7732  10.066   9.066  10.449  0.1195 -0.0417 -0.0115
 3682W        W 7733   1.004   3.320   1.293  0.4520  0.0447 -0.2382
 3683W        W 7734   8.543   5.126   4.889 -0.1139  0.4778 -0.3493
 3684W        W 7735   5.091   4.662  10.317 -0.1792  0.0398 -0.1049
 3685W        W 7736   7.753   5.643  13.775 -0.1613 -0.0460  0.1153
 3686W        W 7737   1.546   6.244  12.442 -0.3158  0.1381  0.2354
 3687W        W 7738   1.424   4.451   9.725 -0.0129 -0.0618 -0.1302
 3688W        W 7739   6.994   3.847   3.467 -0.1376 -0.0063  0.0889
 3689W        W 7740   5.552   1.581  11.752 -0.5093  0.2283 -0.1713
 3690W        W 7741   5.430   8.126  12.875  0.3252 -0.0932 -0.0329
 3691W        W 7742   9.655   4.518  13.270  0.3038 -0.0943  0.1308
 3692W        W 7743   4.806   1.982   3.862 -0.0485 -0.0163  0.0065
 3693W        W 7744   9.980   1.883   9.369  0.0186  0.0272 -0.1731
 3694W        W 7745   4.066   4.254  13.020 -0.0956 -0.1908  0.2514
 3695W        W 7746   5.976   7.529   4.646  0.0709  0.2213  0.1237
 3696W        W 7747   0.924   8.514  11.602 -0.4694  0.0344 -0.0560
 3697W        W 7748   1.514   1.278  12.953 -0.1786 -0.2620 -0.0958
 3698W        W 7749   5.010   1.400  13.725  0.4007  0.2031 -0.1494
 3699W        W 7750   8.356   2.550   4.285  0.0377 -0.0208  0.2117
 3700W        W 7751   8.575   2.450   0.546 -0.2816 -0.0738 -0.0981
 3701W        W 7752   0.989  10.181   3.137  0.0119  0.0137 -0.1071
 3702W        W 7753   9.658   7.939   9.918 -0.2712  0.2395  0.1859
 3703W        W 7754   5.774   9.037   2.174  0.1484  0.1831  0.2267
 3704W        W 7755   4.085   3.688  10.274  0.0532 -0.2105  0.1066
 3705W        W 7756   1.906   1.431   2.609  0.1074 -0.1328 -0.0828
 3706W        W 7757   5.467   6.118   3.452  0.2107 -0.1863  0.1573
 3707W        W 7758   1.804   9.774  13.811 -0.3313 -0.1385  0.2442
 3708W        W 7759   2.382   5.201   0.543  0.1446  0.2210 -0.2545
 3709W        W 7760   0.753   7.624   1.140 -0.1139 -0.0943 -0.3395
 3710W        W 7761   7.904   3.397   1.423 -0.4342  0.1682  0.2517
 3711W        W 7762   0.069   9.860  13.685  0.0519 -0.0177  0.0670
 3712W        W 7763   1.721   3.172  11.015  0.1624 -0.2565  0.1006
 3713W        W 7764   6.167   7.497   3.765 -0.0710 -0.2379  0.2040
 3714W        W 7765   4.307   1.632  12.780  0.0212 -0.0029 -0.0807
 3715W        W 7766   9.935   0.392   9.040  0.1515 -0.0767 -0.2517
 3716W        W 7767   5.834   9.286   4.868  0.1164 -0.2061 -0.1072
 3717W        W 7768   5.846   6.180   4.877  0.0286 -0.1905  0.1647
 3718W        W 7769   1.826   9.157  13.196  0.1469  0.0967  0.1385
 3719W        W 7770   8.806   9.325   0.235 -0.3748  0.2508  0.1305
 3720W        W 7771   1.141   4.595  12.705 -0.0140 -0.1611  0.0471
 3721W        W 7772   6.806   2.067   2.469  0.3524 -0.1773  0.3368
 3722W        W 7773   5.505   5.422   1.628  0.0739 -0.0969  0.2300
 3723W        W 7774   3.563   4.108   2.474 -0.1132 -0.1974 -0.1918
 3724W        W 7775   7.865   3.301  11.619 -0.0217 -0.0535 -0.0404
 3725W        W 7776   8.269   3.476  13.595  0.0604 -0.2122 -0.0562
 3726W        W 7777   3.834   9.120   0.920 -0.0668  0.0050 -0.0484
 3727W        W 7778   5.926   2.114  12.358  0.0285  0.0085  0.1167
 3728W        W 7779   2.206   8.713  11.171 -0.1806  0.2382 -0.0882
 3729W        W 7780   6.840   4.595  10.850  0.0223 -0.0688  0.1169
 3730W        W 7781   9.294   8.868   2.897 -0.0759  0.1480 -0.1072
 3731W        W 7782   2.363   9.042   4.796 -0.2198 -0.0840 -0.2017
 3732W        W 7783   8.155   8.606  11.537 -0.2579  0.0091  0.0072
 3733W        W 7784   2.082   0.902   0.823  0.1581 -0.0896  0.0577
 3734W        W 7785   0.594   9.753   1.529 -0.2132  0.1514 -0.1085
 3735W        W 7786   3.253   3.078  10.389 -0.4937 -0.1784  0.2335
 3736W        W 7787   0.858   6.335   3.999 -0.1023  0.1081  0.0890
 3737W        W 7788   3.765   5.499   1.645 -0.0787 -0.0896 -0.1535
 3738W        W 7789   5.302   6.227  13.719 -0.3626  0.3031 -0.0534
 3739W        W 7790   1.107  10.145  10.913 -0.1754  0.6079  0.4204
 3740W        W 7791   2.376   4.491  13.685 -0.3198  0.2440  0.0319
 3741W        W 7792   6.228   1.740  13.255  0.1061  0.1663 -0.3613
 3742W        W 7793   4.082   0.520   3.771 -0.2556  0.1367 -0.2096
 3743W        W 7794   1.379   7.242  11.681  0.4038 -0.2678 -0.0428
 3744W        W 7795   8.580   1.503   2.955 -0.1857 -0.1157  0.0300
 3745W        W 7796   8.677   2.811  13.417  0.0919 -0.1296  0.3860
 3746W        W 7797   5.726   7.481  12.088  0.0848 -0.1545 -0.0989
 3747W        W 7798   2.097   7.428  11.827 -0.1037 -0.0978 -0.0429
 3748W        W 7799   4.345   7.140  10.384  0.0211  0.3056  0.0772
 3749W        W 7800   3.707   1.908  13.587  0.3976 -0.2842 -0.3461
 3750W        W 7801   0.297   0.331  11.389  0.2308 -0.1764  0.1517
 3751W        W 7802   3.305   8.779   3.945 -0.1277  0.2529  0.4774
 3752W        W 7803   0.380   9.127   2.205  0.0561  0.0197 -0.2161
 3753W        W 7804   4.605   4.834   1.840  0.2742  0.1059  0.1057
 3754W        W 7805   9.627   9.000  10.792  0.0228  0.2707  0.2433
 3755W        W 7806   8.267   0.263   9.926  0.0985  0.1550  0.0527
 3756W        W 7807   0.436   9.459  12.370  0.0941 -0.2043 -0.5107
 3757W        W 7808   7.070   4.807   0.076 -0.0719  0.0556 -0.3337
 3758W        W 7809   5.187   9.852  10.926 -0.0487  0.1695  0.1291
 3759W        W 7810   7.331   1.800  10.363 -0.2353 -0.1689 -0.1604
 3760W        W 7811   3.040   0.904   3.953 -0.1219 -0.1281 -0.0302
 3761W        W 7812   8.480   2.753   9.116  0.0900  0.2584 -0.0958
 3762W        W 7813   0.560   4.312   1.616 -0.0990 -0.0242 -0.3115
 3763W        W 7814   1.102   6.090   1.419 -0.0208 -0.2075 -0.1711
 3764W        W 7815   9.352   3.544   1.550  0.4527 -0.0953 -0.2986
 3765W        W 7816   4.041   1.247   1.964 -0.0564 -0.1984 -0.3027
 3766W        W 7817   6.440   6.148   5.557  0.2484 -0.0420 -0.1104
 3767W        W 7818   7.194   6.017   9.616 -0.0760 -0.0033  0.2712
 3768W        W 7819   2.218   4.004   0.035  0.2896  0.1054 -0.2579
 3769W        W 7820   3.303   0.226   1.441 -0.1742 -0.2022 -0.0644
 3770W        W 7821   6.105   9.225   0.222 -0.1585 -0.1992 -0.1705
 3771W        W 7822   6.790   1.399  10.542 -0.1171 -0.0942  0.0058
 3772W        W 7823   3.652   0.466   1.719  0.2472 -0.1968 -0.0261
 3773W        W 7824   3.955   7.961  12.435  0.2332 -0.0475 -0.1486
 3774W        W 7825   3.429   1.777  10.573 -0.0005  0.0784  0.0223
 3775W        W 7826   3.237   8.257  10.416  0.0196 -0.1645 -0.0187
 3776W        W 7827   5.401   6.159  12.477 -0.1646  0.0943  0.0333
 3777W        W 7828   2.918   2.128   0.880 -0.0537 -0.0209  0.2554
 3778W        W 7829   9.286   6.263  12.846 -0.2234  0.0916  0.1862
 3779W        W 7830  10.073   4.411   2.521  0.0532  0.2627  0.3234
 3780W        W 7831   8.616   1.074   4.445  0.0089  0.1149 -0.0924
 3781W        W 7832   6.896   4.782  11.853 -0.1764  0.0189 -0.3110
 3782W        W 7833   7.571   3.241   2.987 -0.0073  0.1535  0.1217
 3783W        W 7834   5.276   4.514  11.671  0.2496  0.0804 -0.0260
 3784W        W 7835   5.380   4.413   2.693 -0.1599 -0.0737  0.0911
 3785W        W 7836   8.677   8.138  10.841  0.1049  0.2261 -0.3352
 3786W        W 7837   9.715   7.519  13.796  0.1381 -0.0393 -0.0411
 3787W        W 7838   5.504   4.581   1.741 -0.3425  0.1036 -0.1237
 3788W        W 7839   7.995   2.927  11.345  0.1486 -0.1627 -0.2875
 3789W        W 7840   9.299   1.470   9.390 -0.0372  0.5165 -0.4503
 3790W        W 7841   9.197   8.099   5.011 -0.3193 -0.0165  0.1420
 3791W        W 7842   1.870   4.150   0.475 -0.0798 -0.0290  0.1427
 3792W        W 7843   2.597   7.921   4.562  0.0829 -0.0090  0.2672
 3793W        W 7844   9.492   9.663  12.921 -0.0446  0.2326  0.2786
 3794W        W 7845   1.659   8.938   1.917  0.0467 -0.0534 -0.0422
 3795W        W 7846   8.300   1.631   9.377 -0.1892  0.0480  0.1110
 3796W        W 7847   9.366   5.980   1.612  0.0464 -0.0703 -0.2555
 3797W        W 7848   7.770   5.820   1.559  0.1089  0.1072  0.1602
 3798W        W 7849   1.283   2.050  10.175  0.0671 -0.1596 -0.1865
 3799W        W 7850   4.399   4.750   3.331  0.0059  0.0354  0.1371
 3800W        W 7851   8.815   9.989   2.628  0.0722  0.0405 -0.0190
 3801W        W 7852   7.520   3.920   3.519 -0.0941 -0.1621 -0.1988
 3802W        W 7853   6.930   0.927   9.416 -0.0049 -0.0071 -0.1352
 3803W        W 7854   0.742   0.255   1.014  0.0986  0.1559 -0.1766
 3804W        W 7855   6.584   4.145   2.403 -0.2642 -0.3483 -0.1662
 3805W        W 7856   3.679   0.680  11.277  0.1535 -0.1443 -0.1539
 3806W        W 7857   4.568   2.230   1.997  0.0567 -0.0208  0.1707
 3807W        W 7858   4.657   7.300   2.007 -0.1318  0.1771 -0.5063
 3808W        W 7859   5.401   8.774   1.300  0.1393 -0.0677 -0.2514
 3809W        W 7860   5.470   0.251  11.769 -0.1189  0.0636  0.1566
 3810W        W 7861   5.842   2.478  13.326 -0.0197  0.0206 -0.1207
 3811W        W 7862   9.980   7.195  10.645 -0.2262  0.1575  0.1444
 3812W        W 7863   4.757   3.451  13.012 -0.0850 -0.2526  0.1021
 3813W        W 7864   5.384   7.841   1.402 -0.2996 -0.0830 -0.0258
 3814W        W 7865   6.197   7.822   1.961  0.0525 -0.1044  0.2319
 3815W        W 7866   6.484   3.121   0.856 -0.3434 -0.1456 -0.0265
 3816W        W 7867   2.955   2.112  10.794  0.1226  0.0256  0.1694
 3817W        W 7868   4.392   2.725   3.269  0.0771  0.0494 -0.1431
 3818W        W 7869   0.658   7.258  12.820 -0.2252  0.4967 -0.0989
 3819W        W 7870   2.102   2.176  13.006 -0.1638  0.0940 -0.1464
 3820W        W 7871   2.358   4.720  12.441 -0.1316 -0.5118 -0.0818
 3821W        W 7872   4.317   5.213  11.133  0.3218  0.0115  0.1032
 3822W        W 7873   4.485   8.445   3.126  0.0975 -0.2222  0.2234
 3823W        W 7874   6.237   4.137   0.889 -0.3507 -0.2008 -0.2519
 3824W        W 7875   3.047   2.977   0.834  0.1617  0.1631 -0.2617
 3825W        W 7876   7.421   1.589  11.500  0.0195 -0.1054  0.1789
 3826W        W 7877   2.593   2.012  12.950 -0.0635  0.1213 -0.3070
 3827W        W 7878   0.303   1.626   0.901 -0.0559 -0.1227  0.1711
 3828W        W 7879   0.876   4.081   9.640  0.4557 -0.2580 -0.0521
 3829W        W 7880   5.694   0.589  10.913 -0.0169  0.0507  0.0212
 3830W        W 7881   3.518   9.572  10.690 -0.1580  0.2310 -0.1466
 3831W        W 7882   0.958   3.060   2.259  0.1067 -0.1238 -0.1801
 3832W        W 7883   3.424   1.626  10.096  0.1568 -0.2546  0.3967
 3833W        W 7884   0.307   9.480   0.031 -0.1240 -0.1052 -0.2859
 3834W        W 7885   8.525   5.489  13.581  0.1150  0.0671  0.0798
 3835W        W 7886   1.570   0.781   2.211  0.3143  0.1644 -0.0368
 3836W        W 7887   0.360   6.690   3.236 -0.0665  0.2228  0.0013
 3837W        W 7888   9.609   7.983  12.458  0.1364 -0.1980  0.0300
 3838W        W 7889   4.881   7.752   2.163  0.1337 -0.1223  0.2734
 3839W        W 7890   8.010   0.367   1.478  0.3213  0.0354 -0.1339
 3840W        W 7891   3.355   7.765  13.673 -0.0422  0.2179 -0.0396
 3841W        W 7892   6.679   7.575   3.182 -0.1976 -0.0631 -0.0563
 3842W        W 7893   4.406   1.514   0.402 -0.0272  0.0905 -0.0856
 3843W        W 7894   5.248   8.603   4.847 -0.0003  0.1217 -0.0527
 3844W        W 7895   9.450   3.595  12.322 -0.1041  0.0105  0.3163
 3845W        W 7896   2.159   7.757  11.317  0.1899 -0.1806 -0.5796
 3846W        W 7897   8.592   9.538  13.162 -0.0868 -0.0620  0.0242
 3847W        W 7898   0.692   0.271   3.812 -0.2963  0.2514  0.0593
 3848W        W 7899   8.951  10.198   4.690  0.2915 -0.0916 -0.1432
 3849W        W 7900   0.270   7.502   9.174 -0.1281  0.2443  0.4135
 3850W        W 7901   3.219   3.579  12.104  0.3474 -0.2239  0.3015
 3851W        W 7902   4.003   9.345   1.414 -0.3376  0.1361  0.4805
 3852W        W 7903   6.062   4.332  10.085  0.1000 -0.1947  0.0751
 3853W        W 7904   4.891   9.553  12.357 -0.0439 -0.0877 -0.0018
 3854W        W 7905   3.077   9.619  12.125 -0.3525 -0.1045  0.1156
 3855W        W 7906   5.537   3.813   1.456  0.2517 -0.1892 -0.1908
 3856W        W 7907   2.632   8.972  13.347 -0.1117 -0.0023 -0.2482
 3857W        W 7908   7.596   4.227   9.834 -0.0585 -0.1833  0.3223
 3858W        W 7909   5.666   7.778   0.076 -0.0711  0.1320 -0.0395
 3859W        W 7910   1.364   5.432  10.062 -0.0697 -0.2862  0.0627
 3860W        W 7911   4.788   2.152  11.215  0.3275 -0.0911 -0.3589
 3861W        W 7912   2.885   4.543  13.847 -0.1163 -0.1219  0.0246
 3862W        W 7913   1.169   5.984  10.479 -0.0358  0.2219  0.0023
 3863W        W 7914   6.854   7.982   4.088  0.0180  0.0250  0.0191
 3864W        W 7915   8.870   3.867   9.424  0.0773  0.3156 -0.0558
 3865W        W 7916   0.942   8.494   0.726  0.1373  0.0761  0.2630
 3866W        W 7917   4.392   1.153  11.159 -0.0755 -0.3156 -0.1772
 3867W        W 7918   5.556   0.984  10.613 -0.0151  0.0324 -0.0206
 3868W        W 7919   6.811   7.797   9.301 -0.1225 -0.2797  0.1420
 3869W        W 7920   7.454   5.219   2.829 -0.3014  0.1075 -0.0885
 3870W        W 7921   6.722   3.352   2.777  0.0660 -0.0797  0.0901
 3871W        W 7922   7.641   0.913   2.102 -0.0729  0.0121 -0.2779
 3872W        W 7923   5.957   2.306   4.527 -0.3744 -0.1503 -0.0208
 3873W        W 7924   0.683   4.460   2.984 -0.2664 -0.2910  0.1771
 3874W        W 7925   5.326   9.166   5.026 -0.2983 -0.2210 -0.0644
 3875W        W 7926   1.843   4.936   2.515 -0.0152  0.2898  0.1658
 3876W        W 7927   6.604   8.410  12.196  0.2091  0.1325  0.1016
 3877W        W 7928   2.038   1.746  13.200  0.1571 -0.0241  0.1544
 3878W        W 7929   5.651   3.383  13.575  0.0997 -0.1497 -0.0178
 3879W        W 7930   3.628   1.175  12.710  0.1169 -0.4302  0.0692
 3880W        W 7931   6.881   8.671   9.507 -0.1426  0.0614 -0.2461
 3881W        W 7932   5.813   4.146   1.948  0.1062 -0.2873 -0.1162
 3882W        W 7933   9.824   2.100  10.261 -0.2488 -0.1256  0.3430
 3883W        W 7934   2.728   5.670  13.703  0.0754  0.2605  0.4464
 3884W        W 7935   6.783   8.113  11.301 -0.1653 -0.2422  0.3819
 3885W        W 7936   8.997   5.491   1.900 -0.3316 -0.2110  0.2873
 3886W        W 7937   9.269   0.992  12.488  0.1086  0.1185 -0.4338
 3887W        W 7938   2.558   3.257   1.976  0.2215 -0.1599 -0.3067
 3888W        W 7939   0.512   1.112   1.288  0.1574 -0.1881 -0.1936
 3889W        W 7940   8.625   1.484   1.142 -0.0280  0.1439  0.0627
 3890W        W 7941   7.513   5.359  12.287 -0.0523  0.0946  0.3639
 3891W        W 7942   1.511   1.658   0.171  0.2941 -0.0979 -0.2280
 3892W        W 7943   5.344   9.514   4.638  0.1591  0.0206  0.1269
 3893W        W 7944   9.602   7.453   2.451  0.0504 -0.0941 -0.2657
 3894W        W 7945   8.052   7.298  10.866  0.1707 -0.1386  0.0579
 3895W        W 7946   0.187   9.464  11.909  0.1224 -0.1719  0.0663
 3896W        W 7947   2.151   8.515   9.782  0.0080  0.3778 -0.0713
 3897W        W 7948   8.088   2.143   3.365 -0.0318  0.3066 -0.0625
 3898W        W 7949   2.462   7.376   2.654  0.1814 -0.3414 -0.0839
 3899W        W 7950   3.461   4.728  11.167  0.1858  0.3759 -0.1808
 3900W        W 7951   5.390   6.884   4.770  0.2463  0.3123  0.1902
 3901W        W 7952   5.498   7.252  13.220 -0.0461 -0.1954  0.0234
 3902W        W 7953  10.015   6.374   3.960 -0.1075 -0.1146  0.1675
 3903W        W 7954   1.997   1.483   1.670 -0.1503  0.0669 -0.0440
 3904W        W 7955   8.816   3.055   3.950 -0.1666  0.2117  0.1296
 3905W        W 7956   9.136   9.438  11.369 -0.0523 -0.0441  0.0093
 3906W        W 7957   9.072   3.098  13.556  0.2145  0.0124 -0.3495
 3907W        W 7958   9.095   2.552  12.268 -0.1597 -0.3209  0.3432
 3908W        W 7959   2.980   0.301   9.156  0.2401 -0.0034 -0.1050
 3909W        W 7960   4.764   9.842   1.730  0.5271 -0.0984 -0.3216
 3910W        W 7961   3.208   1.064   0.820  0.2617  0.0027 -0.0569
 3911W        W 7962   0.471   6.392  11.128 -0.3585 -0.0535  0.0261
 3912W        W 7963   4.320   7.538  10.704  0.0868 -0.0145  0.2088
 3913W        W 7964   1.853   8.340  11.110 -0.0087 -0.2218 -0.0227
 3914W        W 7965   8.066   3.999  10.610 -0.1372  0.0789  0.0399
 3915W        W 7966   0.423   7.251   2.005  0.1409  0.2665  0.2561
 3916W        W 7967   8.720   1.697  12.813  0.4393  0.1575 -0.3445
 3917W        W 7968   4.634   3.571  13.912  0.1588 -0.0088 -0.3540
 3918W        W 7969   4.726   6.916  13.879 -0.0473 -0.0589 -0.1312
 3919W        W 7970   8.704   0.022  12.560  0.0308  0.1450 -0.0485
 3920W        W 7971   7.468   3.873   9.414  0.2743 -0.0509  0.0896
 3921W        W 7972   3.005   5.946  11.360 -0.0158 -0.1697  0.0286
 3922W        W 7973   6.999   6.885   2.074 -0.0202  0.0274 -0.0957
 3923W        W 7974   6.520   9.569  13.807 -0.0209 -0.1228  0.0216
 3924W        W 7975   6.247   5.595   9.983  0.0325 -0.0790  0.0673
 3925W        W 7976   5.973   9.466  11.156 -0.1754  0.2475 -0.2458
 3926W        W 7977   5.858   2.944   1.581 -0.0959  0.1947  0.0947
 3927W        W 7978   2.866   6.433   9.622  0.1768  0.3196  0.3847
 3928W        W 7979   9.362   0.949   2.812 -0.1172  0.2254 -0.0194
 3929W        W 7980   2.146  10.097   1.186  0.1964  0.1311  0.2775
 3930W        W 7981  10.112   9.351  12.419  0.2609 -0.0965  0.1507
 3931W        W 7982   9.692   5.042   0.112  0.0741 -0.1309 -0.0721
 3932W        W 7983   3.812  10.070   4.108  0.1097 -0.1221 -0.2020
 3933W        W 7984   3.877   6.350   4.152 -0.0371  0.2276  0.0298
 3934W        W 7985   2.132   7.546   1.371 -0.2378 -0.0677 -0.3724
 3935W        W 7986   6.710   3.205   3.235  0.3350 -0.0296  0.1635
 3936W        W 7987  10.006   3.576  12.286 -0.1961 -0.1110  0.0838
 3937W        W 7988   7.799   7.311   9.406 -0.2671  0.3745 -0.0536
 3938W        W 7989   1.325   8.568   1.980  0.0067  0.1720  0.0199
 3939W        W 7990   2.509   9.744   1.221 -0.1539 -0.0058 -0.2863
 3940W        W 7991   0.299   9.243  10.624  0.1802 -0.2332 -0.2400
 3941W        W 7992   6.005   8.832   4.953  0.1586  0.2262 -0.0943
 3942W        W 7993   7.688   6.695   3.317  0.0363  0.2268  0.1465
 3943W        W 7994   2.058   5.845   0.218 -0.3822  0.1235  0.2157
 3944W        W 7995   5.226   9.189  12.097  0.0463 -0.0750  0.0323
 3945W        W 7996   5.750   4.614  10.323  0.0241  0.0898 -0.0785
 3946W        W 7997   3.154   2.503  12.255 -0.0127 -0.0840  0.0218
 3947W        W 7998   1.137   5.285  13.222  0.0655  0.2260  0.1540
 3948W        W 7999   5.024   6.346  11.408 -0.2697  0.1293 -0.0103
 3949W        W 8000   6.694   5.307   8.715  0.1557  0.0159 -0.3167
 3950W        W 8001   5.837   6.424   3.592  0.1120 -0.1197 -0.0652
 3951W        W 8002   0.009   0.820   8.957  0.0804 -0.2295 -0.0174
 3952W        W 8003   4.508   6.174  10.495 -0.1498  0.2878  0.2138
 3953W        W 8004   4.121   7.700  11.986 -0.0784 -0.2516 -0.2137
 3954W        W 8005   6.106   9.997   0.699  0.0252 -0.0843 -0.3028
 3955W        W 8006   6.797   9.368   1.286  0.3506  0.0940  0.0196
 3956W        W 8007   6.448   9.393  10.978  0.0370  0.0099 -0.0637
 3957W        W 8008   4.671   6.811   0.410  0.0852 -0.2028 -0.0826
 3958W        W 8009   0.175   1.300  12.905 -0.3111 -0.1802 -0.3285
 3959W        W 8010   1.956   4.085  12.182 -0.2920 -0.2934  0.0808
 3960W        W 8011   7.486   1.824   0.864 -0.1784 -0.0168 -0.2334
 3961W        W 8012   4.855   8.359   5.568 -0.0936 -0.1172  0.0046
 3962W        W 8013   1.869   2.492  11.772  0.0234  0.1399 -0.0506
 3963W        W 8014   8.298  10.166   0.572  0.0938 -0.2312 -0.1436
 3964W        W 8015   7.097   5.680  12.154 -0.1063 -0.2605  0.2516
 3965W        W 8016   7.325   1.556   4.056  0.0598  0.0413  0.3349
 3966W        W 8017   5.896   5.518   4.115  0.0177  0.0809  0.1687
 3967W        W 8018   7.186   8.239   2.642  0.0462 -0.3280  0.1146
 3968W        W 8019   1.404   7.667  13.337  0.1487 -0.1539  0.0946
 3969W        W 8020   4.170   5.823   9.839  0.0398 -0.2002 -0.1002
 3970W        W 8021   4.745   8.874   2.976  0.1732  0.0498  0.0107
 3971W        W 8022   6.713   0.528  10.876 -0.2311  0.0051  0.2485
 3972W        W 8023   0.427   3.064   3.666  0.1016 -0.2197 -0.2301
 3973W        W 8024   0.708   2.846   1.243 -0.0383  0.0823  0.0191
 3974W        W 8025   2.177   7.791   0.197  0.2427 -0.2490 -0.1723
 3975W        W 8026   6.583   5.600   2.704 -0.1645 -0.1321  0.1467
 3976W        W 8027   7.413  10.055   3.460  0.1787 -0.2039 -0.1130
 3977W        W 8028   3.725   6.479  11.592  0.1270 -0.2117  0.0277
 3978W        W 8029   1.163   9.592   2.581 -0.0390 -0.4896 -0.0067
 3979W        W 8030   0.881   0.871  10.574 -0.1652  0.1548 -0.1199
 3980W        W 8031   8.598   6.590   9.384 -0.2748 -0.0723 -0.3824
 3981W        W 8032   1.849   3.229   0.358 -0.2674  0.1001  0.2261
 3982W        W 8033   1.130   1.673   2.413  0.0073  0.5841 -0.1048
 3983W        W 8034  10.101   3.879  13.565 -0.0098 -0.0117  0.2583
 3984W        W 8035   8.263   5.091   0.691 -0.1747 -0.1884  0.2735
 3985W        W 8036   6.149   8.941  13.190  0.0767 -0.1206  0.2610
 3986W        W 8037   0.380   3.565   2.017 -0.3542  0.0843 -0.2216
 3987W        W 8038   0.750   1.377  11.572  0.1521 -0.1392  0.4033
 3988W        W 8039   5.573   8.366  10.348 -0.1187 -0.0503  0.0293
 3989W        W 8040   0.029   6.651   0.883 -0.1261  0.0684  0.3524
 3990W        W 8041   2.282   1.010  12.718  0.0275  0.0508  0.1019
 3991W        W 8042   6.488   8.467  11.727 -0.0302  0.0111 -0.2938
 3992W        W 8043   3.125   3.324  11.657 -0.0520  0.1210  0.3624
 3993W        W 8044   1.882   8.989   2.742  0.0462 -0.2719 -0.0983
 3994W        W 8045   3.314   2.468   1.216 -0.2445 -0.1312 -0.2115
 3995W        W 8046   0.823   8.279   2.050  0.0186 -0.1857 -0.1817
 3996W        W 8047   0.349   7.768  10.420 -0.3254 -0.5704 -0.4575
 3997W        W 8048   4.839   3.241  13.521  0.0932 -0.0147  0.0598
 3998W        W 8049   7.952   2.271  13.051 -0.2344 -0.0755 -0.1370
 3999W        W 8050   5.599   3.688  13.204 -0.2410  0.0066  0.1048
 4000W        W 8051   7.922   9.321  10.091  0.2011 -0.2447 -0.0883
 4001W        W 8052   8.104   3.583   4.989  0.0649  0.0888  0.2431
 4002W        W 8053   2.715   8.441   2.895  0.0227 -0.3840 -0.3106
 4003W        W 8054   0.022   2.918  13.709  0.2307 -0.2987  0.0302
 4004W        W 8055   9.038   5.802   3.944 -0.1624  0.1345 -0.0511
 4005W        W 8056   5.901   0.871   3.896  0.1861 -0.2638  0.1213
 4006W        W 8057   2.780   2.551   4.298 -0.2770  0.3222  0.1307
 4007W        W 8058   3.094   8.669   1.545 -0.0052 -0.0765  0.1664
 4008W        W 8059   9.162   5.307   0.754 -0.1146 -0.3610  0.0015
 4009W        W 8060   6.195   9.202   1.148  0.2466  0.0310 -0.2939
 4010W        W 8061   6.348   7.558  10.093  0.1860  0.1741 -0.0088
 4011W        W 8062   1.475   7.704  12.410  0.2818  0.1265 -0.0507
 4012W        W 8063   8.786   4.675  12.519  0.2004 -0.0464  0.0658
 4013W        W 8064   9.272   9.193   0.847  0.0961 -0.0291  0.1662
 4014W        W 8065   3.027   6.344   3.563  0.0219 -0.2611  0.0859
 4015W        W 8066   1.253   6.680  10.852 -0.1603 -0.3163  0.3558
 4016W        W 8067   6.895   2.798   1.681  0.0247 -0.2514 -0.0551
 4017W        W 8068   9.377   6.498   2.090 -0.1689 -0.0846 -0.3387
 4018W        W 8069   2.123   9.462  13.459 -0.0441 -0.0690 -0.1374
 4019W        W 8070   5.817   0.862   2.925 -0.0228  0.0564 -0.2012
 4020W        W 8071   8.864   2.236   9.344  0.0173  0.4403 -0.3244
 4021W        W 8072   7.699   2.199  10.304  0.1099 -0.0295  0.1236
 4022W        W 8073   8.129   5.197   1.655 -0.4440  0.0694 -0.1197
 4023W        W 8074   4.536   7.021   0.886  0.1278 -0.0810  0.3034
 4024W        W 8075   1.679   3.079   1.082 -0.2341 -0.1921 -0.0901
 4025W        W 8076   0.572   8.055   2.455 -0.0232 -0.0248  0.1495
 4026W        W 8077   1.622   6.237   0.230 -0.1582  0.0866  0.4075
 4027W        W 8078   8.925   6.640   2.540  0.2992  0.0879  0.0470
 4028W        W 8079   5.261   1.410   3.169  0.0325 -0.2775  0.0638
 4029W        W 8080   4.087   4.805   1.893 -0.3764 -0.1353 -0.2107
 4030W        W 8081   8.246   1.619  11.345  0.2893  0.0688 -0.0614
 4031W        W 8082   5.120   7.099   2.075 -0.0613  0.3308  0.0766
 4032W        W 8083   9.039   9.988  12.062 -0.0623  0.1101  0.0230
 4033W        W 8084   6.562   2.852  10.171 -0.0538  0.0447  0.1112
 4034W        W 8085   9.653   2.577   0.797  0.2465  0.1447 -0.0534
 4035W        W 8086   1.185  10.077  10.030  0.1066  0.0318 -0.0725
 4036W        W 8087   8.146   8.473   2.717 -0.0894 -0.5196  0.0489
 4037W        W 8088   6.996   6.385  12.739  0.1062 -0.0565 -0.2020
 4038W        W 8089   9.086   5.018   1.817  0.0887 -0.1256  0.0942
 4039W        W 8090   6.245   2.002   8.916  0.0290  0.2044 -0.2207
 4040W        W 8091   7.587   9.892   0.173 -0.2518 -0.0974 -0.3705
 4041W        W 8092   1.462   0.127   0.685 -0.0164  0.0850  0.3818
 4042W        W 8093   7.489   0.663   0.377  0.0188 -0.0908 -0.1510
 4043W        W 8094   1.832   0.658  12.332 -0.0746  0.2670 -0.0829
 4044W        W 8095   4.108   0.898   3.343 -0.0057  0.4077  0.1216
 4045W        W 8096   7.155   9.302   4.901 -0.0346  0.3700 -0.0931
 4046W        W 8097   4.418   0.644  11.896  0.1594 -0.2289  0.3949
 4047W        W 8098   8.482   4.579   9.831  0.4353 -0.2740  0.2923
 4048W        W 8099   8.821   2.418   4.579  0.1375  0.0423 -0.0335
 4049W        W 8100   1.240   9.871   3.520  0.0880  0.0324 -0.0219
 4050W        W 8101   3.151   1.390   1.797 -0.2596 -0.0658  0.0353
 4051W        W 8102   7.602   0.552   5.546  0.1269  0.1351 -0.1096
 4052W        W 8103   7.462   1.034   4.819  0.1944 -0.3947  0.2369
 4053W        W 8104   1.396   2.448   0.887  0.0384 -0.1176 -0.1893
 4054W        W 8105   6.598   8.927  10.938 -0.1829 -0.0117 -0.0614
 4055W        W 8106   9.432   4.871  10.607  0.0183  0.6124 -0.0473
 4056W        W 8107   8.071   1.504   8.983  0.0842  0.1625  0.0040
 4057W        W 8108   2.964   1.233   9.660  0.2342 -0.0536 -0.0208
 4058W        W 8109   2.274   9.177  13.053 -0.0694 -0.2689 -0.2372
 4059W        W 8110   9.027   8.631  11.514 -0.0795 -0.0517 -0.2483
 4060W        W 8111   1.588   4.612   2.978  0.3341 -0.2179  0.0881
 4061W        W 8112   5.246   4.609  12.864  0.0708  0.2504  0.3253
 4062W        W 8113   7.058  10.023  12.997  0.0250  0.0105  0.2390
 4063W        W 8114   3.322  10.163   2.352 -0.1467  0.2272  0.1135
 4064W        W 8115   7.269   4.450   1.865 -0.2880 -0.1779 -0.0680
 4065W        W 8116   1.340   9.084  10.958  0.2172  0.2127  0.3041
 4066W        W 8117   9.591   0.643  10.837  0.1482 -0.1784 -0.0652
 4067W        W 8118   3.609   1.348   8.952 -0.1018  0.3896 -0.4473
 4068W        W 8119   1.858   2.605   1.050 -0.1302  0.1989 -0.1391
 4069W        W 8120   7.697   2.055   3.062 -0.1034 -0.0790 -0.2320
 4070W        W 8121   5.975   0.004   8.864 -0.3301 -0.0724  0.1537
 4071W        W 8122   3.522   5.953   1.583  0.1823 -0.0918 -0.1875
 4072W        W 8123   7.559   1.732   4.470 -0.0568  0.1849  0.0250
 4073W        W 8124   2.366   8.531  13.440  0.0559 -0.4132 -0.0804
 4074W        W 8125   4.599   7.914  11.927  0.0886  0.0160  0.3380
 4075W        W 8126   0.040   4.409   1.831  0.0609  0.0961 -0.0037
 4076W        W 8127   9.743   1.373   1.553 -0.0034 -0.1595 -0.0091
 4077W        W 8128   7.531   0.193  12.353  0.1392  0.0082 -0.1571
 4078W        W 8129   1.463   3.487   0.128  0.1053  0.1036 -0.0394
 4079W        W 8130   9.487   1.304   0.695 -0.0227  0.0505 -0.1909
 4080W        W 8131   1.312   9.668  13.852  0.0287  0.1045  0.3163
 4081W        W 8132   8.861   2.233  11.121 -0.1110 -0.0933 -0.0569
 4082W        W 8133   6.889   1.147   1.676 -0.2608  0.1095 -0.0447
 4083W        W 8134   0.825   3.584   2.371  0.0958  0.0306 -0.2601
 4084W        W 8135   4.944   0.612  12.629 -0.1869  0.1020 -0.0414
 4085W        W 8136   1.545   7.900   0.753 -0.0157 -0.4302 -0.0217
 4086W        W 8137   8.207   2.572   8.714 -0.0989 -0.1218 -0.1447
 4087W        W 8138   5.726   8.834   4.135 -0.0782  0.0349 -0.3274
 4088W        W 8139   2.979   0.577   3.451 -0.0767 -0.0889 -0.0934
 4089W        W 8140   5.545   0.978   0.201  0.0919  0.0443 -0.0742
 4090W        W 8141   5.374   5.566  13.928  0.0467  0.1960  0.0917
 4091W        W 8142   7.148   7.501   4.407  0.3356 -0.0311 -0.0724
 4092W        W 8143   3.273   5.243  10.246 -0.0940  0.1095 -0.0781
 4093W        W 8144   1.373   3.902   1.876  0.0801  0.1291 -0.1517
 4094W        W 8145   9.141   4.626  11.736  0.2860  0.0629  0.1121
 4095W        W 8146   5.397   5.017  10.479 -0.3279  0.3603  0.1001
 4096W        W 8147   8.810   2.666  11.848  0.1044  0.1564 -0.3605
 4097W        W 8148   7.784   8.180  10.892  0.0867 -0.0936  0.1612
 4098W        W 8149   2.470   0.544   3.281 -0.0264 -0.0429 -0.0543
 4099W        W 8150   0.291   2.586   3.616  0.0333 -0.1832  0.0302
 4100W        W 8151   1.570   2.797   0.060  0.1680  0.4653 -0.0672
 4101W        W 8152   4.101   3.143   3.462 -0.0932  0.0325 -0.0388
 4102W        W 8153   7.383   4.375   3.726  0.0080  0.0037  0.1320
 4103W        W 8154   7.595   5.185   2.324 -0.1288  0.0006 -0.2030
 4104W        W 8155   4.658   7.306  11.737  0.1134 -0.2067  0.1452
 4105W        W 8156   4.301   5.623   1.828 -0.1150  0.0386 -0.1742
 4106W        W 8157   9.869   9.364  12.827 -0.2136  0.0548  0.0967
 4107W        W 8158   7.087   7.760   2.564  0.0200  0.3935  0.3480
 4108W        W 8159   1.608   0.831  11.914 -0.1397 -0.0440 -0.2804
 4109W        W 8160   2.179   0.326  13.504 -0.0557 -0.1916 -0.2192
 4110W        W 8161   7.100   4.413   1.310  0.0225  0.0191  0.0960
 4111W        W 8162   5.663   7.146   0.954 -0.2333 -0.0021 -0.2723
 4112W        W 8163   3.324   6.669  11.871 -0.1737 -0.4716  0.0461
 4113W        W 8164   2.699   5.323   2.596  0.1008 -0.1774  0.2438
 4114W        W 8165   4.419   9.306  10.890  0.1352 -0.1853 -0.0707
 4115W        W 8166   3.337   4.041  10.927 -0.1028  0.3914 -0.1647
 4116W        W 8167   2.223   3.133  13.350  0.3909  0.2644 -0.0929
 4117W        W 8168   0.379   3.386  12.198 -0.3264  0.0547 -0.1080
 4118W        W 8169   8.521   2.173   2.296  0.1402 -0.0478  0.4117
 4119W        W 8170   9.196   3.060  12.128  0.0113 -0.2782  0.2047
 4120W        W 8171   1.827   3.903   0.975  0.3142  0.0413  0.1285
 4121W        W 8172   7.449   1.043  10.952  0.0872  0.0376 -0.1071
 4122W        W 8173   6.787   0.306   3.759  0.1304  0.1521 -0.1328
 4123W        W 8174   2.043   4.367  11.748  0.1350  0.1222 -0.1408
 4124W        W 8175   2.384   4.566   2.579 -0.0430 -0.3472  0.4181
 4125W        W 8176   8.787   6.323   9.853 -0.1695  0.0043 -0.0066
 4126W        W 8177   7.848   6.462   4.499 -0.1335 -0.0069 -0.0199
 4127W        W 8178   0.594   1.703  13.861 -0.1241  0.0535  0.0937
 4128W        W 8179   1.347   4.896   3.733  0.3972 -0.0854  0.1936
 4129W        W 8180   3.038   8.870   2.983  0.0383 -0.2078 -0.0301
 4130W        W 8181   2.868   3.177  13.862  0.0912  0.0584 -0.0712
 4131W        W 8182   5.441   5.421   9.313  0.0514  0.1591 -0.1480
 4132W        W 8183   8.081   3.301   2.114 -0.0880 -0.1123 -0.1004
 4133W        W 8184   1.952   6.290   1.179  0.0732 -0.1354  0.0733
 4134W        W 8185   9.434   7.843  11.989 -0.0732  0.2309 -0.3961
 4135W        W 8186   1.295   4.100  11.242  0.2795  0.3576  0.0463
 4136W        W 8187   4.081   7.758   4.174  0.1327  0.2150 -0.0831
 4137W        W 8188   0.304   0.175   9.917 -0.1993 -0.2136 -0.2716
 4138W        W 8189   7.858   1.821  13.269  0.3117 -0.0280  0.3475
 4139W        W 8190   4.626   1.228   0.790 -0.1835 -0.1167 -0.0444
 4140W        W 8191   9.259   8.963  11.201 -0.2229  0.3163 -0.2697
 4141W        W 8192   3.402   6.517  13.669  0.1161 -0.0891 -0.3722
 4142W        W 8193   3.610   1.733  12.134 -0.0328  0.3375 -0.1823
 4143W        W 8194   5.517   8.913  13.394 -0.3686 -0.3893 -0.0932
 4144W        W 8195   9.355   2.762  13.253 -0.2884  0.2904 -0.0537
 4145W        W 8196   4.552   0.171  10.384  0.0280 -0.0705  0.0267
 4146W        W 8197   8.424   4.998  10.150 -0.1432 -0.0595 -0.0727
 4147W        W 8198   3.057   3.281  12.458 -0.0526  0.2681 -0.2412
 4148W        W 8199   4.722   0.875  13.523 -0.2273  0.1161 -0.1279
 4149W        W 8200   8.714   0.774   3.586 -0.0002  0.1733 -0.2638
 4150W        W 8201   7.467   1.118  11.436  0.2154  0.1659  0.1611
 4151W        W 8202   1.855   9.993   3.195 -0.0961  0.2392  0.0312
 4152W        W 8203   4.025   0.615  13.797 -0.1359  0.0581 -0.0333
 4153W        W 8204   4.172   3.657   0.750  0.1807  0.1808  0.1344
 4154W        W 8205   6.841   2.973   0.525 -0.1574  0.2256 -0.2030
 4155W        W 8206   5.305   5.925   2.943 -0.1419 -0.1113  0.1898
 4156W        W 8207   1.817   1.649   3.774  0.0063 -0.0697 -0.0203
 4157W        W 8208   2.853   0.443  10.389  0.1179 -0.1062 -0.4797
 4158W        W 8209   4.159   3.255  10.613  0.0389 -0.3086 -0.3579
 4159W        W 8210   3.270   9.558   5.171  0.2019 -0.1786  0.3468
 4160W        W 8211   9.603   4.484   0.259  0.0188  0.1261 -0.1710
 4161W        W 8212   8.228   1.817   3.774 -0.1040 -0.2438 -0.1382
 4162W        W 8213   7.480   0.583  12.722  0.1051  0.2922  0.1880
 4163W        W 8214   1.415   8.485  10.805  0.0015 -0.0060  0.1332
 4164W        W 8215   7.090   9.115   4.424  0.2167  0.2796  0.1389
 4165W        W 8216   8.612   6.227   0.379  0.2956  0.0748  0.2384
 4166W        W 8217   0.991   6.274  13.285  0.0008  0.0676 -0.0081
 4167W        W 8218   2.116   2.766  10.761  0.3579  0.0410 -0.0136
 4168W        W 8219   0.197   7.456  12.971  0.0090  0.1905 -0.2032
 4169W        W 8220   3.547   1.871  11.660 -0.3035  0.0694 -0.1235
 4170W        W 8221   3.824   7.547   4.555 -0.2310 -0.2337 -0.3012
 4171W        W 8222   6.366   7.932  11.899 -0.0658 -0.0816 -0.0862
 4172W        W 8223   6.054   7.106  11.938 -0.1194  0.0415  0.0900
 4173W        W 8224   2.597   0.738   9.411  0.0009 -0.0238 -0.1560
 4174W        W 8225   8.543   2.772  11.435  0.1825 -0.2129  0.0346
 4175W        W 8226   5.938   5.966  13.524 -0.0504  0.3961  0.0702
 4176W        W 8227   6.244   7.178   4.125 -0.1132  0.0062 -0.0435
 4177W        W 8228   9.199   9.532   0.434  0.0374 -0.0050 -0.1066
 4178W        W 8229   9.851   8.639   0.463  0.0042 -0.2246 -0.1218
 4179W        W 8230   1.600   7.330   0.588  0.0565 -0.1413  0.0026
 4180W        W 8231   5.895   3.905  13.572  0.2327  0.1351  0.0123
 4181W        W 8232   1.804  10.183  11.405 -0.1577 -0.2225 -0.2400
 4182W        W 8233   8.039   9.872   4.055 -0.2857  0.2088 -0.3151
 4183W        W 8234   2.750   5.100   9.754 -0.0593 -0.1835  0.0545
 4184W        W 8235   0.255   9.376   4.302 -0.0835  0.0768 -0.0499
 4185W        W 8236   2.646   1.566   3.238 -0.0345 -0.0918  0.0575
 4186W        W 8237   9.903   4.339  12.033  0.3259  0.1864 -0.1323
 4187W        W 8238   8.851   2.521   2.719 -0.0183  0.1502  0.0520
 4188W        W 8239   0.529   1.699  11.970 -0.0471 -0.2862  0.0456
 4189W        W 8240   8.907   6.327   2.116  0.1321 -0.1998  0.1779
 4190W        W 8241   9.365   8.365   4.218  0.0104  0.0812 -0.1891
 4191W        W 8242   3.687   9.331   9.456 -0.2908  0.2279  0.0050
 4192W        W 8243   5.547   6.969   0.469 -0.0332 -0.0951  0.1044
 4193W        W 8244   5.774   5.966   2.927  0.0567  0.0889  0.1383
 4194W        W 8245   6.446   0.384   3.410  0.0636 -0.1199 -0.1118
 4195W        W 8246   3.529   5.505  10.673 -0.1302 -0.0430 -0.0324
 4196W        W 8247   1.884   4.176   1.834  0.0330 -0.0299 -0.1550
 4197W        W 8248   5.463   9.764   9.555  0.0552  0.0040 -0.3434
 4198W        W 8249   0.268   1.832   4.531 -0.2010  0.2518 -0.0470
 4199W        W 8250   9.434   7.676  13.002  0.1308 -0.0391 -0.1340
 4200W        W 8251   0.944   9.614   5.037 -0.3312  0.0740 -0.2198
 4201W        W 8252   7.756   8.262   8.681  0.0658 -0.0815 -0.1795
 4202W        W 8253   0.844   4.022   0.610 -0.1058  0.0322  0.0656
 4203W        W 8254   4.505   8.041  13.186  0.2155  0.0227  0.2980
 4204W        W 8255   5.379   5.948   1.829  0.0861  0.2950 -0.0669
 4205W        W 8256   0.381   2.006  10.157  0.2828  0.1171  0.0840
 4206W        W 8257   6.885   0.370   9.458  0.2126 -0.1311  0.1627
 4207W        W 8258   4.245   8.246   3.891  0.3037 -0.0070  0.2241
 4208W        W 8259   1.078   6.500   1.715  0.1054 -0.1734 -0.1240
 4209W        W 8260   5.237   8.967   0.847 -0.2414 -0.3336 -0.1205
 4210W        W 8261   6.074   3.361   3.905  0.0750 -0.0739  0.1651
 4211W        W 8262   7.428   0.360  10.509  0.2505 -0.0483 -0.2145
 4212W        W 8263   5.465   2.756   1.771  0.0307  0.1647  0.1746
 4213W        W 8264   5.407   9.340   9.928  0.2801  0.0863  0.0954
 4214W        W 8265   0.688   4.441  11.522 -0.3336 -0.0575  0.0266
 4215W        W 8266   5.713   2.351  11.748  0.3802  0.1718  0.0397
 4216W        W 8267   8.601   6.333   1.420 -0.2630 -0.1973 -0.1167
 4217W        W 8268   9.619   4.793   1.098  0.3604 -0.2044  0.0249
 4218W        W 8269   3.382   6.289  13.227  0.0258  0.0252 -0.2893
 4219W        W 8270   9.257   8.144  12.789 -0.0166 -0.1032  0.2161
 4220W        W 8271   7.198   3.498   9.085  0.1139  0.0410  0.1665
 4221W        W 8272   1.637   2.825  10.613  0.4079  0.0165 -0.1814
 4222W        W 8273   4.747   9.683  10.681 -0.0048  0.3703  0.2369
 4223W        W 8274  10.009   4.093  12.517  0.0364  0.1567  0.1904
 4224W        W 8275   2.468   8.623  11.605  0.1227 -0.0449  0.0746
 4225W        W 8276   8.109   0.970   4.176  0.2765  0.0711  0.1213
 4226W        W 8277   2.742   7.902   2.504 -0.2369  0.1942 -0.0429
 4227W        W 8278   6.695   2.406  10.266  0.1996  0.2988  0.2111
 4228W        W 8279   1.800   2.751  12.216 -0.0531  0.3391 -0.0582
 4229W        W 8280   3.655   3.138   9.524  0.1049 -0.1604  0.0048
 4230W        W 8281   7.830   2.771  10.842 -0.1882 -0.2544  0.1261
 4231W        W 8282   4.218   6.342   2.476  0.2481  0.2174 -0.2074
 4232W        W 8283   2.962   9.984   2.826 -0.1933 -0.0220 -0.0308
 4233W        W 8284   7.303   9.439   9.936 -0.2094 -0.1483 -0.0792
 4234W        W 8285   4.741   6.249  13.110  0.2381 -0.1870 -0.1489
 4235W        W 8286   7.219   3.002   2.717  0.1770  0.0378 -0.0769
 4236W        W 8287   4.965   5.403   0.280  0.0299 -0.4291  0.0060
 4237W        W 8288   8.699   6.517  10.816 -0.0271 -0.1886 -0.2582
 4238W        W 8289   6.387   1.941   1.205 -0.1354 -0.2047  0.1108
 4239W        W 8290   6.661   5.883   1.910  0.0769 -0.0217  0.1590
 4240W        W 8291   7.763   8.129   0.113 -0.3977  0.0621 -0.0080
 4241W        W 8292   6.807   4.549   0.863 -0.0275 -0.0035  0.1211
 4242W        W 8293   9.383   8.404   1.192 -0.0868  0.1780 -0.1275
 4243W        W 8294   9.602   9.375  11.536  0.1632  0.2318  0.4322
 4244W        W 8295   2.609   6.137  11.063  0.0817  0.3321  0.2088
 4245W        W 8296   5.090   8.771  12.883  0.1750  0.4326 -0.2179
 4246W        W 8297   8.847   4.224   3.108 -0.0137 -0.0290  0.2276
 4247W        W 8298   9.287   7.596   3.601 -0.3925  0.0730 -0.1274
 4248W        W 8299   4.396   4.720   2.372 -0.0740  0.2035  0.1145
 4249W        W 8300   8.363   5.479   0.960 -0.0318  0.0647 -0.1178
 4250W        W 8301   8.770   4.635   3.719  0.1963 -0.0291 -0.1582
 4251W        W 8302   3.527   7.198  12.576  0.1584  0.1387 -0.2262
 4252W        W 8303   5.059   4.045  11.566  0.1842  0.1685 -0.3290
 4253W        W 8304   0.068   1.419   4.343  0.0567 -0.0482  0.0920
 4254W        W 8305   9.674   3.231   1.853 -0.1722  0.1423  0.2705
 4255W        W 8306   5.623   2.501   9.970 -0.2583 -0.1469 -0.0859
 4256W        W 8307   1.374   8.266  11.274 -0.3693  0.1933 -0.1635
 4257W        W 8308   6.915   6.006   5.288 -0.1744  0.1683 -0.1486
 4258W        W 8309   3.156   0.159   1.940 -0.1709  0.1478  0.2268
 4259W        W 8310   6.092   3.307   1.894 -0.0959 -0.2621 -0.0504
 4260W        W 8311   2.910   6.519   4.721  0.0664  0.2399 -0.1581
 4261W        W 8312   1.555   3.147  12.288  0.0277  0.0346 -0.0314
 4262W        W 8313   3.953   9.286   3.150 -0.3308  0.5127 -0.0903
 4263W        W 8314   5.897  10.029   3.294 -0.2747  0.2327 -0.0084
 4264W        W 8315   6.749   0.129   9.881  0.1238 -0.0990 -0.0377
 4265W        W 8316  10.122   8.599   1.867  0.0912  0.1628  0.0788
 4266W        W 8317   3.025   6.587   0.133 -0.2597  0.3528  0.4259
 4267W        W 8318   7.227   5.788   3.913  0.4857  0.1127  0.2446
 4268W        W 8319   7.835   5.833   3.088 -0.0263 -0.1627 -0.0896
 4269W        W 8320   8.150   0.196   1.999 -0.1077 -0.5766 -0.0828
 4270W        W 8321   3.000   7.282  11.238 -0.0656 -0.2017 -0.1353
 4271W        W 8322   9.046   3.670   1.930  0.0449 -0.1867  0.0253
 4272W        W 8323   4.574   4.427  10.294  0.0803 -0.0527 -0.3116
 4273W        W 8324   7.653   7.243   1.303 -0.0410 -0.0013 -0.1155
 4274W        W 8325   2.721   0.643   0.748  0.0138 -0.0707  0.1387
 4275W        W 8326   6.742   4.031   0.683  0.1779 -0.1899  0.1122
 4276W        W 8327   4.187   2.216   4.131  0.2444 -0.1073  0.1374
 4277W        W 8328   1.171   0.771  11.079 -0.2276 -0.2527  0.1288
 4278W        W 8329   4.160   3.942   2.390 -0.1051  0.0143  0.0792
 4279W        W 8330   6.146   6.755   4.331  0.2547  0.5221  0.0827
 4280W        W 8331   0.998   7.351  10.235  0.0436 -0.0118 -0.0650
 4281W        W 8332   4.841   2.635  10.465 -0.0858  0.2615  0.1232
 4282W        W 8333   8.205   0.286  11.953 -0.2778 -0.0586  0.2664
 4283W        W 8334   0.922   2.084   3.850 -0.2118  0.3034 -0.2754
 4284W        W 8335   3.996   3.037   0.514 -0.2874 -0.2832 -0.4735
 4285W        W 8336   7.279   0.709   1.826 -0.1122  0.0129  0.1207
 4286W        W 8337   4.821   7.502  13.367  0.2929  0.0866  0.1110
 4287W        W 8338   4.284   2.830  11.920 -0.0247 -0.0339  0.0444
 4288W        W 8339   8.583   3.648   9.839 -0.0538 -0.1957  0.2014
 4289W        W 8340   4.358   6.963   2.366  0.2475  0.2057 -0.4451
 4290W        W 8341   8.030   4.340  12.725 -0.1988  0.2673  0.0765
 4291W        W 8342   7.384   5.318   1.086 -0.1431  0.2751  0.2815
 4292W        W 8343   4.109   7.390   9.826 -0.2584 -0.0924  0.1098
 4293W        W 8344   2.728   9.032  11.414  0.1066  0.1474 -0.0944
 4294W        W 8345   8.712   7.409   2.759 -0.0562 -0.1347  0.0243
 4295W        W 8346   8.028   0.619  12.375 -0.0950  0.4463  0.3536
 4296W        W 8347   4.598   7.325   1.467 -0.2230  0.2357 -0.1839
 4297W        W 8348   4.711   6.696  11.287 -0.1080  0.2696  0.0081
 4298W        W 8349   4.445   5.194  12.655 -0.1489  0.0035  0.0341
 4299W        W 8350   7.030   0.127   0.544  0.0735  0.2553  0.1418
 4300W        W 8351   9.509   4.309   2.365 -0.1958 -0.0672  0.0989
 4301W        W 8352   7.230   9.824   5.145  0.1578  0.0333  0.0826
 4302W        W 8353   9.839   2.772   1.699 -0.0125  0.2012 -0.2463
 4303W        W 8354   9.681   0.919   0.381 -0.0508  0.0514  0.1081
 4304W        W 8355   0.166   8.185  13.249  0.0849  0.0017 -0.2645
 4305W        W 8356   1.968   2.493  12.614 -0.4939 -0.0866  0.0673
 4306W        W 8357   6.887   2.427   0.349  0.0162 -0.0170  0.3583
 4307W        W 8358   3.474   6.374   3.341 -0.1368  0.2470  0.1692
 4308W        W 8359   7.334   4.353  11.655 -0.2065 -0.3485  0.3070
 4309W        W 8360   6.673   7.715  10.935 -0.0275  0.1031 -0.3230
 4310W        W 8361   1.492   8.641   5.183  0.0093  0.0368  0.4637
 4311W        W 8362   7.342   9.761  13.357  0.1439 -0.2567  0.1132
 4312W        W 8363   1.222   5.183  11.983 -0.0408 -0.2133 -0.0373
 4313W        W 8364   1.675   6.893  12.921  0.6200 -0.1657  0.5340
 4314W        W 8365   0.749   9.669   1.008 -0.1875  0.0576  0.0518
 4315W        W 8366   8.876   1.271   9.233 -0.0338  0.5100  0.0012
 4316W        W 8367   6.651   5.714   3.198 -0.0877 -0.2573  0.2946
 4317W        W 8368   1.947   6.455  12.704  0.1453 -0.0300  0.1176
 4318W        W 8369   7.303   3.479  13.621  0.3214 -0.3599  0.2017
 4319W        W 8370   7.406   1.665   1.343 -0.1596 -0.1397 -0.2766
 4320W        W 8371   3.673   2.357   3.640 -0.1994  0.2174 -0.2694
 4321W        W 8372   7.930   7.003   5.296 -0.0648 -0.1272 -0.0337
 4322W        W 8373   1.864   4.979   3.432 -0.0218  0.1047  0.3430
 4323W        W 8374   8.046   1.307  10.235 -0.0610 -0.1506  0.1990
 4324W        W 8375   7.500   8.688  13.448  0.3241  0.0719 -0.3936
 4325W        W 8376   3.726   7.289   3.976  0.0189  0.0361 -0.0481
 4326W        W 8377   4.700   2.659  11.042  0.0048  0.1780 -0.1217
 4327W        W 8378   0.160   4.248   9.649  0.0708 -0.0988 -0.0579
 4328W        W 8379   5.492   5.851   0.486 -0.0663 -0.0224  0.1076
 4329W        W 8380   3.230   4.923  13.758 -0.0008  0.0609 -0.1551
 4330W        W 8381   5.050   3.331  12.559 -0.2078  0.1154  0.2955
 4331W        W 8382   7.261   9.449   9.332  0.5124  0.2532 -0.2241
 4332W        W 8383   6.062   5.642   0.228  0.0899 -0.0248  0.1749
 4333W        W 8384   7.684   6.975  13.295 -0.1368 -0.2043 -0.0467
 4334W        W 8385   4.549   0.163  13.651  0.0493  0.3661 -0.1089
 4335W        W 8386   4.939   2.974  12.897  0.0489  0.1664  0.0612
 4336W        W 8387   7.041   4.236  12.645  0.1219  0.0746 -0.1519
 4337W        W 8388   7.061   0.121  10.767 -0.1546  0.1233 -0.0418
 4338W        W 8389   8.058   6.054  12.946  0.0742  0.1950  0.3964
 4339W        W 8390   2.246   4.183   2.193 -0.0857  0.0074  0.2567
 4340W        W 8391   1.952   1.173  12.328 -0.1634  0.0128 -0.4229
 4341W        W 8392   5.865   1.459   0.601 -0.3139 -0.0022  0.0486
 4342W        W 8393   3.193   7.470  12.340  0.1908 -0.0539  0.5639
 4343W        W 8394   8.230   0.329   3.075 -0.0939  0.3122  0.1907
 4344W        W 8395   8.694   3.142  11.148  0.2094 -0.4224  0.3150
 4345W        W 8396   8.471   7.189  10.199  0.0861 -0.1899 -0.0438
 4346W        W 8397   5.402   2.230   4.005 -0.0009  0.0489 -0.1067
 4347W        W 8398   3.859   3.030  10.895 -0.2217 -0.0639 -0.1489
 4348W        W 8399   0.725   2.011   1.569 -0.0749  0.1600 -0.0319
 4349W        W 8400   3.655   4.348   1.026 -0.1051  0.0124  0.1468
 4350W        W 8401   8.734   0.145   9.824  0.1307 -0.2866 -0.3542
 4351W        W 8402   6.857   8.737   2.098 -0.1104  0.0401  0.1422
 4352W        W 8403   1.111   2.648  10.085  0.1457  0.1061 -0.0958
 4353W        W 8404   5.552  10.006  10.476  0.0709 -0.4102 -0.2723
 4354W        W 8405   7.488   7.399  11.278  0.0557  0.1469 -0.0707
 4355W        W 8406   9.178   9.111  10.714  0.2162 -0.3257 -0.1092
 4356W        W 8407   5.557   4.065  11.652  0.4100 -0.0923 -0.2902
 4357W        W 8408   5.685   2.544  12.242  0.3172 -0.0701 -0.0199
 4358W        W 8409   9.358   7.219   0.040 -0.1160  0.0123  0.1545
 4359W        W 8410   6.809   2.690   9.399 -0.1218 -0.2281 -0.1648
 4360W        W 8411   0.745   0.171  13.198  0.2243  0.0430 -0.0094
 4361W        W 8412   6.396   9.600   9.272  0.1039  0.2258 -0.0929
 4362W        W 8413   4.609   9.075  10.481 -0.3648  0.1375 -0.0578
 4363W        W 8414   6.419   0.832   0.771 -0.0239 -0.4447 -0.2280
 4364W        W 8415   3.821   0.526  13.283 -0.3338 -0.1823 -0.1556
 4365W        W 8416   1.186   2.165  13.155  0.0069  0.1034 -0.1566
 4366W        W 8417   1.177   8.803   9.208  0.0410  0.2103 -0.1635
 4367W        W 8418   0.063   7.641  13.459  0.0252 -0.2157 -0.1228
 4368W        W 8419   3.576   6.943  13.830  0.0734 -0.0802  0.2561
 4369W        W 8420   8.953   3.746   3.309 -0.1948 -0.0694  0.3030
 4370W        W 8421   7.653   0.840   3.597  0.0951  0.0868 -0.0288
 4371W        W 8422   3.787   0.735  12.509  0.4968  0.1629 -0.2177
 4372W        W 8423   7.584   7.644  12.677 -0.1326 -0.1073 -0.0751
 4373W        W 8424   8.087   4.065   2.841 -0.0588  0.0910  0.0122
 4374W        W 8425   7.499   4.905   1.928  0.0530 -0.3252 -0.2739
 4375W        W 8426   8.313   5.932   2.368 -0.0147 -0.1689 -0.0763
 4376W        W 8427   6.088   1.897   4.067 -0.0808 -0.0043  0.0854
 4377W        W 8428   1.014   3.789  11.964 -0.0787 -0.0959 -0.1792
 4378W        W 8429   6.928   8.657  12.577  0.2143  0.1137 -0.5808
 4379W        W 8430   6.214   4.631   1.136  0.1830 -0.2434 -0.1175
 4380W        W 8431   1.916   0.932  11.332  0.3829 -0.0639  0.1960
 4381W        W 8432   9.420   4.019  11.024  0.0370  0.2246 -0.0092
 4382W        W 8433   1.688   0.535   0.931  0.0847 -0.1043  0.3368
 4383W        W 8434   4.259   2.635   1.158  0.0120 -0.2345  0.2132
 4384W        W 8435   9.734   7.915  13.432  0.1268 -0.1331 -0.1037
 4385W        W 8436   7.707   3.032   4.796 -0.0789 -0.0530  0.2860
 4386W        W 8437   1.243   6.059  11.572  0.0260  0.1705 -0.0720
 4387W        W 8438   2.966   7.533   3.326 -0.1299  0.0298 -0.3142
 4388W        W 8439   2.604   4.701   0.713 -0.1370 -0.1317  0.0951
 4389W        W 8440   0.368   6.794   9.952 -0.1530  0.0592 -0.1311
 4390W        W 8441   2.397   7.876  12.747  0.1577  0.0631 -0.2642
 4391W        W 8442   2.856   1.483   4.716 -0.1927 -0.2759  0.0776
 4392W        W 8443   9.184   6.146   2.570 -0.0948 -0.0362  0.1520
 4393W        W 8444  10.066   0.107   2.245  0.1208 -0.0907  0.2689
 4394W        W 8445   7.368   4.413  12.229  0.1688  0.1031 -0.2749
 4395W        W 8446   1.331   8.572  12.678 -0.0396  0.2734  0.1459
 4396W        W 8447   7.517   9.108   4.631 -0.0711  0.1139 -0.2369
 4397W        W 8448   0.297   1.884   9.507 -0.1266 -0.0907 -0.3310
 4398W        W 8449   4.745   1.634  13.057  0.1406  0.1191 -0.1272
 4399W        W 8450   2.011   8.126   0.526 -0.0492 -0.3547 -0.0398
 4400W        W 8451   1.915   1.671  12.349  0.1621  0.2129  0.5087
 4401W        W 8452   2.224   6.097  11.988  0.3269 -0.1107  0.1381
 4402W        W 8453   6.625   3.810  11.957  0.1892 -0.3583  0.2663
 4403W        W 8454   0.113   8.694   4.644 -0.1453  0.0272 -0.0411
 4404W        W 8455   9.740   9.240   1.668  0.2142  0.1653 -0.3284
 4405W        W 8456   2.261   0.955   4.302 -0.2341 -0.0034  0.0157
 4406W        W 8457   0.728   6.855  10.265  0.2911  0.0942 -0.0102
 4407W        W 8458   4.144   4.471  11.421  0.0325  0.0112  0.3701
 4408W        W 8459   6.781   3.074  12.368  0.1675 -0.2986  0.3092
 4409W        W 8460   3.731   1.574   0.140 -0.2478 -0.1942  0.0872
 4410W        W 8461   0.768   7.918  10.174  0.2458  0.0826  0.0216
 4411W        W 8462   7.414   1.235  12.026 -0.1850 -0.0289  0.1516
 4412W        W 8463   4.179   5.726  12.636 -0.1761 -0.0165  0.3629
 4413W        W 8464   7.823   5.396   4.493  0.1595 -0.1179  0.0037
 4414W        W 8465   2.176   0.002  11.796  0.1605  0.3413  0.0432
 4415W        W 8466   3.584   7.874  11.369  0.1054 -0.1830  0.0320
 4416W        W 8467   6.411   3.839   2.708  0.1736 -0.2153 -0.1653
 4417W        W 8468   1.424   7.628   1.744 -0.1939  0.0975  0.0693
 4418W        W 8469   2.277   5.999   4.036  0.4417 -0.0084 -0.0764
 4419W        W 8470   9.192   3.679   0.008  0.2681 -0.1605  0.0581
 4420W        W 8471   5.396   7.302   1.360 -0.3102  0.1414  0.1421
 4421W        W 8472   6.807   1.208   0.784  0.1415  0.3436  0.0888
 4422W        W 8473   3.741   2.140  12.353  0.0075  0.0946 -0.1844
 4423W        W 8474   5.069   3.807   0.836  0.0440  0.0969 -0.1745
 4424W        W 8475   0.201   2.061  11.768 -0.0937 -0.1160  0.0551
 4425W        W 8476   9.826   7.713  10.306  0.0914 -0.2304 -0.1946
 4426W        W 8477   8.968   6.167   0.721 -0.2513  0.1764  0.0526
 4427W        W 8478   1.304   1.675   3.803 -0.1597  0.3930 -0.1911
 4428W        W 8479   0.013   0.059   4.490  0.1408 -0.2824  0.0716
 4429W        W 8480  10.121   9.125   1.963 -0.0056  0.2004 -0.0234
 4430W        W 8481   5.190   0.629   5.164 -0.1862 -0.2213 -0.0484
 4431W        W 8482   1.249  10.059   5.029  0.1557  0.0675 -0.5309
 4432W        W 8483   2.873   8.129  10.751  0.2958 -0.1477  0.2685
 4433W        W 8484   9.631   6.385  11.027 -0.2465 -0.4641 -0.0829
 4434W        W 8485   4.194   3.483  11.095  0.0860 -0.2225 -0.0739
 4435W        W 8486   9.224   3.536   1.040 -0.1804 -0.1190 -0.2953
 4436W        W 8487   2.013  10.012  10.490 -0.2455  0.0049  0.0129
 4437W        W 8488   6.120   9.999  11.389 -0.0895  0.1588  0.2589
 4438W        W 8489   6.392   2.156  12.473 -0.0990  0.1112 -0.0616
 4439W        W 8490   4.498   3.375  10.246 -0.1738 -0.1532  0.0546
 4440W        W 8491   1.545   7.367  10.288 -0.0148 -0.1662  0.2715
 4441W        W 8492   3.556   4.350  10.608  0.0958  0.1313 -0.0459
 4442W        W 8493   4.266   8.524  13.019 -0.0131 -0.1369  0.0342
 4443W        W 8494   0.647   3.952   3.001  0.1820  0.2428  0.1813
 4444W        W 8495   5.823  10.003   1.559 -0.1471 -0.0791 -0.2139
 4445W        W 8496   8.464   1.175   8.940 -0.0203  0.0088  0.0396
 4446W        W 8497   0.257   8.439   1.309  0.0499 -0.0042  0.3482
 4447W        W 8498   9.396  10.002   4.804  0.0626 -0.0666  0.0022
 4448W        W 8499   5.784   1.419  10.823 -0.1001  0.1143  0.0064
 4449W        W 8500   4.479   9.692   5.225  0.1672  0.1375 -0.3398
 4450W        W 8501   5.680   7.996  12.419  0.0952  0.2660  0.1123
 4451W        W 8502   3.563   0.793   9.720  0.1470 -0.1057 -0.0679
 4452W        W 8503   6.405   0.785   4.566  0.1581 -0.2991  0.2468
 4453W        W 8504   0.238   0.113  13.649 -0.3057 -0.0421 -0.0181
 4454W        W 8505   5.786   6.484  12.192 -0.2396  0.0601  0.0601
 4455W        W 8506   3.616   2.728   0.192  0.3747 -0.2004  0.1277
 4456W        W 8507   6.243   8.115   0.352 -0.1480 -0.0300  0.2582
 4457W        W 8508   6.207   4.382  13.587  0.2507 -0.6173  0.0737
 4458W        W 8509   6.771   5.456  10.748 -0.1458  0.2553 -0.0327
 4459W        W 8510   4.378   5.783   5.051 -0.1453 -0.0399  0.2343
 4460W        W 8511   4.139   9.268  13.158  0.3570 -0.4433 -0.0496
 4461W        W 8512   6.978   9.432   0.285  0.3747 -0.0257 -0.1769
 4462W        W 8513   5.638   3.338   3.030  0.0457 -0.1619  0.2149
 4463W        W 8514   0.391   4.920  12.442 -0.1984 -0.0986 -0.0635
 4464W        W 8515   6.032   1.572   3.569  0.0094  0.0161 -0.0408
 4465W        W 8516   1.347   6.606   3.665  0.0095 -0.0397  0.1007
 4466W        W 8517   9.126   3.241   0.603 -0.2789 -0.1938  0.0743
 4467W        W 8518   9.648   5.802  12.861  0.1294 -0.1926  0.1889
 4468W        W 8519   3.697   1.852   0.595  0.1041  0.1832 -0.2486
 4469W        W 8520   7.927   8.388  11.958  0.2085  0.3260 -0.3159
 4470W        W 8521   5.998   9.439  13.241 -0.0242  0.1517 -0.0355
 4471W        W 8522   3.440   0.020   9.196  0.3804 -0.2065  0.3305
 4472W        W 8523   4.575   6.917   4.314  0.2116 -0.3183  0.1828
 4473W        W 8524   1.798   3.499  11.402 -0.1069  0.2637 -0.1031
 4474W        W 8525   1.497   0.022  13.724  0.0808  0.2460  0.0160
 4475W        W 8526   9.958   9.692   1.876  0.2377 -0.0493 -0.0842
 4476W        W 8527   5.026   8.188  11.738 -0.2082  0.1364  0.0279
 4477W        W 8528   3.794   0.038   3.643 -0.1982 -0.1291 -0.1925
 4478W        W 8529   9.018   2.351   9.850 -0.0114  0.1700  0.2570
 4479W        W 8530   4.146   5.975   0.070 -0.1014 -0.2898 -0.2753
 4480W        W 8531   0.013   7.358  10.262  0.1114 -0.1204  0.0192
 4481W        W 8532   6.042   3.591  10.447  0.1830 -0.2172 -0.0999
 4482W        W 8533   8.064   1.792   4.337 -0.1986 -0.0100  0.1836
 4483W        W 8534   2.280   6.881   0.317  0.1751  0.0435 -0.3699
 4484W        W 8535   2.091   8.975  13.552 -0.2001 -0.0627 -0.0055
 4485W        W 8536   1.360   2.333  13.579 -0.1491 -0.1296 -0.2468
 4486W        W 8537   8.545   6.033  12.895  0.4919 -0.0157  0.1675
 4487W        W 8538   0.062   9.204  10.032  0.1080  0.1622  0.0993
 4488W        W 8539   7.254   6.302   0.987 -0.2209 -0.0990  0.2212
 4489W        W 8540  10.091   5.560   9.624 -0.2877  0.3198  0.0263
 4490W        W 8541   2.614   4.172  12.553 -0.0914 -0.0057 -0.0410
 4491W        W 8542  10.154   0.507  12.889 -0.0784  0.3472 -0.2145
 4492W        W 8543   6.122   9.356   2.508  0.0232 -0.1700 -0.3311
 4493W        W 8544   2.086   2.189  10.603  0.1538  0.1447  0.0234
 4494W        W 8545   6.744   7.641  13.049  0.0585  0.2635  0.0704
 4495W        W 8546   2.353   8.096   0.898 -0.0466  0.0689  0.1227
 4496W        W 8547   9.869   5.136  10.817 -0.0237  0.2661 -0.1049
 4497W        W 8548   7.522   0.508   4.176  0.0629  0.1262 -0.1909
 4498W        W 8549   1.468   4.985   2.202 -0.2565 -0.2884  0.1851
 4499W        W 8550   6.501   1.934   2.879  0.2352  0.0858 -0.0192
 4500W        W 8551   3.499   0.620  12.953 -0.1527 -0.1440  0.1615
 4501W        W 8552   4.708   3.887  11.190 -0.1024 -0.0280  0.0085
 4502W        W 8553   4.063   8.343   4.381  0.0597 -0.1507 -0.0226
 4503W        W 8554   0.766   1.235   0.320  0.1268  0.3451  0.3514
 4504W        W 8555   4.131   4.268   3.470  0.0881  0.1124  0.2170
 4505W        W 8556   4.006   6.873  11.879 -0.1494  0.1084 -0.2080
 4506W        W 8557   2.978   9.611   2.543 -0.0327 -0.4498  0.1091
 4507W        W 8558   3.909   7.695   0.363  0.0499  0.0599 -0.0883
 4508W        W 8559   7.131   7.055   2.514  0.0370  0.0078 -0.0638
 4509W        W 8560   2.247   0.244  10.163  0.1373 -0.3402  0.2631
 4510W        W 8561   9.958   0.485   9.905  0.1511  0.1559  0.2614
 4511W        W 8562   8.546   5.583   3.146 -0.1977  0.0724 -0.1072
 4512W        W 8563   3.683   3.264   2.066  0.0257 -0.0545 -0.2631
 4513W        W 8564   3.030   7.110  12.761  0.2962 -0.2184 -0.1097
 4514W        W 8565   3.941   0.368   2.138 -0.1086  0.1462  0.1019
 4515W        W 8566   8.068   3.494   3.636 -0.1336 -0.1805  0.1755
 4516W        W 8567   1.021   4.181  12.365 -0.2464  0.3243 -0.2553
 4517W        W 8568   1.816   1.765   9.138 -0.0210  0.1676 -0.0458
 4518W        W 8569   2.690   4.884   2.319 -0.0601  0.0654  0.1560
 4519W        W 8570   4.193   9.216   9.436  0.2328  0.2059  0.1228
 4520W        W 8571   9.810   7.265   3.512  0.1093 -0.3626  0.0555
 4521W        W 8572   1.363   7.302   3.021  0.0815  0.3971  0.1366
 4522W        W 8573   9.157   4.924   0.116 -0.1730 -0.1958 -0.1167
 4523W        W 8574  10.064  10.137   3.956 -0.1637  0.0252  0.1714
 4524W        W 8575   2.239   8.105  13.194 -0.1553 -0.0543  0.1281
 4525W        W 8576   7.825   8.327   9.663  0.0994 -0.0870 -0.2242
 4526W        W 8577   1.100   9.163   2.895  0.1964 -0.1788 -0.0805
 4527W        W 8578   1.349   4.014   0.831 -0.2450 -0.0387 -0.0057
 4528W        W 8579   9.021   1.948   4.533  0.0712 -0.2702 -0.0480
 4529W        W 8580   1.637   9.441  11.068  0.2950  0.0457  0.4011
 4530W        W 8581   5.548   7.783   4.648  0.2285  0.0122 -0.0722
 4531W        W 8582   3.035   6.459   1.530 -0.0258  0.3454  0.0712
 4532W        W 8583   8.569   5.792   9.962 -0.0835  0.1828  0.1008
 4533W        W 8584   6.339   6.016   2.961 -0.4820  0.0697 -0.0903
 4534W        W 8585   7.549   9.663   1.195 -0.2817 -0.1680 -0.1146
 4535W        W 8586   9.485   4.759  13.670 -0.1465 -0.0304 -0.0835
 4536W        W 8587   8.920   7.494  10.209 -0.0389  0.2269  0.2528
 4537W        W 8588   5.681   5.217   3.742 -0.1833 -0.1327  0.1072
 4538W        W 8589   7.656   2.643  13.327 -0.0394  0.1925 -0.2401
 4539W        W 8590   5.629   1.298   3.620  0.0640 -0.2983 -0.0232
 4540W        W 8591   4.014   7.633   0.836  0.4095  0.0132 -0.0569
 4541W        W 8592   9.551   2.372  12.550  0.0320  0.0296  0.2058
 4542W        W 8593   7.907   9.127   5.055  0.1536  0.2041  0.0388
 4543W        W 8594   1.058   3.698   2.810 -0.0611  0.0132  0.1692
 4544W        W 8595  10.120   3.950  11.806  0.1948 -0.2373  0.2322
 4545W        W 8596   7.683   0.089   1.106 -0.1064  0.2957 -0.0687
 4546W        W 8597   7.265   8.437   0.157 -0.0844 -0.2485 -0.0960
 4547W        W 8598   3.079   7.227  11.812 -0.1014  0.1995  0.2438
 4548W        W 8599   4.843   6.606  12.111 -0.2903  0.3015  0.0352
 4549W        W 8600   4.314   1.334   3.709  0.1209 -0.1410 -0.0722
 4550W        W 8601   9.988   3.183  11.384  0.1786 -0.2421 -0.2632
 4551W        W 8602   0.763   4.509   9.362 -0.1108  0.4470  0.0404
 4552W        W 8603   5.799   3.733   0.538 -0.0646  0.2981  0.3393
 4553W        W 8604   5.321   2.849   4.627  0.3221 -0.2224 -0.1160
 4554W        W 8605   6.114   3.285   1.355 -0.0566  0.0842 -0.0675
 4555W        W 8606   7.999   7.537   4.010  0.2411  0.0450 -0.1212
 4556W        W 8607   9.351   5.831  11.224 -0.0782  0.0961 -0.0011
 4557W        W 8608   7.261   9.614   4.367  0.0907  0.3007  0.0781
 4558W        W 8609   7.117   8.789   8.965 -0.1043  0.1603  0.0388
 4559W        W 8610   6.084   7.064   3.413 -0.1394  0.3481 -0.0582
 4560W        W 8611   5.415   7.832  11.082 -0.3106  0.2799 -0.0688
 4561W        W 8612   9.223   7.840   4.127 -0.0069 -0.1922  0.2587
 4562W        W 8613   6.194   0.503  11.080  0.2801 -0.1505 -0.2956
 4563W        W 8614   7.972   1.682   0.976  0.0761 -0.0306  0.0107
 4564W        W 8615  10.147   7.123   2.666  0.0429  0.0271 -0.1447
 4565W        W 8616   2.258   6.112  11.465  0.3027 -0.0966 -0.0089
 4566W        W 8617   1.303   0.636  12.497  0.2191 -0.2429 -0.4647
 4567W        W 8618   2.573   1.731   2.437 -0.2535 -0.1316  0.1330
 4568W        W 8619   1.335   0.463  10.060  0.0061 -0.1465  0.0645
 4569W        W 8620   7.615   5.752  11.829 -0.0359 -0.1601 -0.0188
 4570W        W 8621   1.779   0.466  10.405 -0.0860  0.0508  0.0108
 4571W        W 8622   4.922   1.274   2.491 -0.1544  0.4149  0.3583
 4572W        W 8623   0.514   7.661  13.253 -0.2974  0.0094 -0.2908
 4573W        W 8624   0.880   5.275  13.636  0.0930 -0.1827 -0.1460
 4574W        W 8625   0.333   4.415   2.439 -0.3670 -0.1704 -0.0713
 4575W        W 8626   3.849  10.185   4.575  0.0683  0.2870  0.0036
 4576W        W 8627   4.175   8.023   3.263  0.1925 -0.4033  0.2118
 4577W        W 8628  10.057   2.016   3.534  0.2018 -0.1217 -0.1506
 4578W        W 8629   3.789   9.680  10.199 -0.0930  0.0110 -0.0071
 4579W        W 8630   6.599   4.602  12.759 -0.1744 -0.0022 -0.0775
 4580W        W 8631   6.278   8.694  12.705 -0.1652  0.0826 -0.2032
 4581W        W 8632   4.645   2.423   3.024 -0.0384 -0.0358  0.3265
 4582W        W 8633   4.551   8.214   9.445 -0.0178  0.1302 -0.0011
 4583W        W 8634   5.844   0.253   9.345 -0.2044 -0.0488 -0.1745
 4584W        W 8635   6.635   0.381   0.764  0.1123 -0.1948 -0.2662
 4585W        W 8636   0.985   0.293  11.561  0.0851 -0.0683 -0.0306
 4586W        W 8637   8.083   1.906   2.366 -0.0532 -0.3834 -0.0526
 4587W        W 8638   4.080   2.626   3.701 -0.0574  0.1906  0.0628
 4588W        W 8639   8.558   3.838   2.885 -0.1717 -0.0661 -0.2572
 4589W        W 8640   2.226   4.389   0.805 -0.1411  0.1764  0.3419
 4590W        W 8641   9.940   2.499  13.453  0.0381  0.2671 -0.0396
 4591W        W 8642   4.282   8.443   1.388  0.1551 -0.0315  0.0679
 4592W        W 8643   4.084   9.649   1.840  0.0974  0.0222  0.0268
 4593W        W 8644   6.594   8.930   3.617  0.2016  0.1468  0.1064
 4594W        W 8645   3.039   3.386   2.896 -0.0723 -0.2172 -0.0882
 4595W        W 8646   2.938   4.368   0.548  0.3655  0.0299 -0.2518
 4596W        W 8647   4.266   2.194  10.842 -0.1511  0.0920  0.0668
 4597W        W 8648   6.356   5.372  13.909  0.1487  0.3641 -0.3659
 4598W        W 8649   3.730   7.144   2.190 -0.1025  0.0550 -0.0097
 4599W        W 8650   2.684   1.013  11.235  0.0466 -0.0989 -0.1510
 4600W        W 8651   9.068   4.989   3.807  0.2426 -0.2368  0.1759
 4601W        W 8652   0.544   9.648  10.503 -0.1385 -0.1683 -0.2949
 4602W        W 8653   6.040   0.697   3.451  0.2514  0.0438  0.2492
 4603W        W 8654   1.535   6.450  10.463  0.0572  0.0372 -0.1313
 4604W        W 8655   4.985   3.846   1.362  0.1422 -0.3485  0.1377
 4605W        W 8656   0.803   0.129   1.497 -0.0551 -0.3051 -0.1039
 4606W        W 8657   6.987   1.362  11.758 -0.1215  0.1776  0.0764
 4607W        W 8658   3.068   3.916   0.839 -0.2088  0.1771 -0.0574
 4608W        W 8659   9.013   0.893   2.387 -0.1107  0.2219 -0.0584
 4609W        W 8660   7.132   7.420   2.953 -0.0891 -0.0306 -0.2874
 4610W        W 8661   3.295   0.655   3.075 -0.1831 -0.0338 -0.0457
 4611W        W 8662   7.874   6.383   0.188  0.0271 -0.3971  0.4006
 4612W        W 8663   4.811   2.555  12.500 -0.3879 -0.1993 -0.0977
 4613W        W 8664   5.132  10.197   2.063 -0.1798 -0.1135  0.1201
 4614W        W 8665   2.147   9.984   9.981  0.4809  0.0283 -0.0794
 4615W        W 8666   8.068   2.552  10.428 -0.1220 -0.1627 -0.1430
 4616W        W 8667   7.148   8.441   0.624 -0.0331 -0.0019 -0.1841
 4617W        W 8668   5.692   7.974  10.644 -0.2572  0.2130 -0.0766
 4618W        W 8669   4.395   0.603   4.443 -0.0348  0.2593  0.1427
 4619W        W 8670   3.459   2.738  11.670 -0.1687  0.2835  0.0081
 4620W        W 8671   6.887   2.765   3.049 -0.2069 -0.0435 -0.1313
 4621W        W 8672   6.571   0.833  13.881 -0.1146  0.0218 -0.2654
 4622W        W 8673   0.548   6.213   4.736  0.0549 -0.0233 -0.1489
 4623W        W 8674   1.577   6.195  13.340  0.4660  0.2861 -0.2001
 4624W        W 8675   0.337   3.954   3.454  0.1061 -0.0218 -0.2374
 4625W        W 8676   1.414   3.827  10.815  0.3366  0.0354 -0.1531
 4626W        W 8677   7.418   6.621   2.430  0.1189 -0.0132  0.0147
 4627W        W 8678   0.387   0.011   4.928  0.0095  0.3190 -0.0680
 4628W        W 8679   2.295   9.103  11.727 -0.2689  0.2376 -0.0108
 4629W        W 8680   2.873   5.898   0.429 -0.2945  0.0289  0.0487
 4630W        W 8681   0.328   1.117   9.727 -0.1156  0.3180 -0.3147
 4631W        W 8682   1.823   0.907   2.637  0.2227 -0.0682 -0.2601
 4632W        W 8683   5.655   4.191  13.914 -0.0711 -0.1494  0.1996
 4633W        W 8684   1.889   2.504  10.327  0.3233  0.2668 -0.4779
 4634W        W 8685   9.555   8.701  12.235 -0.0818  0.0930 -0.1878
 4635W        W 8686   3.043   9.373  11.199  0.1093  0.2808  0.3017
 4636W        W 8687   6.127   5.111   1.258 -0.1426  0.1843  0.2098
 4637W        W 8688  10.064   0.856   0.728  0.2608  0.0903  0.0689
 4638W        W 8689   8.578   2.679   1.006  0.0432 -0.0525  0.3392
 4639W        W 8690   0.166   8.911   3.334 -0.5287  0.1020  0.0299
 4640W        W 8691   2.500   5.587   0.249 -0.2161 -0.0112 -0.0009
 4641W        W 8692   0.771   3.898   1.770 -0.0146 -0.0152  0.1775
 4642W        W 8693   4.367   4.311   0.543  0.4958 -0.0179  0.0906
 4643W        W 8694   8.112   7.520  11.785  0.0335 -0.0201 -0.1820
 4644W        W 8695   3.625   1.001  13.234  0.1869 -0.1615 -0.0712
 4645W        W 8696   8.977   7.200   1.730 -0.0777  0.3763 -0.0199
 4646W        W 8697   1.650   3.460  10.470 -0.0590  0.2073  0.2231
 4647W        W 8698   2.173   8.200  10.269  0.0084  0.0552 -0.2209
 4648W        W 8699   4.768   1.647   3.009 -0.0243 -0.1564 -0.1728
 4649W        W 8700   7.458   9.413  11.290  0.0542 -0.0601  0.0248
 4650W        W 8701   4.172   5.063   4.201  0.0593  0.4171  0.2861
 4651W        W 8702   7.769   1.504   2.523  0.1106  0.1830  0.1397
 4652W        W 8703   5.723   7.016  12.385  0.4086  0.0782 -0.2490
 4653W        W 8704   3.332   5.652  13.737 -0.2392 -0.2538 -0.0336
 4654W        W 8705   9.201   0.415  12.591 -0.1861  0.2539 -0.5859
 4655W        W 8706   9.682   9.583  12.317 -0.0641  0.0590 -0.2652
 4656W        W 8707   3.309   8.441   0.024  0.0991 -0.1452 -0.0609
 4657W        W 8708   1.792   9.054  10.743 -0.0641  0.0192  0.4405
 4658W        W 8709   2.838   6.846  11.470  0.0829  0.0716 -0.0919
 4659W        W 8710   7.193   9.449  10.846  0.0039  0.2206 -0.0901
 4660W        W 8711   9.239   9.685   3.620 -0.1342 -0.0363  0.0309
 4661W        W 8712   3.454   9.298   2.565  0.1041 -0.0038  0.2708
 4662W        W 8713   9.744   1.513   2.130  0.3060  0.2460 -0.2861
 4663W        W 8714   4.013   7.355  11.689 -0.1794 -0.0056  0.0681
 4664W        W 8715   3.298   6.645  10.726  0.3600 -0.4867 -0.1575
 4665W        W 8716   6.704   6.863  10.706 -0.0162 -0.0463  0.0884
 4666W        W 8717   8.751   3.481  13.791 -0.3019 -0.1384 -0.1691
 4667W        W 8718   9.517   4.896  11.126  0.1235  0.1242  0.1102
 4668W        W 8719   7.694   7.855   2.433  0.0845 -0.2400  0.1061
 4669W        W 8720   5.544   4.009   2.386 -0.0890  0.0192  0.0683
 4670W        W 8721   3.587   6.035  11.372 -0.5388  0.0984  0.1501
 4671W        W 8722   9.505   8.572  13.691  0.2781 -0.1277  0.1348
 4672W        W 8723   2.154   1.178  13.186  0.0863 -0.0721 -0.0676
 4673W        W 8724   0.410   9.907  11.354 -0.0243 -0.0378 -0.0833
 4674W        W 8725   4.196   3.999   0.155  0.4350 -0.1733 -0.2171
 4675W        W 8726   8.013   3.987  13.501 -0.0731  0.5209 -0.3429
 4676W        W 8727   4.919   5.540   1.059  0.1286 -0.2258 -0.0174
 4677W        W 8728   5.339   8.652   1.927  0.0999 -0.1830  0.2659
 4678W        W 8729   2.220   9.808   4.392  0.0427  0.3046 -0.0172
 4679W        W 8730   0.850   5.022   2.938 -0.0984 -0.3423 -0.2421
 4680W        W 8731   2.886   1.594   3.680  0.2097  0.0768  0.2286
 4681W        W 8732   4.851   9.297   0.726 -0.1278 -0.2956  0.2820
 4682W        W 8733   2.360   6.312   0.956 -0.3451  0.1510  0.1232
 4683W        W 8734   5.390   4.521   3.674 -0.0620 -0.0019 -0.0217
 4684W        W 8735   4.208   7.895   4.685 -0.2771 -0.2892  0.0636
 4685W        W 8736   4.584   2.988   2.384 -0.1434  0.1133 -0.1469
 4686W        W 8737   8.597   5.874  13.914  0.0280 -0.0928 -0.0967
 4687W        W 8738   8.986   8.012  11.853 -0.0869 -0.1386  0.2371
 4688W        W 8739   9.864   0.942   3.375 -0.1517 -0.0897  0.0868
 4689W        W 8740   5.651   2.352   2.950  0.1800  0.0432 -0.0558
 4690W        W 8741   2.579   3.257   9.664  0.0978 -0.0544  0.1019
 4691W        W 8742   5.729   0.157   4.037 -0.4597 -0.0321  0.1553
 4692W        W 8743   9.912  10.151   4.859  0.2347 -0.1384 -0.1378
 4693W        W 8744   1.873   5.356   3.832 -0.1575  0.0666  0.0161
 4694W        W 8745   5.244   9.542   2.962 -0.1940  0.1271 -0.1277
 4695W        W 8746   1.059   1.183   2.089 -0.1040  0.3357 -0.5078
 4696W        W 8747   8.875   7.862  12.849  0.1943 -0.1048 -0.1887
 4697W        W 8748   5.536   3.186   4.284 -0.1709 -0.0285 -0.1878
 4698W        W 8749   2.198   8.604   2.516 -0.2309  0.1572 -0.3563
 4699W        W 8750   8.585   0.621   3.140 -0.3281  0.0878  0.0494
 4700W        W 8751   5.845   6.876  13.087 -0.0325 -0.1205 -0.2021
 4701W        W 8752   9.796   6.876   1.094  0.1889  0.0358  0.0768
 4702W        W 8753   6.283   7.507   5.030  0.2001  0.1884  0.0832
 4703W        W 8754   4.967   4.352   9.896  0.1901 -0.2522  0.1236
 4704W        W 8755   5.689   7.521  12.661 -0.2029 -0.1716  0.2377
 4705W        W 8756   2.529   6.788   2.528  0.0606  0.1187  0.1182
 4706W        W 8757   9.500   3.871   2.682 -0.2067  0.2736  0.2126
 4707W        W 8758   6.343   8.515   4.102 -0.1231  0.1287  0.2166
 4708W        W 8759   9.788   3.642  12.730 -0.0133  0.3106  0.0299
 4709W        W 8760   0.225   5.152  10.565 -0.1593  0.0069 -0.0330
 4710W        W 8761   0.838   2.610   0.817  0.0041 -0.1374  0.1861
 4711W        W 8762   4.505   4.454   1.112 -0.0865 -0.0212  0.3077
 4712W        W 8763   4.820   6.624   1.174  0.0934 -0.0272  0.0952
 4713W        W 8764   6.109   9.025   0.693  0.1375  0.1522 -0.1517
 4714W        W 8765   2.052   6.633   0.795 -0.1632  0.0196  0.1776
 4715W        W 8766   6.055   4.282  12.602 -0.1706  0.1652  0.0744
 4716W        W 8767   7.079   1.089   4.098  0.0337  0.0234  0.0180
 4717W        W 8768   5.015   0.946   8.532  0.1076 -0.3062 -0.1825
 4718W        W 8769   7.074   0.104  12.132 -0.1582 -0.2110 -0.0163
 4719W        W 8770   0.790   7.833   4.767 -0.1505 -0.1245 -0.1485
 4720W        W 8771   4.628   3.805   2.302  0.0602 -0.2175 -0.0319
 4721W        W 8772   3.516   9.129   0.193 -0.1930 -0.1667 -0.2338
 4722W        W 8773   8.305   9.333  13.877 -0.0398  0.1325 -0.1725
 4723W        W 8774   3.119   5.697   0.896  0.1947  0.4281  0.1556
 4724W        W 8775   7.992   2.991   3.455 -0.0814 -0.0572 -0.1126
 4725W        W 8776   5.156   1.165   3.575 -0.0357  0.2686  0.0292
 4726W        W 8777   2.993   7.721  12.932 -0.0377 -0.2490  0.3426
 4727W        W 8778   2.271   9.769  12.084 -0.1729  0.2295 -0.1337
 4728W        W 8779   2.043   6.349   1.849 -0.1045 -0.0466 -0.0649
 4729W        W 8780   5.843   6.642   4.655  0.1651 -0.1865 -0.3412
 4730W        W 8781   3.083   4.384   1.555 -0.0921 -0.0689  0.1402
 4731W        W 8782   5.218   9.246   0.372  0.0905  0.1801 -0.0258
 4732W        W 8783   6.063   3.653   0.033  0.0903  0.0581 -0.1723
 4733W        W 8784   2.988   0.035  11.162 -0.0006 -0.1429 -0.0166
 4734W        W 8785   1.375   1.608   9.055  0.1502  0.1602  0.2320
 4735W        W 8786   0.489   6.972   0.750  0.1319 -0.1189  0.2163
 4736W        W 8787   6.858   6.263  11.585  0.2313  0.1246  0.3003
 4737W        W 8788   3.351   0.660   4.258 -0.1162  0.0950  0.0161
 4738W        W 8789   0.620   8.767   2.539 -0.0741 -0.0702 -0.1246
 4739W        W 8790   4.067   6.725   0.505  0.0201  0.0452  0.0550
 4740W        W 8791   6.116   2.342   0.995 -0.3023 -0.0638 -0.0576
 4741W        W 8792   0.964   6.746   0.845  0.0080 -0.2692 -0.4379
 4742W        W 8793   2.881   9.644   4.145 -0.2794  0.0875 -0.5167
 4743W        W 8794   6.457   9.794  11.851 -0.0206  0.2855 -0.1186
 4744W        W 8795   4.146   5.775  10.790 -0.0463  0.0959  0.0410
 4745W        W 8796   6.495   0.692   9.561  0.0396  0.0385 -0.3545
 4746W        W 8797   8.185   7.526  12.576  0.1601 -0.0601  0.1650
 4747W        W 8798   1.922   6.243   2.361  0.2111  0.1696  0.1658
 4748W        W 8799   9.083   4.285   2.671 -0.0881 -0.4689  0.3272
 4749W        W 8800   2.328   9.542   1.887 -0.1477  0.0515  0.2719
 4750W        W 8801   1.276   3.876   3.774 -0.1803 -0.1149  0.0070
 4751W        W 8802   1.993   8.167   2.243 -0.2560  0.3723  0.0156
 4752W        W 8803   8.765   2.743   3.534  0.0296 -0.1195 -0.0849
 4753W        W 8804   4.339   5.066  11.619 -0.1198  0.2918 -0.1789
 4754W        W 8805   7.973   3.961   9.556 -0.2038 -0.0012 -0.0660
 4755W        W 8806   9.479   6.306   0.490 -0.1875  0.2074 -0.4186
 4756W        W 8807   7.274   2.027   3.743 -0.4848  0.3231  0.0607
 4757W        W 8808   2.658   8.803  12.902 -0.2095 -0.2530  0.2208
 4758W        W 8809   7.020   3.738  12.896 -0.0792 -0.0369 -0.4171
 4759W        W 8810   8.820   1.763   1.578 -0.0929  0.1367  0.4540
 4760W        W 8811   2.499   0.166   4.211  0.1011  0.0275 -0.1795
 4761W        W 8812   8.677   6.742  10.325  0.1658 -0.3709  0.0496
 4762W        W 8813   2.327   9.821   3.496  0.5986 -0.0185  0.2143
 4763W        W 8814   8.787   1.331  10.674  0.1350 -0.1519  0.0958
 4764W        W 8815   1.648   0.153  13.161  0.1814  0.1970 -0.0123
 4765W        W 8816   2.809   0.101   0.592 -0.1664  0.1773  0.0065
 4766W        W 8817   3.233   6.821   3.434 -0.1439  0.1037 -0.0440
 4767W        W 8818   4.116   1.160  12.567 -0.2590  0.0869 -0.2540
 4768W        W 8819   7.555   3.637  11.803  0.0318  0.1115  0.3266
 4769W        W 8820   0.619   5.099   2.116  0.2319  0.0768  0.2849
 4770W        W 8821   2.784   3.983  11.340  0.1049 -0.1322  0.0963
 4771W        W 8822   3.447   6.968   0.671  0.0190 -0.3186  0.1289
 4772W        W 8823   2.604   6.872   4.498  0.0872  0.2891 -0.0057
 4773W        W 8824   1.269   5.414   9.533 -0.4140 -0.0947  0.0161
 4774W        W 8825   4.470   9.101   0.319  0.0391  0.0683 -0.2381
 4775W        W 8826   5.953   8.667   9.515  0.0926 -0.1109  0.2144
 4776W        W 8827   2.767   0.832   9.907  0.0110 -0.0808  0.1648
 4777W        W 8828   9.275   6.312   9.714 -0.3236  0.1649  0.0783
 4778W        W 8829   8.176   0.788   2.872 -0.1031 -0.1762  0.1215
 4779W        W 8830   4.285  10.009  13.925  0.2374  0.1786 -0.0437
 4780W        W 8831   7.036   1.665   2.301  0.0052  0.0352 -0.1743
 4781W        W 8832   4.586   4.356   3.728 -0.1986 -0.2260 -0.4822
 4782W        W 8833   0.514   1.521   9.910  0.3245  0.1325  0.0928
 4783W        W 8834   0.985   9.115   5.463  0.0005 -0.0241  0.1902
 4784W        W 8835   5.278   2.306  12.495 -0.3027  0.0708  0.4370
 4785W        W 8836   4.168   6.732   3.386  0.4479  0.0559  0.0763
 4786W        W 8837   6.169   2.573  10.105 -0.0683  0.0280  0.1785
 4787W        W 8838   8.022   7.024   4.314  0.1059 -0.1932  0.0939
 4788W        W 8839   5.090   9.258  13.403  0.0846  0.0857  0.2665
 4789W        W 8840   8.099   7.844   3.617  0.1701 -0.1813 -0.1071
 4790W        W 8841   7.619   7.438  11.778  0.0562 -0.0373 -0.1164
 4791W        W 8842   1.183   9.148  11.789 -0.1279  0.0610 -0.0309
 4792W        W 8843   1.009   8.281  13.779 -0.2517 -0.0025 -0.0863
 4793W        W 8844   5.327   2.628   0.080  0.1451  0.0984  0.0001
 4794W        W 8845   9.284   8.294  12.267 -0.2233  0.2478  0.2827
 4795W        W 8846   5.386   3.809   3.051 -0.1065  0.0521 -0.0523
 4796W        W 8847   5.890   9.896   3.779  0.0888 -0.1204  0.1384
 4797W        W 8848   6.391   2.266   4.051  0.1540  0.0370  0.0084
 4798W        W 8849   1.608   4.497  13.507 -0.0419 -0.0512 -0.0531
 4799W        W 8850   6.158   3.351  12.170  0.2575 -0.0156 -0.2474
 4800W        W 8851   9.935   9.335   1.058 -0.2284 -0.2921  0.0574
 4801W        W 8852   4.070   9.976  12.013  0.1418 -0.0184 -0.1246
 4802W        W 8853   2.791   3.650  12.387 -0.4092 -0.1538 -0.1633
 4803W        W 8854   3.911   7.449  11.195  0.1193  0.1542 -0.1550
 4804W        W 8855   7.539   6.161   4.152 -0.0101  0.0712  0.2652
 4805W        W 8856   1.124   8.971   0.339  0.1070  0.2031 -0.1412
 4806W        W 8857   3.215   6.433  11.471  0.0108 -0.1461  0.0305
 4807W        W 8858   9.591   0.903   9.986 -0.0163  0.3856 -0.3480
 4808W        W 8859   0.488   0.511  10.375 -0.2655 -0.4000  0.1221
 4809W        W 8860   6.241   6.630  13.925 -0.1259 -0.0875  0.0808
 4810W        W 8861   1.517   7.842   3.080  0.0105 -0.3614  0.0234
 4811W        W 8862   7.755   4.533  10.339  0.1358 -0.2235 -0.1352
 4812W        W 8863  10.035   8.473   0.941  0.0386 -0.0729 -0.0880
 4813W        W 8864   4.326   5.350   4.538 -0.3810 -0.2452  0.1028
 4814W        W 8865   2.945   9.752  11.411  0.1072 -0.2250 -0.1590
 4815W        W 8866   1.790   8.856   1.031  0.0582  0.1646 -0.1130
 4816W        W 8867   0.033   4.795   4.228 -0.3235  0.0919  0.0551
 4817W        W 8868   6.347   5.359   4.508 -0.1354 -0.0685 -0.0114
 4818W        W 8869   4.306   9.937  10.482 -0.2096 -0.3481 -0.1016
 4819W        W 8870   3.736   8.687  11.083 -0.1840  0.2384 -0.3325
 4820W        W 8871   8.428   4.419   2.762 -0.0922 -0.3989  0.1111
 4821W        W 8872   7.737   4.010   0.079 -0.1587  0.1013  0.0598
 4822W        W 8873   8.936   7.394   1.270  0.2321 -0.2327 -0.0430
 4823W        W 8874   3.613   4.858  12.391  0.0243  0.4207 -0.0499
 4824W        W 8875   5.518   2.838   2.813 -0.1006 -0.1970 -0.1027
 4825W        W 8876   4.829   2.542   3.500  0.1610 -0.2921 -0.1146
 4826W        W 8877   7.621   3.763   9.861 -0.1193 -0.3387  0.1829
 4827W        W 8878   8.715   1.527   9.620 -0.1362  0.1802 -0.1233
 4828W        W 8879   3.057   6.388  10.167  0.0561 -0.0934  0.1369
 4829W        W 8880   6.653   8.850   4.097  0.0448 -0.3045  0.2227
 4830W        W 8881   7.077   7.845  13.385  0.1884  0.0295  0.4208
 4831W        W 8882   6.309   5.254  11.066  0.1441 -0.0104 -0.1051
 4832W        W 8883   5.590   4.980   4.477  0.2227  0.0491 -0.0298
 4833W        W 8884   9.700   2.344   4.117  0.0392  0.0884 -0.2243
 4834W        W 8885   6.393   0.505  11.860 -0.1125  0.0920 -0.1051
 4835W        W 8886  10.084   8.566  12.936 -0.2088  0.0024  0.3010
 4836W        W 8887   4.637   9.969   9.376  0.0222  0.0655 -0.1812
 4837W        W 8888   1.686   4.007   2.847  0.2705  0.1986  0.0591
 4838W        W 8889   7.128   5.320   3.397  0.0986  0.1342  0.0624
 4839W        W 8890   0.602  10.068   0.626  0.1486 -0.0142 -0.1781
 4840W        W 8891   0.308   6.273   3.862 -0.1565 -0.3120 -0.1748
 4841W        W 8892   9.881   1.514   3.381 -0.2566 -0.2337  0.1046
 4842W        W 8893   2.956   2.333   2.147 -0.3026 -0.1111  0.2459
 4843W        W 8894   7.889   5.267  11.126  0.0818  0.1534  0.3159
 4844W        W 8895   5.014   7.833  10.151 -0.0854 -0.1006 -0.2307
 4845W        W 8896   3.817   1.945  10.851  0.2311  0.1448  0.0176
 4846W        W 8897   2.221   0.632   9.796  0.1425  0.1807  0.0096
 4847W        W 8898   0.509   4.076  11.007  0.1555  0.0556 -0.0343
 4848W        W 8899   2.073   7.046   2.676 -0.0810 -0.0937  0.0724
 4849W        W 8900   0.262   7.381  10.795 -0.1483 -0.0406  0.0236
 4850W        W 8901   8.756   7.771   4.297  0.0712 -0.2661 -0.2957
 4851W        W 8902   8.943   6.782   9.680 -0.1448  0.4030  0.0469
 4852W        W 8903   1.542   9.099   9.083 -0.0423 -0.4193 -0.1424
 4853W        W 8904   5.650   9.336  12.340 -0.0113  0.0658  0.0051
 4854W        W 8905   7.530   0.205   0.581  0.4080  0.2062 -0.2635
 4855W        W 8906   9.379   2.117   0.851  0.0072 -0.0722  0.1183
 4856W        W 8907   6.122   8.268   0.828  0.2566 -0.0497  0.2073
 4857W        W 8908   8.991   5.744  10.854  0.0758  0.4580  0.3400
 4858W        W 8909   9.494   2.597   2.068 -0.0549 -0.4250  0.3590
 4859W        W 8910   4.987   6.472   0.285 -0.2511  0.1634  0.1525
 4860W        W 8911  10.092   9.386  13.826 -0.1531  0.4255  0.0722
 4861W        W 8912   7.308   1.572  10.930 -0.2703  0.2160  0.3664
 4862W        W 8913   7.776   1.946  12.778  0.1294 -0.2449 -0.0318
 4863W        W 8914   8.933   8.637   0.457 -0.1254 -0.1440 -0.0727
 4864W        W 8915   6.141   2.399  11.997  0.2622  0.0184 -0.1650
 4865W        W 8916   0.467   3.360   2.652 -0.0453 -0.0337  0.0869
 4866W        W 8917   4.389   9.825  11.044  0.1855 -0.1160  0.1535
 4867W        W 8918   0.803   1.039  13.056 -0.1345 -0.0055  0.0989
 4868W        W 8919   9.564   7.936   2.613 -0.0746 -0.0164  0.0551
 4869W        W 8920   9.005  10.099   3.255 -0.2851 -0.2420  0.0375
 4870W        W 8921   0.005   5.159   0.742  0.3154  0.0377 -0.0254
 4871W        W 8922   2.588   3.660   2.818 -0.0850  0.0657  0.1371
 4872W        W 8923   2.220   9.149   8.638  0.0116 -0.1427 -0.1525
 4873W        W 8924   7.436   3.599   1.459  0.2859 -0.1089 -0.3614
 4874W        W 8925   5.082   7.501   1.712 -0.0265 -0.2102 -0.1173
 4875W        W 8926   4.377   5.295   2.378  0.2474  0.2010 -0.2329
 4876W        W 8927   5.875   8.687  10.645  0.0907 -0.0964  0.2146
 4877W        W 8928   2.479   3.386  10.796  0.1800 -0.1068 -0.1365
 4878W        W 8929   7.006   9.680   2.412 -0.0234 -0.2485  0.0471
 4879W        W 8930   7.568   2.515   2.410  0.0794 -0.3300  0.2326
 4880W        W 8931   4.913   3.446   9.988  0.1293 -0.0401  0.1879
 4881W        W 8932   0.414  10.105   9.526 -0.1223  0.0409 -0.0684
 4882W        W 8933   5.617   0.407   8.725  0.0988  0.1267  0.1662
 4883W        W 8934   3.466   9.419  12.472  0.0900  0.1650  0.3312
 4884W        W 8935   5.917   4.234   0.498 -0.0226 -0.0023 -0.2066
 4885W        W 8936   1.215   0.392  13.315  0.5340  0.3496 -0.2108
 4886W        W 8937   8.600   3.122   2.165 -0.1491  0.1478 -0.0270
 4887W        W 8938   7.359   2.893  11.613 -0.4328  0.0940  0.2744
 4888W        W 8939   1.297   7.757  13.861  0.2690  0.2559  0.3554
 4889W        W 8940   5.432   0.522   2.717 -0.0302  0.0099 -0.1337
 4890W        W 8941   6.695   2.721   3.952 -0.1744  0.5514  0.0589
 4891W        W 8942   6.390   0.136   0.401 -0.1201  0.1671  0.1394
 4892W        W 8943   3.840   7.476  13.788  0.3213  0.0207 -0.0085
 4893W        W 8944   7.812   3.103   9.906  0.2125  0.1813 -0.3923
 4894W        W 8945   3.919   2.617   9.311  0.0260  0.1976 -0.0719
 4895W        W 8946   5.430   8.425   9.587 -0.0917  0.3476 -0.0995
 4896W        W 8947   5.454   7.301   0.073 -0.3825  0.2109  0.0774
 4897W        W 8948   8.372   3.449   2.601  0.4029 -0.0730  0.0822
 4898W        W 8949   7.454   7.967   4.554  0.0590 -0.0379 -0.1319
 4899W        W 8950   8.114   3.147   2.885  0.0584  0.2775 -0.0550
 4900W        W 8951   1.020   2.595  11.898  0.0630  0.3532 -0.0343
 4901W        W 8952   1.694   1.914  12.766 -0.1875 -0.0414 -0.1232
 4902W        W 8953   2.812   6.928   1.496 -0.0229  0.1902  0.1110
 4903W        W 8954   4.256   0.741  12.359 -0.1204  0.0589  0.0537
 4904W        W 8955   1.766  10.099   1.606  0.0504 -0.0911 -0.1225
 4905W        W 8956   8.955   8.374   5.337  0.0879  0.0109  0.0820
 4906W        W 8957   5.282   0.200   0.915  0.0344 -0.1435 -0.0481
 4907W        W 8958   1.347   1.876   4.739 -0.2160 -0.2399  0.0345
 4908W        W 8959   4.797   0.162  12.789  0.2343 -0.0839 -0.0453
 4909W        W 8960   9.847   0.544  11.833  0.0522  0.1460  0.2466
 4910W        W 8961   0.937   0.687   1.396 -0.0610  0.0690  0.1073
 4911W        W 8962   9.876   8.418  13.374 -0.0229 -0.1505 -0.0868
 4912W        W 8963   5.496   0.560   4.184  0.3968  0.0925  0.2127
 4913W        W 8964   5.135   6.392  10.013  0.3362 -0.4184  0.1456
 4914W        W 8965   8.095   4.520  10.896  0.0464  0.2560  0.1288
 4915W        W 8966   1.210   0.538  11.969 -0.0601  0.0158 -0.0484
 4916W        W 8967   8.938   9.115   4.930  0.0962 -0.0449  0.1746
 4917W        W 8968   4.916   0.308   1.216  0.0827 -0.2357  0.2032
 4918W        W 8969   1.192   8.864   3.864  0.1442 -0.2494 -0.0417
 4919W        W 8970   4.076   0.994  13.459  0.2015 -0.0488  0.0312
 4920W        W 8971   6.223   3.375   2.964  0.0883 -0.2022 -0.0804
 4921W        W 8972   2.600   7.393  13.582 -0.0672 -0.1052  0.4985
 4922W        W 8973   8.159   7.961   2.574  0.1329 -0.3613 -0.1483
 4923W        W 8974   1.610   5.513   3.114 -0.0281 -0.2835 -0.0703
 4924W        W 8975   9.840   7.103  12.097  0.2286  0.0595 -0.0601
 4925W        W 8976   1.498   5.312   2.664  0.2636  0.0036 -0.0845
 4926W        W 8977   1.196   2.344  10.946  0.2059 -0.3161  0.1811
 4927W        W 8978   7.939   4.423   4.316 -0.3111 -0.0277  0.1240
 4928W        W 8979   8.844   9.516   5.265 -0.0004 -0.2302 -0.2011
 4929W        W 8980   8.729   2.209  12.622  0.3702 -0.3545  0.2663
 4930W        W 8981   0.771   8.549  10.141  0.3625  0.1503  0.4759
 4931W        W 8982   9.726   6.871  11.436  0.0101 -0.1242  0.1836
 4932W        W 8983   3.555   1.536   3.103  0.2396 -0.2074  0.0510
 4933W        W 8984   5.671   3.039   3.802 -0.2267 -0.5645 -0.0026
 4934W        W 8985   1.596   6.942  11.253 -0.0759 -0.2335 -0.1461
 4935W        W 8986   5.502   4.208  10.436  0.0433 -0.0362 -0.1314
 4936W        W 8987   0.668   6.123  10.493 -0.0568 -0.0662  0.0313
 4937W        W 8988   5.878   0.125  10.804 -0.0624  0.3569  0.1164
 4938W        W 8989   1.959   7.872   1.721  0.2713 -0.0608 -0.0694
 4939W        W 8990   6.444   0.458   2.243  0.0605 -0.0675  0.2645
 4940W        W 8991   7.845   9.619  12.356  0.3698  0.0077 -0.0124
 4941W        W 8992   3.892   1.389  11.786 -0.0653  0.1780  0.0902
 4942W        W 8993   1.098   7.976  12.258 -0.4071 -0.0326  0.1734
 4943W        W 8994  10.186   4.456   0.276  0.1129 -0.3556  0.1935
 4944W        W 8995   7.511   4.979  10.446  0.1519 -0.2593 -0.0739
 4945W        W 8996   3.973   0.296  12.654 -0.4402 -0.2850 -0.0383
 4946W        W 8997   2.955   3.075   3.354  0.1508  0.1682  0.1096
 4947W        W 8998   8.424   0.684  11.200  0.1024 -0.2526 -0.0514
 4948W        W 8999   6.772   3.538   3.839  0.2088 -0.0837  0.2681
 4949W        W 9000   8.855   5.910   9.482 -0.0872  0.0271 -0.1099
 4950W        W 9001   3.065   1.333   4.221  0.1068 -0.1021  0.0859
 4951W        W 9002   7.162   4.702   9.518  0.1950  0.0002  0.1741
 4952W        W 9003   5.419   0.813   1.920  0.3084 -0.0198  0.0955
 4953W        W 9004   8.830   3.335   4.714  0.1838 -0.3484 -0.1898
 4954W        W 9005   6.247   0.045  12.654  0.1300  0.0025  0.1083
 4955W        W 9006   1.054   5.213   1.884 -0.0815 -0.2484 -0.2264
 4956W        W 9007   9.194   1.280  13.526 -0.1714 -0.0069 -0.4861
 4957W        W 9008  10.166   0.287   1.808  0.1580  0.1469  0.0219
 4958W        W 9009   7.531   7.988  13.084 -0.2035  0.6309 -0.1510
 4959W        W 9010   0.785   9.186  10.515 -0.1007 -0.0841 -0.1865
 4960W        W 9011   4.882   9.435  12.866 -0.3050 -0.1135 -0.3790
 4961W        W 9012  10.188   6.439   3.482 -0.0474 -0.1373 -0.0287
 4962W        W 9013   1.555   3.778   4.158 -0.1089 -0.2063  0.0025
 4963W        W 9014   7.113   3.097   3.942  0.1556 -0.2061  0.0240
 4964W        W 9015   2.326   8.253  11.270  0.0658 -0.2025 -0.2134
 4965W        W 9016   6.456   4.413   0.526  0.2292  0.1285 -0.2526
 4966W        W 9017   0.179   2.973  11.103  0.0920  0.1100  0.0643
 4967W        W 9018   2.522   0.185   9.377 -0.0435 -0.0842 -0.2299
 4968W        W 9019   5.465   9.439  13.044 -0.1454  0.0453  0.1517
 4969W        W 9020   5.921   0.958  12.907  0.5072  0.0058  0.3703
 4970W        W 9021   4.605   2.068   1.516 -0.0251 -0.1500  0.1741
 4971W        W 9022   1.224   5.611  13.603 -0.1062 -0.0193 -0.0703
 4972W        W 9023   8.695   3.282  10.127 -0.1802  0.3535  0.2866
 4973W        W 9024   5.421   5.065   2.549 -0.0283 -0.1785  0.2411
 4974W        W 9025   4.339   2.909  10.223 -0.0208  0.3706 -0.1694
 4975W        W 9026   8.211   5.966  11.351  0.1376 -0.0204  0.1306
 4976W        W 9027   0.342   4.554  11.123  0.0885 -0.2354  0.0778
 4977W        W 9028   4.008   6.741  12.889 -0.0762  0.2969 -0.0187
 4978W        W 9029   5.009   6.453   1.889  0.0459  0.1788  0.1025
 4979W        W 9030   3.780   0.976   3.717  0.2756  0.2194 -0.1126
 4980W        W 9031   1.756   5.262  12.869 -0.0810  0.2254  0.1575
 4981W        W 9032   6.509   0.721   5.506 -0.3571 -0.0491 -0.5076
 4982W        W 9033   9.879   2.948   1.108  0.0116 -0.2255  0.1672
 4983W        W 9034   5.274   4.373   9.434 -0.1550  0.1938  0.0053
 4984W        W 9035   9.684   4.170   4.540 -0.1071  0.3228  0.0390
 4985W        W 9036   7.790   1.233   4.499  0.0502 -0.1550 -0.0675
 4986W        W 9037   8.209   7.086   1.461  0.1445  0.0745  0.1547
 4987W        W 9038   7.285   4.604  13.499 -0.0804 -0.2178  0.1074
 4988W        W 9039   2.694   8.188  13.559 -0.0166  0.0359 -0.0772
 4989W        W 9040   1.419   8.912   9.667 -0.2182  0.0245 -0.1064
 4990W        W 9041   0.256   2.682   2.912 -0.0720 -0.2314 -0.1569
 4991W        W 9042   2.493   2.489  13.093  0.2207  0.2082  0.1938
 4992W        W 9043   6.525   1.106  11.618 -0.2457  0.0100  0.1823
 4993W        W 9044   8.299   7.000  12.650 -0.1210 -0.0892 -0.2662
 4994W        W 9045   7.962   9.502  11.888 -0.1035 -0.0886  0.1846
 4995W        W 9046   5.680   5.695   5.617 -0.1587 -0.1584 -0.2374
 4996W        W 9047   0.344   8.937   1.748  0.1212  0.0042 -0.0737
 4997W        W 9048   7.175   2.150  12.171 -0.0091  0.2594  0.1507
 4998W        W 9049   8.898   7.157   8.708 -0.0666 -0.0758 -0.0175
 4999W        W 9050   7.021   0.505   1.428 -0.0206  0.0560 -0.1522
 5000W        W 9051   3.104   5.852  10.471 -0.2258  0.2125 -0.0626
 5001W        W 9052   0.335   6.636   1.280  0.2363 -0.1031  0.0249
 5002W        W 9053   0.171   3.582  13.846  0.0651  0.0155 -0.1148
 5003W        W 9054   3.398   3.802  13.735  0.0348 -0.2269  0.1969
 5004W        W 9055   8.669   7.836   2.423 -0.1607 -0.2694 -0.1023
 5005W        W 9056   3.374  10.025   4.453  0.1497 -0.0542 -0.0626
 5006W        W 9057   5.704   1.827   3.258  0.2087  0.4195 -0.3054
 5007W        W 9058   8.971   4.172  12.552 -0.0844  0.2203 -0.2004
 5008W        W 9059   7.304   2.696   1.374 -0.0750 -0.1131 -0.0167
 5009W        W 9060   5.740   5.334  11.436 -0.1138 -0.2002  0.0048
 5010W        W 9061   5.943   6.687   1.956  0.0145 -0.0528 -0.0848
 5011W        W 9062   8.028   2.551   9.269  0.3664 -0.0072 -0.1683
 5012W        W 9063   0.485   5.652  10.502 -0.0818 -0.2927  0.0560
 5013W        W 9064   6.423   0.110  10.755  0.1360 -0.0584 -0.2305
 5014W        W 9065   7.332   9.333   2.059  0.0054 -0.3545 -0.0758
 5015W        W 9066   3.839   2.771   3.315 -0.1413  0.2398 -0.0307
 5016W        W 9067   5.034   0.901   0.019 -0.2052 -0.0005  0.0476
 5017W        W 9068  10.143   9.795   0.284  0.0626  0.0183  0.0909
 5018W        W 9069   4.677   3.494   1.628 -0.3272  0.1938  0.0498
 5019W        W 9070   5.225   1.726   9.944 -0.1289 -0.0263  0.2504
 5020W        W 9071   2.313   9.308   9.411  0.3520 -0.0895  0.0862
 5021W        W 9072   1.972   1.639   2.135  0.0016 -0.2378  0.0026
 5022W        W 9073   0.665   4.372   3.494  0.0468  0.0557 -0.3658
 5023W        W 9074   3.723   3.453   0.439  0.1259 -0.2172  0.0939
 5024W        W 9075   5.963   7.362  13.015 -0.2774 -0.3116 -0.1118
 5025W        W 9076   3.244   2.775  13.676  0.2615  0.3296 -0.1932
 5026W        W 9077   6.755   0.334   1.831 -0.2509 -0.2251  0.0936
 5027W        W 9078   6.129   3.785  10.903 -0.1592 -0.0283  0.3034
 5028W        W 9079   4.984   2.741  13.336  0.0847 -0.0332 -0.4141
 5029W        W 9080   7.673   8.724   4.110 -0.1535 -0.1627 -0.3870
 5030W        W 9081   0.150   0.404   0.084 -0.0590 -0.0044  0.0814
 5031W        W 9082   9.492   6.862  13.672  0.0644  0.0362  0.0879
 5032W        W 9083   5.797   1.971  13.455 -0.0700  0.0382  0.3273
 5033W        W 9084   6.430   7.181  13.089 -0.0932 -0.1230  0.0793
 5034W        W 9085   2.094   4.354  12.666  0.1751 -0.0735 -0.0402
 5035W        W 9086   2.116   0.163   9.615 -0.2153 -0.0980 -0.0822
 5036W        W 9087   8.609   4.863   1.875 -0.1439  0.2774 -0.1399
 5037W        W 9088   4.431   8.087  12.691 -0.1347 -0.2292  0.1002
 5038W        W 9089   5.419   2.109  13.125 -0.0998 -0.1707  0.1249
 5039W        W 9090   0.266   9.781  13.224 -0.3482  0.1222 -0.4749
 5040W        W 9091   3.101   3.056  12.971 -0.1699 -0.2137  0.1651
 5041W        W 9092   4.845   0.924  10.891 -0.0577  0.0732  0.4104
 5042W        W 9093   2.107   7.059   4.810  0.0741 -0.3102 -0.0377
 5043W        W 9094   0.848   5.177  12.337 -0.0280 -0.0493 -0.0096
 5044W        W 9095   5.779   0.207   1.841 -0.0039 -0.1676  0.0125
 5045W        W 9096   6.727   4.565   4.831 -0.0687 -0.1464  0.2746
 5046W        W 9097   1.769   7.022  13.517 -0.0667 -0.4040  0.3464
 5047W        W 9098   3.515   9.505  11.260 -0.0527 -0.1295 -0.1420
 5048W        W 9099   0.550  10.020   1.965 -0.2573  0.1373 -0.0256
 5049W        W 9100   2.409   3.199  10.136  0.0194  0.0860  0.6427
 5050W        W 9101   1.273   8.833  11.366  0.0839  0.1055  0.1517
 5051W        W 9102   3.606   5.567   3.599 -0.3446  0.0870 -0.0797
 5052W        W 9103   9.266   1.770  13.211 -0.1086  0.3270  0.1485
 5053W        W 9104   4.272   9.884   2.417 -0.3420 -0.0105 -0.0094
 5054W        W 9105   7.215   5.423   0.587 -0.1931 -0.1388  0.2550
 5055W        W 9106   4.799   3.875  12.624  0.2474 -0.4276 -0.2477
 5056W        W 9107   4.101   9.939  12.571  0.0411  0.2202 -0.0773
 5057W        W 9108   1.075   7.851   2.728  0.1808  0.1018  0.0323
 5058W        W 9109   2.582   0.096  13.756  0.1167 -0.0370 -0.1074
 5059W        W 9110   9.561   9.840   4.010 -0.0609 -0.0187 -0.1557
 5060W        W 9111   1.017   3.387   1.847  0.1681 -0.1835  0.3753
 5061W        W 9112   6.875   0.708   9.895 -0.1419 -0.0992 -0.0587
 5062W        W 9113   2.182   5.857   1.105  0.4563  0.0245  0.1788
 5063W        W 9114   1.591   9.759   1.229  0.1430  0.2041  0.0231
 5064W        W 9115   7.735   2.729   2.912  0.0901  0.1174 -0.0046
 5065W        W 9116   2.229   5.060   9.952 -0.0852  0.0580  0.0548
 5066W        W 9117   0.028   6.185  12.432 -0.0105  0.1589 -0.2267
 5067W        W 9118   3.042   4.167  10.509 -0.4120 -0.1323 -0.1886
 5068W        W 9119   0.726   8.798   1.218  0.0905  0.3388  0.0842
 5069W        W 9120   7.644   1.705  11.994 -0.0412  0.0603  0.1297
 5070W        W 9121   6.030   9.572   9.648  0.1088 -0.0049  0.1151
 5071W        W 9122   3.602   0.483  11.768  0.1469 -0.2461  0.0639
 5072W        W 9123   1.248   8.138  13.238  0.1495  0.0067  0.0319
 5073W        W 9124   8.441   5.423   2.644 -0.2468  0.1636  0.2788
 5074W        W 9125   5.150   9.354   4.203  0.3705  0.0377  0.1936
 5075W        W 9126   4.762   6.733   9.633  0.3587 -0.3501 -0.0887
 5076W        W 9127   2.977   5.375   0.094  0.3383 -0.0654 -0.0712
 5077W        W 9128   8.912   9.106   3.614 -0.0877  0.1248  0.0653
 5078W        W 9129   6.058   0.022   4.481  0.1321 -0.0738 -0.1498
 5079W        W 9130  10.046   6.220   9.021 -0.1070  0.0265  0.0598
 5080W        W 9131   1.517   6.382   2.050 -0.2731 -0.1025  0.0475
 5081W        W 9132   7.812   3.615  10.297  0.1796  0.0923 -0.2058
 5082W        W 9133   3.409   0.955  10.857  0.1536  0.1148 -0.1604
 5083W        W 9134   6.442   2.142   0.633  0.0350  0.0599 -0.1215
 5084W        W 9135   7.610   5.484   3.345  0.1587  0.1185  0.0055
 5085W        W 9136   9.778   1.161   9.627 -0.1002 -0.1954 -0.0175
 5086W        W 9137   9.794   9.731   3.590 -0.1599 -0.0250 -0.0791
 5087W        W 9138   5.451   4.694  13.837  0.1700  0.0383  0.0751
 5088W        W 9139   5.719   2.137   2.250 -0.0765 -0.0265 -0.3122
 5089W        W 9140   9.751   1.728   0.856 -0.3311 -0.1645 -0.2131
 5090W        W 9141   5.401   9.253   1.409 -0.0171  0.1512 -0.1475
 5091W        W 9142   8.552   7.172  13.396  0.4126 -0.1696  0.0155
 5092W        W 9143   9.538   0.382  10.022  0.2409  0.1159 -0.0893
 5093W        W 9144   0.942   4.142   1.080  0.1638 -0.0158  0.0469
 5094W        W 9145   2.143   3.226  12.887  0.2806 -0.1212  0.0525
 5095W        W 9146   6.323   0.565   3.840  0.0647  0.1653 -0.2311
 5096W        W 9147   3.807   9.517   0.636  0.1972  0.0514 -0.0474
 5097W        W 9148   2.501   6.882  12.629 -0.2516 -0.2595 -0.2546
 5098W        W 9149   6.972   7.563   0.188 -0.0968 -0.0924 -0.0073
 5099W        W 9150   6.834   4.854   5.548  0.0099 -0.0065 -0.0299
 5100W        W 9151   3.895   8.502   2.943 -0.1840  0.3024  0.0506
 5101W        W 9152   4.991   9.293   3.644 -0.0867 -0.1690 -0.2441
 5102W        W 9153   9.615   9.374  13.364  0.1427 -0.0503 -0.0794
 5103W        W 9154   6.759  10.024  13.656 -0.0640  0.0002  0.1917
 5104W        W 9155   4.807   1.049  11.749 -0.2131  0.1380  0.2195
 5105W        W 9156   9.778   9.672   4.840 -0.0370 -0.2623 -0.0708
 5106W        W 9157   5.191   1.933   3.090  0.0504 -0.0597  0.0015
 5107W        W 9158   6.213   4.334  13.063 -0.0230  0.0107  0.1515
 5108W        W 9159   2.955   4.711   9.948 -0.1173  0.3231 -0.0047
 5109W        W 9160   8.060   7.704  10.178 -0.0510  0.0890 -0.2818
 5110W        W 9161   9.009  10.054   2.200 -0.0420  0.0703  0.0716
 5111W        W 9162   2.563   6.151   2.756 -0.1800  0.0491 -0.4236
 5112W        W 9163   9.758   0.078  12.958  0.0345 -0.1833  0.2603
 5113W        W 9164   9.400   8.393   2.693  0.3803  0.1029  0.0525
 5114W        W 9165   5.778   1.149  11.926 -0.0128 -0.1977 -0.2788
 5115W        W 9166   2.858   8.595  13.780 -0.2741 -0.0705  0.0560
 5116W        W 9167   0.869   6.763   3.529 -0.1825 -0.0796 -0.1300
 5117W        W 9168   1.418   4.557  11.122  0.1752  0.4879  0.1384
 5118W        W 9169   9.172   9.078   2.332  0.1974 -0.1048  0.1152
 5119W        W 9170   6.795   8.268  10.118  0.1310  0.0530 -0.0216
 5120W        W 9171   9.495   7.936  11.488 -0.0146  0.0403  0.2907
 5121W        W 9172   9.654   3.141  11.966  0.0921  0.2824 -0.1470
 5122W        W 9173   1.735   5.722   2.613 -0.2605  0.0815  0.0591
 5123W        W 9174  10.134   2.028   9.815 -0.1619 -0.0272  0.1699
 5124W        W 9175   4.854   2.785   9.573 -0.2044  0.2340  0.2578
 5125W        W 9176   4.242   3.654   1.310  0.0606 -0.3032 -0.1277
 5126W        W 9177   2.308   2.166  11.748  0.1236  0.0533 -0.0800
 5127W        W 9178   2.363   8.528   0.606  0.0364 -0.1723  0.0886
 5128W        W 9179   6.151   3.788   2.201 -0.0834  0.3896 -0.0013
 5129W        W 9180   5.818   6.684   9.668  0.1144 -0.1247 -0.0184
 5130W        W 9181   5.572   4.999   9.498 -0.1304 -0.2541  0.2678
 5131W        W 9182   3.581   8.623   0.417 -0.1024 -0.0513 -0.1221
 5132W        W 9183   9.017   2.797  10.366  0.0849 -0.0468  0.1105
 5133W        W 9184   1.300   5.580  11.720 -0.0199  0.3496  0.3043
 5134W        W 9185   6.592   1.384  12.106  0.1497  0.1403  0.3689
 5135W        W 9186   7.707   4.021  12.088  0.0952 -0.1814 -0.0832
 5136W        W 9187   6.712   5.107   3.156  0.2141  0.2490  0.0543
 5137W        W 9188   2.632   1.572   1.410  0.0414  0.0802 -0.2340
 5138W        W 9189   2.432   2.385   1.085 -0.3481  0.2976 -0.2145
 5139W        W 9190   6.197   0.804   2.565 -0.0610 -0.1588  0.0079
 5140W        W 9191   3.930   5.898   2.849  0.2591 -0.0043 -0.0713
 5141W        W 9192  10.107   2.592  13.009  0.0368  0.1051 -0.0584
 5142W        W 9193   0.339   8.906  13.711 -0.5349  0.1529  0.0784
 5143W        W 9194   0.325   4.097   0.571 -0.1682 -0.1967 -0.1970
 5144W        W 9195   0.338   0.731  10.993 -0.3815  0.1413  0.0378
 5145W        W 9196   9.319   1.816  10.100  0.1027 -0.1238  0.2271
 5146W        W 9197   1.356   8.376   4.211 -0.3661 -0.1393 -0.4019
 5147W        W 9198   0.205   3.910  12.188  0.2399  0.1922  0.1851
 5148W        W 9199   6.947   5.013  13.296 -0.1962 -0.3354  0.0376
 5149W        W 9200   4.704   2.771   0.715  0.1288 -0.0448 -0.1443
 5150W        W 9201   5.511   2.264   9.220  0.0874 -0.1013 -0.1823
 5151W        W 9202   6.361   0.107   4.023 -0.1804  0.1727  0.0452
 5152W        W 9203   7.876   3.924   5.421 -0.2157 -0.2562 -0.2394
 5153W        W 9204   4.329   4.325  12.130  0.0593  0.2977 -0.2647
 5154W        W 9205   4.746  10.188   4.151 -0.3172 -0.1211 -0.2553
 5155W        W 9206   8.622   6.709  13.608  0.2665  0.1972  0.1031
 5156W        W 9207   4.188   3.265  12.271  0.0627 -0.0708  0.1078
 5157W        W 9208   4.102   5.187   1.473  0.0017 -0.0453 -0.4401
 5158W        W 9209   4.870   7.514   0.016 -0.4721  0.1001 -0.0752
 5159W        W 9210   9.107   0.604   9.818  0.2167  0.1836 -0.1889
 5160W        W 9211   3.424   0.190   4.149 -0.0617 -0.0554 -0.2976
 5161W        W 9212   3.600   1.958   9.692 -0.0378 -0.2890 -0.1893
 5162W        W 9213   5.938   0.541  13.543 -0.1171 -0.0264  0.1226
 5163W        W 9214   8.992   4.789  10.047 -0.0269  0.0049 -0.1936
 5164W        W 9215   2.072   6.102  10.611 -0.0498  0.0431 -0.4544
 5165W        W 9216   3.869   5.491   3.128 -0.0020  0.1465 -0.0067
 5166W        W 9217   1.426   2.217   3.176 -0.0973 -0.2352  0.2659
 5167W        W 9218   1.534   1.776   3.353 -0.2171  0.0158  0.0918
 5168W        W 9219   6.479   4.222  10.958 -0.1404 -0.1277  0.3157
 5169W        W 9220   5.891   2.289   9.649 -0.0073 -0.2667 -0.1092
 5170W        W 9221   6.835   1.149   2.457 -0.1044  0.1011  0.0127
 5171W        W 9222   1.089   9.353   3.960  0.0929  0.0708 -0.1116
 5172W        W 9223   4.229   9.166   1.811  0.0464 -0.0790 -0.1754
 5173W        W 9224  10.169   9.050   8.573  0.1487  0.0128  0.0255
 5174W        W 9225   5.560   1.889  12.612 -0.0835 -0.0470 -0.0799
 5175W        W 9226   4.513   5.072   3.752  0.1508 -0.2259  0.2793
 5176W        W 9227   2.885   7.452   8.722  0.0708  0.1416 -0.0306
 5177W        W 9228   8.746   4.570  11.082  0.0099 -0.0493  0.2172
 5178W        W 9229   8.210   3.997   4.158 -0.1313  0.1294  0.0581
 5179W        W 9230   6.967   3.589   1.177 -0.1366  0.1998 -0.1029
 5180W        W 9231   7.281   7.704   3.985  0.0501  0.1299 -0.1348
 5181W        W 9232   8.756   5.338   9.914  0.0442 -0.3776  0.2198
 5182W        W 9233   3.353   7.778   9.842  0.2663  0.3059  0.1361
 5183W        W 9234   2.916   3.238   0.416 -0.0567 -0.1169 -0.3335
 5184W        W 9235   2.396   7.669   4.927  0.2099 -0.0073 -0.0897
 5185W        W 9236   9.652   5.446  10.477 -0.1837  0.0925  0.1064
 5186W        W 9237   0.221   2.578  12.585  0.0394  0.4092  0.1702
 5187W        W 9238   6.029   4.320   8.410 -0.4192  0.0357 -0.1632
 5188W        W 9239   9.585   6.176   3.007 -0.0776 -0.1542  0.0554
 5189W        W 9240   5.318   0.073  10.055 -0.1761 -0.0580  0.1647
 5190W        W 9241   6.406   9.304  12.916  0.1907  0.0763  0.0777
 5191W        W 9242   5.733   0.540   0.095 -0.1265  0.1661 -0.2786
 5192W        W 9243   9.755   5.269   8.722 -0.1385 -0.0805 -0.0679
 5193W        W 9244   6.447   6.034   0.820  0.1518 -0.2920 -0.0788
 5194W        W 9245   3.933   0.783  12.001  0.1270 -0.2750  0.0442
 5195W        W 9246   2.001   5.040   1.417  0.1210  0.0644 -0.1769
 5196W        W 9247   8.082   5.449   0.251 -0.0581  0.0610 -0.2089
 5197W        W 9248   6.991   8.408   1.103 -0.2550  0.1671  0.0045
 5198W        W 9249   7.569   2.568   4.734 -0.2597 -0.2693  0.1868
 5199W        W 9250   5.956   0.647   9.582  0.2754 -0.0907 -0.1106
 5200W        W 9251   4.538   4.612   9.602 -0.1502 -0.1470  0.0121
 5201W        W 9252   6.954   9.779   0.675  0.3676  0.2102 -0.1077
 5202W        W 9253   3.711   6.248   2.600 -0.1312  0.1537 -0.2602
 5203W        W 9254   6.198   1.385   9.415 -0.0623 -0.1963 -0.0161
 5204W        W 9255   8.078   7.461   0.640  0.0200  0.1379  0.1379
 5205W        W 9256   7.502   7.769   2.880 -0.1408  0.0170 -0.1088
 5206W        W 9257   1.491   6.437  12.900 -0.0710 -0.0033  0.1252
 5207W        W 9258   7.558   9.849   9.712  0.1270 -0.2440  0.1586
 5208W        W 9259   9.907   4.387   1.026 -0.3828 -0.3201  0.0238
 5209W        W 9260   7.805   9.474  13.122 -0.0061  0.1238 -0.0285
 5210W        W 9261   1.709   0.494  13.510  0.1484 -0.1391  0.0797
 5211W        W 9262   6.066   4.689   1.583  0.1822 -0.1814  0.0194
 5212W        W 9263   7.161   6.836   4.290 -0.2738  0.3055  0.2082
 5213W        W 9264   0.479   4.154   2.071  0.1789  0.1188 -0.1064
 5214W        W 9265   6.628   9.736  11.337  0.1081 -0.1276 -0.2618
 5215W        W 9266   1.609   2.792  13.509 -0.1136 -0.0998  0.1466
 5216W        W 9267   5.076   7.982   9.551  0.0753 -0.3929  0.3591
 5217W        W 9268   9.976   9.309   4.563  0.0258 -0.1653 -0.0124
 5218W        W 9269   7.175   3.359   0.726  0.2761  0.0087 -0.0359
 5219W        W 9270   8.634   1.800  11.843  0.1681 -0.0404 -0.0006
 5220W        W 9271   5.541   0.937   9.599  0.2774 -0.2223 -0.2118
 5221W        W 9272   4.983   8.301  12.737  0.1139 -0.3826  0.3310
 5222W        W 9273   2.678   6.155  12.228  0.1416 -0.1378 -0.3047
 5223W        W 9274   2.819   6.679  11.938 -0.0992 -0.0833  0.2656
 5224W        W 9275   5.624   9.217  10.900 -0.1094  0.0972 -0.1014
 5225W        W 9276   4.991   9.546   2.146  0.2147  0.0857 -0.2921
 5226W        W 9277   7.051   1.144  12.309 -0.1044 -0.5034 -0.1537
 5227W        W 9278   6.338   2.959  12.640 -0.1512 -0.1735  0.3424
 5228W        W 9279   3.015   7.503   2.817  0.1308  0.0047  0.3955
 5229W        W 9280   1.636   0.412  12.746 -0.0034  0.0264 -0.1897
 5230W        W 9281   6.209   9.868  10.862 -0.2696 -0.0147 -0.0250
 5231W        W 9282   7.565   2.476   1.892  0.0775  0.1260  0.0147
 5232W        W 9283   9.257   9.255   1.775 -0.0588  0.2078  0.1246
 5233W        W 9284   9.267  10.204  10.754  0.1407 -0.0224 -0.0201
 5234W        W 9285   0.261   7.546   1.029  0.3634 -0.0787 -0.2441
 5235W        W 9286   8.071   3.931  10.052 -0.5276  0.0497  0.1915
 5236W        W 9287   3.617   0.007  11.801 -0.2689  0.6993 -0.3368
 5237W        W 9288   6.570  10.088   4.598  0.1571 -0.2151  0.1548
 5238W        W 9289   4.683   6.313   4.589 -0.1080 -0.0642 -0.0074
 5239W        W 9290   5.000   8.819  13.478  0.2512  0.0579 -0.3173
 5240W        W 9291   9.118   5.794   3.005  0.0489  0.2697  0.1152
 5241W        W 9292   9.337   5.288  13.674 -0.0654  0.1123 -0.2179
 5242W        W 9293   0.606   0.005  11.760  0.3436  0.0548 -0.1461
 5243W        W 9294   1.327   0.260   2.313  0.2845 -0.3094 -0.0792
 5244W        W 9295   4.973   6.296   9.528 -0.1063 -0.1670  0.2257
 5245W        W 9296   3.179   2.113  10.310  0.2942  0.0921 -0.1877
 5246W        W 9297   7.532   4.003   4.426  0.0783 -0.2682  0.0427
 5247W        W 9298   7.657   6.566   0.841 -0.0807 -0.1086 -0.0502
 5248W        W 9299   4.988   6.688   4.485  0.4510  0.0425  0.2601
 5249W        W 9300   7.968   8.989   0.193 -0.1380 -0.1038  0.5048
 5250W        W 9301   8.466   6.843   9.839 -0.2692 -0.2656 -0.0209
 5251W        W 9302   5.236   3.651  13.619  0.1854 -0.1891 -0.0483
 5252W        W 9303   7.160   7.110   0.313  0.1228  0.2484  0.0556
 5253W        W 9304   9.395   4.108   9.566  0.1524  0.1552 -0.2222
 5254W        W 9305   6.369  10.066   3.586 -0.0095  0.0556  0.3053
 5255W        W 9306   1.634   3.059  10.047  0.0785 -0.1308 -0.1947
 5256W        W 9307   2.415   8.753  13.884 -0.1287  0.1337  0.1206
 5257W        W 9308   0.130   6.859   2.272 -0.0010  0.2995  0.1623
 5258W        W 9309   8.730   9.752  12.514  0.0109 -0.3717 -0.0037
 5259W        W 9310   5.831   8.245   0.042  0.4617  0.0310  0.4442
 5260W        W 9311   8.111   2.734   2.510  0.0798 -0.0162 -0.1356
 5261W        W 9312   5.874   4.349   3.845  0.0931 -0.1112 -0.1818
 5262W        W 9313   8.750   4.795  12.004  0.0861 -0.5016  0.0314
 5263W        W 9314   2.332   2.022  11.254  0.0939 -0.1201  0.0310
 5264W        W 9315   6.851   1.353   0.295  0.1872 -0.0055 -0.1495
 5265W        W 9316   5.518   9.918  13.750  0.0588 -0.1083 -0.1500
 5266W        W 9317   8.865   6.987   9.232  0.0096  0.0618 -0.3104
 5267W        W 9318   0.395   5.454   9.676  0.1848 -0.1095 -0.0718
 5268W        W 9319   5.586   8.358   1.476  0.0221  0.0022  0.3408
 5269W        W 9320   2.232   7.069   9.480  0.0174  0.0068 -0.0548
 5270W        W 9321   1.701   9.286  13.710  0.4009 -0.0179  0.0207
 5271W        W 9322   6.494   4.893   1.834  0.1786  0.1521  0.2776
 5272W        W 9323   2.276   1.347   0.620 -0.0706 -0.0327 -0.2015
 5273W        W 9324   0.971   0.894  12.239  0.2957  0.0548  0.0119
 5274W        W 9325   4.573   0.571   1.478 -0.2888 -0.0286  0.0511
 5275W        W 9326   2.992   8.050  13.919  0.0905  0.0638 -0.1406
 5276W        W 9327   6.830   4.537   4.112  0.1762  0.0278 -0.0784
 5277W        W 9328   1.721   4.864  13.195 -0.2883  0.0176  0.0663
 5278W        W 9329   8.865   5.950   1.740 -0.1197 -0.1706  0.2393
 5279W        W 9330   8.159   4.129   0.963 -0.0614 -0.0557  0.2191
 5280W        W 9331   2.597   9.454  11.727  0.3103  0.1024 -0.2531
 5281W        W 9332   3.709   9.070  11.486  0.2309  0.2619 -0.0390
 5282W        W 9333   4.472   9.540   1.456 -0.0704 -0.3555  0.1570
 5283W        W 9334   1.521   3.548   1.103 -0.1326  0.2801  0.2845
 5284W        W 9335   7.322   0.189  11.672  0.1992  0.0066 -0.1154
 5285W        W 9336   3.552   5.497  12.057  0.0668  0.0741 -0.2821
 5286W        W 9337   0.456   7.899  11.508  0.0461 -0.1646  0.0614
 5287W        W 9338   8.748   4.099   1.815 -0.2541 -0.2870 -0.0814
 5288W        W 9339   4.012   5.753   0.550 -0.2233 -0.3448 -0.2804
 5289W        W 9340   3.952   5.339  12.350  0.0564 -0.1323  0.1184
 5290W        W 9341   3.473   1.569   2.596  0.1100  0.0582  0.0382
 5291W        W 9342   5.212   3.308   3.855  0.2076 -0.2130  0.0453
 5292W        W 9343   8.554   0.458  10.384  0.0752  0.0931 -0.0514
 5293W        W 9344   7.320   1.370   2.638 -0.1054  0.0909  0.0100
 5294W        W 9345   8.120   6.588   1.844  0.0055  0.0761 -0.1896
 5295W        W 9346   7.562   3.089  11.151  0.1508 -0.0704 -0.2835
 5296W        W 9347   6.307   9.928   8.519  0.1016 -0.0354  0.1277
 5297W        W 9348   8.704   7.813  11.272 -0.0012  0.0791 -0.1536
 5298W        W 9349   8.792   9.358   9.742 -0.1637  0.0641  0.4216
 5299W        W 9350   8.133   8.951  11.903 -0.2373 -0.2036 -0.0727
 5300W        W 9351   5.916   2.798   9.585  0.1573  0.3089 -0.3199
 5301W        W 9352   4.585   5.090   0.914  0.1500 -0.0052 -0.2596
 5302W        W 9353   6.885   8.654  11.217 -0.1234  0.0923 -0.4566
 5303W        W 9354   3.178   7.675  10.386 -0.0006 -0.0497  0.2555
 5304W        W 9355   9.014   5.841   0.260  0.2090  0.1213  0.0564
 5305W        W 9356   8.117   5.711  13.387  0.1670  0.2693 -0.0257
 5306W        W 9357   6.407   5.062   9.450  0.5216 -0.2760 -0.0931
 5307W        W 9358   6.972   8.792  13.328 -0.0640 -0.1241  0.2866
 5308W        W 9359   7.006   3.982  10.759 -0.1678  0.0512 -0.2464
 5309W        W 9360   5.122   2.997  11.138 -0.0982  0.0834 -0.7047
 5310W        W 9361   1.248  10.017   1.562 -0.2619  0.2262  0.2014
 5311W        W 9362   2.617   8.315   3.705  0.1033  0.0086  0.2233
 5312W        W 9363   9.118   0.298  10.385 -0.2522 -0.0239  0.1214
 5313W        W 9364   2.844   8.236  11.606  0.2712  0.1333  0.2755
 5314W        W 9365   5.957   7.750   9.907 -0.0087 -0.0550 -0.0736
 5315W        W 9366   6.865   0.453  11.746 -0.2110  0.1127 -0.0754
 5316W        W 9367   9.268   5.334   4.135 -0.1920  0.2474  0.0495
 5317W        W 9368   6.850   8.331   9.143 -0.1392 -0.0577 -0.1605
 5318W        W 9369  10.099   7.167  12.613 -0.2645 -0.3318 -0.0610
 5319W        W 9370   3.748   2.930  13.513 -0.0833  0.0213  0.2486
 5320W        W 9371   4.759   4.783  12.520  0.1281 -0.1005 -0.1106
 5321W        W 9372   2.606   3.045  13.015  0.1178  0.1239  0.1533
 5322W        W 9373   2.959   9.145   2.489  0.3161 -0.2346 -0.1595
 5323W        W 9374   4.492   5.813   4.561 -0.0274  0.0784  0.2460
 5324W        W 9375   9.933   4.093   0.571 -0.3460 -0.4455  0.0501
 5325W        W 9376   6.174   7.728  10.554  0.0571  0.3481 -0.1701
 5326W        W 9377   9.076   7.010  10.170  0.0718  0.1107  0.2686
 5327W        W 9378   7.488   8.450   9.980  0.0354  0.0296  0.2482
 5328W        W 9379   7.584   1.050   4.058 -0.1297 -0.2495  0.2435
 5329W        W 9380  10.127   5.404  12.871 -0.3666 -0.2998  0.0558
 5330W        W 9381   2.455   1.173  10.131  0.1761  0.2334 -0.3392
 5331W        W 9382   2.974   0.012  10.665 -0.4124  0.4012  0.2560
 5332W        W 9383   4.748   7.348   3.759  0.1389  0.1072  0.1870
 5333W        W 9384   8.875   5.197  12.412  0.0269 -0.1073  0.0280
 5334W        W 9385   9.506   2.709  10.122  0.0849 -0.2208  0.2122
 5335W        W 9386   3.764   6.193   9.796  0.2661  0.0507 -0.1806
 5336W        W 9387   2.467   3.517  13.596 -0.2624  0.0329 -0.0957
 5337W        W 9388  10.094   6.247  10.844 -0.1504  0.0000  0.0031
 5338W        W 9389   7.112   3.953   8.855 -0.1069 -0.1015 -0.3722
 5339W        W 9390   4.946   5.053  12.878  0.1684  0.4257  0.1729
 5340W        W 9391   9.376   8.337  11.760 -0.0933 -0.0885  0.0372
 5341W        W 9392   5.364   7.588   2.177 -0.0466  0.0450 -0.1061
 5342W        W 9393   7.658   2.098  12.295 -0.1567 -0.1449 -0.1328
 5343W        W 9394   4.304   3.022  13.827 -0.2950  0.1746  0.0255
 5344W        W 9395   4.929   2.079  13.234  0.1654 -0.1000  0.2108
 5345W        W 9396   4.455   8.547  10.707 -0.0402  0.3254  0.3530
 5346W        W 9397   0.712   2.841  11.644 -0.2461  0.0212  0.4141
 5347W        W 9398   5.187   5.293  11.278 -0.0028 -0.0585 -0.1250
 5348W        W 9399   4.988   6.941  11.784  0.1265 -0.1879 -0.0032
 5349W        W 9400   6.065   0.521   0.896  0.0518  0.1117  0.0198
 5350W        W 9401   7.637   6.749   4.088  0.1187 -0.2353 -0.0074
 5351W        W 9402   8.219   7.955   1.475 -0.4663  0.0150 -0.1400
 5352W        W 9403   7.970   1.717  12.361  0.0375 -0.1093  0.2359
 5353W        W 9404   3.698   3.902  11.300 -0.0778  0.1583 -0.1475
 5354W        W 9405   6.658   5.230   1.365 -0.0486 -0.0050  0.2881
 5355W        W 9406   0.067   2.578   1.838 -0.0480  0.0345  0.0151
 5356W        W 9407   5.558   7.660   2.729 -0.3414 -0.2205 -0.1207
 5357W        W 9408   7.066   9.020   5.306 -0.1299  0.1505 -0.2786
 5358W        W 9409   1.027   2.552   2.218  0.2529 -0.0174  0.0048
 5359W        W 9410  10.180   0.653   2.161  0.1266  0.1521 -0.0511
 5360W        W 9411   8.621   6.076   3.219 -0.0861 -0.0317  0.0342
 5361W        W 9412   0.506   8.487  11.372 -0.2104 -0.2385  0.3575
 5362W        W 9413   5.367   8.547  13.744  0.0530  0.0931 -0.1488
 5363W        W 9414   6.102   1.759  13.814 -0.1097 -0.0075  0.0407
 5364W        W 9415   0.491   7.457   1.562 -0.0400 -0.0203  0.0889
 5365W        W 9416   0.483   8.320  10.873  0.0095 -0.1323  0.0347
 5366W        W 9417   6.374   3.566   3.577 -0.0280 -0.0967  0.1375
 5367W        W 9418   6.035   0.499   4.241  0.0841  0.2629  0.3762
 5368W        W 9419   1.595   0.376   4.163 -0.0075 -0.2686 -0.1145
 5369W        W 9420   6.256   4.413   4.852  0.1577 -0.2032 -0.2818
 5370W        W 9421   4.418   0.972  10.636  0.0963 -0.3394  0.2211
 5371W        W 9422   8.414   2.796   3.877 -0.1228  0.0497 -0.0637
 5372W        W 9423   9.692   3.363   0.831 -0.2293  0.4280  0.0662
 5373W        W 9424   8.941   5.748  13.535 -0.0400  0.0407 -0.0150
 5374W        W 9425   1.208   3.782  13.659  0.0511  0.1398  0.0358
 5375W        W 9426   2.602   9.938  11.027 -0.2469  0.0414  0.0507
 5376W        W 9427   3.661   9.179   4.542 -0.3555  0.1598 -0.0660
 5377W        W 9428   6.054   9.153   9.391 -0.1510  0.1103 -0.0392
 5378W        W 9429   8.214   3.398  11.219 -0.0541  0.0062 -0.0004
 5379W        W 9430   9.797  10.159   1.559  0.0490 -0.3234 -0.0342
 5380W        W 9431   2.809   7.122   3.056  0.1548 -0.1092 -0.0090
 5381W        W 9432   7.807   6.476  13.228 -0.3530 -0.1200  0.3499
 5382W        W 9433   2.284   5.423  10.423 -0.2388  0.1895  0.1836
 5383W        W 9434   1.676   4.220   4.347 -0.0453  0.0261 -0.0105
 5384W        W 9435   8.091   6.483   1.073  0.3339 -0.1396 -0.2200
 5385W        W 9436   5.680  10.185  12.693  0.2269  0.1517  0.3638
 5386W        W 9437   5.678   6.059   1.023 -0.1922  0.0762  0.0928
 5387W        W 9438   5.083   7.080   0.320 -0.1203  0.1813 -0.2219
 5388W        W 9439   6.276   8.149  12.478  0.1654  0.2354 -0.2878
 5389W        W 9440   0.069   2.452  13.843 -0.1623  0.1973 -0.3865
 5390W        W 9441   5.300   4.245  12.086  0.0499  0.0937 -0.1697
 5391W        W 9442   9.488   0.459   4.236  0.0772  0.2668  0.1583
 5392W        W 9443   9.179   9.060  12.123  0.0008 -0.0954  0.0041
 5393W        W 9444   6.673   9.825   3.303 -0.1900  0.1739 -0.0650
 5394W        W 9445   0.367   1.120   0.753 -0.0834  0.1265  0.0230
 5395W        W 9446   3.614   4.972   1.787  0.0602  0.1695 -0.1381
 5396W        W 9447   2.584   5.700  11.346 -0.1479 -0.2997 -0.1050
 5397W        W 9448   9.706   0.126  13.490 -0.1389  0.0443 -0.2614
 5398W        W 9449   2.184   9.609   2.394 -0.0094  0.1189 -0.2729
 5399W        W 9450   8.633   4.526  11.553 -0.2456 -0.1715 -0.1893
 5400W        W 9451   6.774   4.666   2.244 -0.1206  0.0895  0.3063
 5401W        W 9452   6.615   5.388   9.771 -0.3604  0.0907 -0.3475
 5402W        W 9453   3.641  10.198   0.030 -0.1017 -0.0464  0.1344
 5403W        W 9454   5.816   7.398  10.291 -0.1359  0.1509  0.1631
 5404W        W 9455   8.992   8.192   4.564  0.0200 -0.1107 -0.0723
 5405W        W 9456   6.351   9.853   4.151  0.2536 -0.5900 -0.0989
 5406W        W 9457   9.479   8.285  10.177  0.0323 -0.1338 -0.3241
 5407W        W 9458   5.808   4.317  10.850  0.1060 -0.1599 -0.0182
 5408W        W 9459   5.556   9.088   9.502  0.0899  0.2389 -0.1361
 5409W        W 9460   8.880   8.751   2.121  0.0298  0.3663  0.1345
 5410W        W 9461   5.655   9.147   2.632  0.1443  0.2411 -0.0962
 5411W        W 9462   7.441   2.514  12.043 -0.2410  0.0411 -0.1485
 5412W        W 9463   3.235   4.994  11.752  0.1612  0.1195 -0.1470
 5413W        W 9464   3.546   9.979   0.499  0.1183 -0.2009  0.0789
 5414W        W 9465   6.050   2.616  11.504 -0.0492  0.1352 -0.1464
 5415W        W 9466   3.828   1.682  12.627  0.0531 -0.3411  0.1989
 5416W        W 9467   7.438   3.508   0.310  0.1285  0.0623  0.0997
 5417W        W 9468   1.865   3.653  10.889  0.1256  0.1669 -0.4218
 5418W        W 9469   7.882   1.482   3.988  0.0997  0.0898  0.0307
 5419W        W 9470   8.418   6.854   5.121  0.0291  0.1208  0.1529
 5420W        W 9471   6.785   2.829  12.820  0.1217  0.0385  0.1499
 5421W        W 9472   6.144   1.400  11.743  0.1571 -0.0912  0.0170
 5422W        W 9473   3.024   3.487   2.096  0.0132 -0.0376 -0.3209
 5423W        W 9474   1.617   3.100  13.124  0.1662  0.0698  0.0783
 5424W        W 9475   2.532   6.567   1.833  0.1362  0.0805  0.0623
 5425W        W 9476   2.698   7.160   9.657 -0.0962  0.2347 -0.0384
 5426W        W 9477   9.986   0.079  12.053 -0.0475 -0.1216  0.1202
 5427W        W 9478   7.793   2.710  11.782  0.1806  0.0335 -0.3166
 5428W        W 9479   6.644   5.800   0.127  0.0774 -0.0060  0.0049
 5429W        W 9480   4.358   3.539  12.794  0.0693 -0.0052  0.2270
 5430W        W 9481   0.268   6.989  10.414  0.2463 -0.2246 -0.0519
 5431W        W 9482   0.943   6.716  12.265  0.2028  0.2177  0.0836
 5432W        W 9483   7.189   9.628   3.860 -0.0890  0.1801 -0.1896
 5433W        W 9484   4.621   5.828  10.810  0.2499  0.4155  0.0963
 5434W        W 9485   2.810   7.943  12.498  0.0717  0.1406 -0.1595
 5435W        W 9486   2.913   2.799   1.909 -0.2611  0.1383  0.2455
 5436W        W 9487   1.434   5.645   3.953  0.2377  0.1520  0.0849
 5437W        W 9488   8.428   2.638   2.048 -0.0636  0.1248  0.1374
 5438W        W 9489   0.267   0.168  12.251  0.1979  0.1404  0.1252
 5439W        W 9490   2.237   3.949  10.903  0.0227 -0.3036  0.2128
 5440W        W 9491   1.467   8.836  13.043 -0.0548  0.2837 -0.1949
 5441W        W 9492   5.414   7.236  11.162 -0.1629  0.1357 -0.2410
 5442W        W 9493   8.176   4.950   9.618  0.0082 -0.1947  0.2185
 5443W        W 9494   7.101   1.374   1.161 -0.2186 -0.1221 -0.0597
 5444W        W 9495   3.501   6.998  11.016  0.2018  0.2961 -0.0827
 5445W        W 9496   7.872   6.098   0.652  0.2504  0.0557  0.2988
 5446W        W 9497   8.448   9.359  11.773  0.0883 -0.0171 -0.1213
 5447W        W 9498   6.402   7.895   4.796 -0.2834  0.2190 -0.0666
 5448W        W 9499   4.492   5.413   0.507  0.1479 -0.2295 -0.1420
 5449W        W 9500   8.958   0.245  13.902 -0.3897 -0.2714 -0.0166
 5450W        W 9501   2.067   9.597   0.899  0.0788 -0.0509 -0.1474
 5451W        W 9502   6.063   3.061   3.372 -0.0816  0.1337  0.1038
 5452W        W 9503   2.033   7.112   0.786 -0.0120 -0.3096  0.0862
 5453W        W 9504   9.216   6.500  10.178 -0.2952 -0.1415 -0.1593
 5454W        W 9505  10.175   1.245   3.017 -0.1249 -0.0057  0.0137
 5455W        W 9506   8.795   4.595   0.065 -0.5685 -0.1601  0.2891
 5456W        W 9507   0.150   9.117   2.788 -0.2100  0.2986  0.0861
 5457W        W 9508   0.890   7.789  13.530 -0.3327  0.1518 -0.3172
 5458W        W 9509   8.467   9.951  10.919 -0.1770 -0.1259 -0.2207
 5459W        W 9510   0.818   5.231   1.308  0.1606  0.0834  0.1023
 5460W        W 9511   9.291   3.856  11.465 -0.0423 -0.0704  0.0205
 5461W        W 9512   0.919   4.348  11.058 -0.2239 -0.0213 -0.1599
 5462W        W 9513   1.882   9.364   1.806  0.3473  0.0348 -0.0464
 5463W        W 9514   4.862   2.997   3.276 -0.0741  0.1423  0.0327
 5464W        W 9515   3.611   5.953  10.817  0.0095  0.1075 -0.3270
 5465W        W 9516   7.940   8.754   4.572  0.0465  0.2485 -0.2802
 5466W        W 9517   4.923   3.427  10.876  0.1055  0.1884 -0.1174
 5467W        W 9518   9.526   1.840   3.171 -0.2509  0.2880 -0.1540
 5468W        W 9519   7.181   2.726   4.395 -0.0667  0.1122  0.2945
 5469W        W 9520   4.103   8.780   4.100 -0.1296 -0.0355 -0.3109
 5470W        W 9521  10.098   0.137  12.546 -0.1452 -0.0481 -0.0178
 5471W        W 9522   2.178   8.718  12.089 -0.0736 -0.0848 -0.1182
 5472W        W 9523   8.473   2.851  10.275 -0.2283  0.2007  0.0544
 5473W        W 9524   6.992   3.933   2.661 -0.1016 -0.0262 -0.1033
 5474W        W 9525   7.705   2.980   1.588 -0.1184 -0.1488  0.2252
 5475W        W 9526   2.557   6.579   0.007 -0.0980  0.0319  0.0238
 5476W        W 9527   0.087   5.064  11.631  0.1567  0.1092  0.2514
 5477W        W 9528   4.314   8.865   0.964 -0.2229 -0.1360  0.2403
 5478W        W 9529   9.760   0.786   3.887  0.0080 -0.0460  0.1684
 5479W        W 9530   9.965   2.743   2.200 -0.0266  0.0732 -0.1358
 5480W        W 9531   1.767   0.187   3.739  0.1107 -0.0221 -0.1255
 5481W        W 9532   9.890   7.710   3.780  0.3253  0.2557  0.0246
 5482W        W 9533   5.336   6.712  12.392  0.0207  0.1884 -0.0426
 5483W        W 9534   9.339   1.934   2.664 -0.1379 -0.0285 -0.1652
 5484W        W 9535   4.221   0.171   4.253  0.1862  0.1808 -0.0631
 5485W        W 9536   0.279   1.379  11.248  0.0200 -0.1017 -0.1645
 5486W        W 9537   6.516   4.346   4.415 -0.2114  0.2063 -0.2983
 5487W        W 9538   8.673   2.818   8.643 -0.1020  0.0134 -0.0981
 5488W        W 9539   1.456   4.056   3.352 -0.0661  0.4008 -0.0072
 5489W        W 9540   3.080   1.796   3.222 -0.1469  0.2429 -0.0962
 5490W        W 9541   7.320   0.121   5.243 -0.0734  0.3229  0.1485
 5491W        W 9542   8.236   3.036  10.875  0.0060  0.2919  0.2626
 5492W        W 9543   6.053   6.631  11.787  0.0897  0.1094  0.0863
 5493W        W 9544   2.771   8.780  12.421 -0.0038  0.0005  0.1151
 5494W        W 9545   7.575   4.530  12.964 -0.0444  0.2207 -0.1038
 5495W        W 9546   5.259   0.320   3.232 -0.2294 -0.4087 -0.3333
 5496W        W 9547   0.949   2.406   1.268  0.1892 -0.0221 -0.0837
 5497W        W 9548   6.026   5.070   2.656  0.0657  0.2050 -0.0227
 5498W        W 9549   5.696   5.137  13.870  0.1927  0.0652  0.2849
 5499W        W 9550   3.358   7.259   4.383  0.1157  0.0753  0.0518
 5500W        W 9551   5.786   8.746   3.150  0.1481 -0.0764  0.0525
 5501W        W 9552   2.639   0.298   2.853  0.0721 -0.0382 -0.0096
 5502W        W 9553   4.671   9.684  13.692  0.0671 -0.1624 -0.3190
 5503W        W 9554   4.352   6.835   1.399 -0.0262  0.3064  0.2851
 5504W        W 9555   9.198   4.483  10.801  0.1898  0.4277  0.1409
 5505W        W 9556   9.229   2.539  10.820 -0.2124 -0.1908  0.3339
 5506W        W 9557   5.381   1.084   4.006  0.0607  0.1461 -0.0552
 5507W        W 9558   9.724   4.469   4.102  0.1508  0.2220  0.3326
 5508W        W 9559   4.073   2.169  12.804 -0.0095 -0.0002 -0.1782
 5509W        W 9560   9.670   3.607  11.649  0.0385  0.2353  0.2467
 5510W        W 9561   7.370   8.084   0.928 -0.1918  0.1638 -0.2202
 5511W        W 9562   3.983   5.510  11.708 -0.2523  0.0102  0.1201
 5512W        W 9563   6.650   0.037   2.256  0.0181  0.0513  0.1601
 5513W        W 9564   8.931   7.076   0.845  0.1608 -0.0154  0.0694
 5514W        W 9565   3.568   0.492   0.021 -0.1781  0.1606  0.0167
 5515W        W 9566   6.859   7.289  13.335 -0.0842  0.1518  0.0269
 5516W        W 9567   2.117   2.769   0.658  0.1191  0.1560  0.0827
 5517W        W 9568   6.573   9.237   2.670  0.0092  0.1489 -0.1005
 5518W        W 9569   6.063   5.029  13.120  0.0256  0.2268 -0.0720
 5519W        W 9570   0.138  10.179   0.437  0.0198 -0.2420  0.2335
 5520W        W 9571   3.479   8.827   9.325 -0.0911  0.1653  0.0722
 5521W        W 9572   6.897   4.613  11.380 -0.0524 -0.1846 -0.3499
 5522W        W 9573   6.895   3.465  10.644 -0.0506 -0.0637  0.0807
 5523W        W 9574   8.612   4.786   1.329 -0.1047 -0.1162 -0.3581
 5524W        W 9575   8.759   9.525   3.912  0.2968 -0.0587  0.0599
 5525W        W 9576   1.431   0.774  13.038  0.0823  0.1246  0.3510
 5526W        W 9577   4.130   6.639   1.003  0.0634  0.1232 -0.1622
 5527W        W 9578   9.736   0.054   4.397 -0.3509  0.0007 -0.0064
 5528W        W 9579   7.940   4.523   0.146  0.2416  0.0235  0.2942
 5529W        W 9580   9.251   3.276   2.893  0.3142 -0.0140 -0.4451
 5530W        W 9581   3.517   3.909   0.300  0.1505  0.0433  0.1072
 5531W        W 9582   4.616   3.679   0.468  0.3226 -0.1725 -0.3334
 5532W        W 9583   6.449   9.691   0.991  0.3613 -0.1661  0.1181
 5533W        W 9584   5.368   0.308   9.114  0.1975  0.3846  0.0725
 5534W        W 9585   0.737   9.520   9.607 -0.1922  0.0543 -0.0837
 5535W        W 9586   4.930   5.327  12.482 -0.2227  0.1146 -0.1817
 5536W        W 9587   8.702   2.193   1.255 -0.2911  0.0792 -0.0954
 5537W        W 9588   2.211   4.746   2.198  0.0771  0.0151  0.1423
 5538W        W 9589   8.561   2.985   2.664 -0.2980 -0.0002  0.0126
 5539W        W 9590  10.134   8.852  13.451 -0.0216  0.4059  0.2209
 5540W        W 9591   3.417   2.208  11.014  0.0927  0.1999 -0.1167
 5541W        W 9592   5.852   9.523   0.663 -0.4984 -0.0250 -0.2517
 5542W        W 9593   1.656   9.553   3.311  0.1527 -0.1251  0.3350
 5543W        W 9594   8.415   5.201  12.637 -0.1714  0.0456  0.2033
 5544W        W 9595   3.653   6.649   2.935 -0.0870 -0.1367 -0.1280
 5545W        W 9596   7.819   7.176  12.827 -0.2164 -0.2720 -0.0677
 5546W        W 9597   9.367   3.376  13.239  0.0287  0.0977 -0.5252
 5547W        W 9598   2.607   7.403  11.942  0.1155 -0.0773 -0.0339
 5548W        W 9599   1.822   9.808   9.545 -0.0985  0.3667 -0.2287
 5549W        W 9600   0.494   8.115   3.325  0.0171 -0.0537  0.4217
 5550W        W 9601   3.638   8.744  13.619 -0.1049  0.0832 -0.2655
 5551W        W 9602   8.585   8.547  12.541 -0.0668  0.0057  0.1420
 5552W        W 9603   7.901   6.614  12.696 -0.1624 -0.2585  0.1905
 5553W        W 9604   6.554   3.731   1.533  0.0183  0.2422  0.0478
 5554W        W 9605   6.727   3.528  11.536 -0.0935 -0.2856  0.2675
 5555W        W 9606   3.147   7.863   1.399  0.1813  0.0984  0.2532
 5556W        W 9607   0.643   4.896  13.401 -0.0509 -0.0817 -0.0796
 5557W        W 9608   5.480   6.007  11.843 -0.2905  0.3088 -0.0581
 5558W        W 9609   8.776   6.027  11.269  0.0318 -0.1370  0.1234
 5559W        W 9610   9.581   0.607   9.570 -0.0479  0.1158 -0.1655
 5560W        W 9611   6.963   6.912  13.006  0.1732 -0.3645 -0.1580
 5561W        W 9612   7.670   7.513   5.119 -0.1790 -0.2210  0.0856
 5562W        W 9613   8.529   7.534   1.503  0.0558 -0.2402  0.1398
 5563W        W 9614   8.515   2.909  12.956 -0.0645 -0.2162  0.1527
 5564W        W 9615   1.213   3.162  13.734  0.0475  0.3033  0.0394
 5565W        W 9616   7.987   3.906   4.603  0.0816 -0.2618  0.0458
 5566W        W 9617   0.405   3.865   2.544 -0.0598  0.4823  0.1326
 5567W        W 9618   9.918   7.276   0.743  0.0102  0.1927 -0.0746
 5568W        W 9619   3.488   9.462   1.174  0.0658  0.0924 -0.3148
 5569W        W 9620   5.324   6.730   9.580 -0.0033  0.0252 -0.0520
 5570W        W 9621   4.654   4.084   0.063  0.1808 -0.0891  0.1776
 5571W        W 9622   8.656   4.267  12.126 -0.0315 -0.1120  0.0034
 5572W        W 9623   2.624   2.418   1.765  0.4230  0.1484  0.2709
 5573W        W 9624   7.207   3.991   0.994 -0.3458 -0.2531 -0.1418
 5574W        W 9625   6.473   5.064  12.816  0.1909  0.2036 -0.1308
 5575W        W 9626   4.557   3.938   4.125  0.4125 -0.0320 -0.2922
 5576W        W 9627   6.814   4.162   3.037  0.0194 -0.1975 -0.0789
 5577W        W 9628   0.205   7.152  13.436  0.1203 -0.1851 -0.1956
 5578W        W 9629   6.093   7.945   3.557  0.0111  0.4239  0.0309
 5579W        W 9630   3.172   6.134  10.909 -0.0321 -0.2491 -0.0220
 5580W        W 9631   9.323   9.465  10.074 -0.2632  0.3168  0.1735
 5581W        W 9632   0.696   6.256   3.523 -0.1938  0.1636  0.0700
 5582W        W 9633   7.070   2.546   2.518  0.1308 -0.0503  0.2900
 5583W        W 9634   6.583   4.241  10.251 -0.3257  0.2832  0.1537
 5584W        W 9635   0.675   8.576  12.046 -0.1948  0.3031  0.0655
 5585W        W 9636   7.443   1.605  12.495 -0.1830  0.1537  0.3945
 5586W        W 9637   9.149   2.665   0.612  0.3494 -0.0666 -0.1265
 5587W        W 9638   3.904   8.213   0.462 -0.1607  0.1137  0.3671
 5588W        W 9639   0.727   1.056   2.490 -0.3319 -0.3085 -0.2582
 5589W        W 9640   1.811   0.681   1.766  0.1866  0.0341  0.0148
 5590W        W 9641   1.528   2.679   1.449 -0.2661  0.0050 -0.0153
 5591W        W 9642   5.494   4.276  11.223 -0.0048 -0.2292 -0.3364
 5592W        W 9643   4.868   8.016  12.353  0.2414 -0.1360  0.0740
 5593W        W 9644   1.663   2.876  12.674  0.1320 -0.0133 -0.1373
 5594W        W 9645   6.923   8.898   1.274  0.2444 -0.2043 -0.2345
 5595W        W 9646   0.812   1.491  10.662  0.0660 -0.1527  0.1612
 5596W        W 9647   4.324   9.076   2.853 -0.0361  0.1851  0.0538
 5597W        W 9648   7.958   9.339   1.317  0.2715  0.0798  0.2081
 5598W        W 9649   6.084   6.061  10.651  0.0671 -0.0150  0.1400
 5599W        W 9650   5.221   2.649  10.810  0.2713 -0.0376 -0.0751
 5600W        W 9651   6.950   1.915  10.719 -0.0708  0.2403 -0.1013
 5601W        W 9652   2.973   8.407   2.484  0.0029  0.0161  0.2870
 5602W        W 9653   4.993   6.092  12.185 -0.1245 -0.0299  0.3119
 5603W        W 9654   1.509   0.497  11.459  0.2570 -0.3442 -0.1380
 5604W        W 9655   5.296   9.153  12.646 -0.1477 -0.1615  0.1718
 5605W        W 9656   2.640   4.462   2.047  0.1364 -0.1969  0.1878
 5606W        W 9657   3.312   7.844   2.993 -0.2231 -0.1293 -0.0725
 5607W        W 9658   8.447   7.801   0.956  0.1708 -0.0713 -0.0332
 5608W        W 9659   8.570   9.321   3.274 -0.1589 -0.4394 -0.1178
 5609W        W 9660   8.588   9.442   4.708  0.0794  0.0280 -0.0267
 5610W        W 9661   5.274   5.661  12.268  0.0927  0.0501 -0.0833
 5611W        W 9662   8.241   9.697  13.480  0.1484 -0.2247  0.0361
 5612W        W 9663   3.188   0.024   0.911  0.1849  0.0751  0.0766
 5613W        W 9664   2.261   1.927   1.728  0.1014  0.0769  0.0305
 5614W        W 9665   7.780   8.325   1.184 -0.1063  0.0009 -0.2064
 5615W        W 9666   2.016   9.377   3.062  0.2009 -0.1128  0.1834
 5616W        W 9667   9.456   4.712   3.766  0.0588 -0.3315 -0.2386
 5617W        W 9668   2.300   0.408  12.683  0.0580  0.1887 -0.0224
 5618W        W 9669   1.397   0.947   9.526 -0.0401 -0.1303 -0.2020
 5619W        W 9670   6.972   2.286  13.007  0.2838  0.0122 -0.0695
 5620W        W 9671   3.571   5.010   3.207 -0.1956  0.1026  0.2038
 5621W        W 9672   6.417   5.750  13.539  0.2372 -0.1395 -0.0356
 5622W        W 9673   7.946   2.787  13.736  0.0225  0.3025 -0.0628
 5623W        W 9674   2.431   6.576  11.277 -0.4663  0.2494  0.1056
 5624W        W 9675   1.744   7.405   4.331 -0.1859  0.1032 -0.0511
 5625W        W 9676   3.360   1.082   4.527  0.1254 -0.2018 -0.0933
 5626W        W 9677  10.200   1.726  12.778 -0.1849 -0.3451  0.0342
 5627W        W 9678   0.407   6.177   2.792  0.2146  0.3011  0.0496
 5628W        W 9679   6.642   0.860  13.118 -0.1579 -0.1639 -0.2673
 5629W        W 9680   1.258   9.217   1.938  0.0450 -0.1965 -0.1839
 5630W        W 9681   2.149   8.189  12.394 -0.0020 -0.0864 -0.2348
 5631W        W 9682   3.264   1.037  10.025  0.2148  0.1023  0.0024
 5632W        W 9683   2.781   4.815  11.909  0.0166  0.1111 -0.3612
 5633W        W 9684   4.991   7.365  10.292  0.3093  0.0133 -0.0606
 5634W        W 9685   2.927   4.226  11.856  0.0244  0.0913  0.1075
 5635W        W 9686   2.226   1.938  12.581 -0.0981 -0.0512  0.0258
 5636W        W 9687   7.582   8.761  10.612  0.0502 -0.0211  0.2014
 5637W        W 9688   2.891   5.709  10.862 -0.1177 -0.1448 -0.0583
 5638W        W 9689   7.929   1.469  12.784  0.1125  0.1223  0.0604
 5639W        W 9690   6.119   3.885  12.254 -0.0525  0.0242 -0.0665
 5640W        W 9691   5.855   2.746   0.914  0.2737  0.0216 -0.1774
 5641W        W 9692   5.217   9.101   3.189 -0.0910 -0.0519  0.0202
 5642W        W 9693   0.140   8.305   4.986  0.0935 -0.0407  0.0248
 5643W        W 9694   2.692   9.415   2.176 -0.3029  0.0871 -0.2109
 5644W        W 9695   0.170   4.804  10.245 -0.0210 -0.0402 -0.3080
 5645W        W 9696   5.331   2.159   9.702  0.2593  0.1541  0.0350
 5646W        W 9697   8.597   3.765  12.671  0.0436 -0.0062 -0.2024
 5647W        W 9698   3.297   0.100   3.551 -0.0254 -0.1874 -0.2035
 5648W        W 9699   3.734   4.742  10.301  0.1829  0.0430 -0.0734
 5649W        W 9700   4.802   5.091   3.328  0.3812  0.0595 -0.2941
 5650W        W 9701   2.195   1.293   3.667 -0.1324 -0.0307  0.0175
 5651W        W 9702   6.722   3.386  12.789 -0.2301 -0.2579 -0.2271
 5652W        W 9703   3.168   0.547  10.027  0.0743 -0.1794  0.0258
 5653W        W 9704   2.010   0.476  11.604 -0.1287 -0.0137  0.0631
 5654W        W 9705   5.594   6.480  12.840  0.2044 -0.1522  0.0663
 5655W        W 9706   8.854   9.148   4.180 -0.0364 -0.1119  0.0202
 5656W        W 9707   0.772   0.236   2.330 -0.1531  0.0370 -0.0651
 5657W        W 9708   0.101   6.738  11.705  0.1602 -0.4214  0.0170
 5658W        W 9709   7.511   9.515   3.387  0.0636  0.2161 -0.1095
 5659W        W 9710   3.367   2.566   0.737 -0.2147  0.0570 -0.4051
 5660W        W 9711   3.995   6.102  11.127  0.0866 -0.1704 -0.2614
 5661W        W 9712   2.045   1.612  11.577  0.0609 -0.0881 -0.0384
 5662W        W 9713   7.764   4.858  10.877  0.0503 -0.2356 -0.1017
 5663W        W 9714   5.986   6.274   2.551  0.3742 -0.2246 -0.1692
 5664W        W 9715  10.090   8.171  10.150 -0.0077  0.3051 -0.1025
 5665W        W 9716   0.847   9.152   8.963  0.0867  0.0611 -0.2064
 5666W        W 9717   7.489   3.029  12.123 -0.0243 -0.0726 -0.1213
 5667W        W 9718   4.452   0.969  13.130  0.0698  0.1212  0.0816
 5668W        W 9719   5.869   5.985   4.404  0.0270  0.0026  0.0728
 5669W        W 9720   4.448   0.448   2.048  0.0063  0.0857  0.0573
 5670W        W 9721   1.084   1.963   3.388  0.0234 -0.1938  0.1899
 5671W        W 9722   7.260   9.766   2.998 -0.3371 -0.3405 -0.1141
 5672W        W 9723   4.435   1.511   2.700 -0.1134  0.0410 -0.0610
 5673W        W 9724  10.107   3.759  10.304  0.1474  0.1802  0.1973
 5674W        W 9725   2.667   9.637   3.087 -0.2787  0.3515  0.2451
 5675W        W 9726   4.995   4.295  12.525 -0.0941  0.0192  0.0049
 5676W        W 9727   3.944   9.962  11.358 -0.1301 -0.1467  0.0916
 5677W        W 9728   8.916   6.742   4.875 -0.0098  0.2633  0.1540
 5678W        W 9729   4.443   6.621  13.618  0.0767  0.0607 -0.0359
 5679W        W 9730   6.908   2.203   2.902  0.2392  0.0325 -0.0374
 5680W        W 9731   8.366   4.408   1.739  0.2429 -0.1535 -0.1029
 5681W        W 9732   8.136   6.395   3.216  0.0021 -0.0658 -0.0320
 5682W        W 9733   7.362   2.846   3.248 -0.4132  0.0324  0.1639
 5683W        W 9734   9.613   3.870   1.035  0.0413 -0.0284  0.0507
 5684W        W 9735   6.042   9.204   2.954 -0.1107 -0.1769  0.0438
 5685W        W 9736   6.659   9.016   0.299  0.0111 -0.0231 -0.2367
 5686W        W 9737   7.645   3.439   3.399 -0.0423 -0.2547 -0.1903
 5687W        W 9738   8.423   6.527  12.728  0.1356  0.1044 -0.2316
 5688W        W 9739   5.650   7.133   1.945  0.0098  0.0179  0.3473
 5689W        W 9740   0.872   2.903   1.732  0.0161 -0.2258 -0.0035
 5690W        W 9741   5.380   8.619   0.340 -0.0006 -0.1532  0.0387
 5691W        W 9742   2.847   3.105  11.996  0.1981 -0.1301 -0.0385
 5692W        W 9743   2.458   4.420  12.004 -0.3148  0.1097 -0.1819
 5693W        W 9744   4.801   9.979  11.383  0.1916 -0.0086 -0.5180
 5694W        W 9745   0.173   1.426  11.793  0.4323 -0.1133 -0.1535
 5695W        W 9746   5.338   1.087  11.056  0.0963 -0.1645 -0.0155
 5696W        W 9747   1.536   5.969  13.784 -0.1990  0.1781 -0.0540
 5697W        W 9748   5.154   4.581   0.301 -0.1065  0.0995  0.0959
 5698W        W 9749   9.324   5.455   0.262 -0.1592  0.0438  0.4568
 5699W        W 9750   2.441   6.897   3.987  0.2065 -0.2289 -0.0398
 5700W        W 9751   4.930   0.296   3.706  0.3445  0.0462 -0.0351
 5701W        W 9752   5.549   7.252   3.364 -0.2991  0.0850  0.1197
 5702W        W 9753   7.575   2.538   4.219  0.0217 -0.4241  0.3410
 5703W        W 9754   0.252   9.558   1.967  0.1324 -0.1590  0.1752
 5704W        W 9755   8.482   0.105   4.744  0.1152 -0.4268  0.1111
 5705W        W 9756   3.942   8.829   1.354 -0.1316  0.0354 -0.0015
 5706W        W 9757   5.031   6.422   2.997  0.2395 -0.0689  0.1255
 5707W        W 9758   4.110   3.063   4.002 -0.1012 -0.0429 -0.0203
 5708W        W 9759   7.318   0.376   3.361 -0.3242 -0.2738 -0.0940
 5709W        W 9760   0.624   3.492   3.393  0.1244 -0.0663  0.1293
 5710W        W 9761   9.008   8.957  10.147  0.1093 -0.0460  0.0339
 5711W        W 9762   7.231   3.123  10.778 -0.0864  0.3082  0.0668
 5712W        W 9763   1.271   0.163  10.445  0.3844  0.1857 -0.3006
 5713W        W 9764   3.023   3.191   1.544  0.1580 -0.2249 -0.1505
 5714W        W 9765  10.167   2.973   3.898  0.1113  0.0867 -0.0732
 5715W        W 9766   0.343   8.453  12.735 -0.1986  0.0036 -0.1406
 5716W        W 9767   5.418   9.737  12.575  0.3429 -0.1890 -0.1707
 5717W        W 9768   6.987   4.698   8.995  0.3181  0.1678  0.0860
 5718W        W 9769   9.441   7.960   3.132 -0.2128 -0.3253 -0.5505
 5719W        W 9770   5.657   1.881   2.702  0.1863  0.1030  0.1415
 5720W        W 9771   9.044   8.849  13.897  0.1531 -0.0067 -0.0816
 5721W        W 9772   7.103   3.525   9.748  0.0534 -0.0470 -0.1843
 5722W        W 9773   9.499   2.520   1.445  0.1185 -0.1601 -0.2952
 5723W        W 9774   5.838   7.122   4.438  0.0762  0.1282  0.0173
 5724W        W 9775   4.628   6.581   3.274  0.1177 -0.0609 -0.3356
 5725W        W 9776   3.003   8.827   9.130  0.0759 -0.1599  0.2023
 5726W        W 9777   5.228   3.574  11.815 -0.0313  0.0790  0.0476
 5727W        W 9778   3.825   7.507  13.216 -0.0284 -0.4252 -0.0400
 5728W        W 9779   0.349   0.949  11.605 -0.2172  0.1872 -0.2734
 5729W        W 9780   8.511   3.876  11.558 -0.0220 -0.2350 -0.1716
 5730W        W 9781   9.894   4.610   2.115 -0.3228 -0.2334  0.2442
 5731W        W 9782   4.281   6.862   9.496 -0.1213  0.0413  0.1584
 5732W        W 9783   1.588   2.708  11.197  0.0857  0.0494  0.3377
 5733W        W 9784   7.648   1.540   8.143 -0.0664  0.1865  0.0535
 5734W        W 9785  10.128   0.916   0.220  0.1573  0.0322  0.2039
 5735W        W 9786   7.438   0.160  13.032 -0.0299 -0.0292 -0.0788
 5736W        W 9787   5.153   5.087   4.202 -0.4988  0.1863  0.1757
 5737W        W 9788   8.326   9.936  12.930  0.0591 -0.0789 -0.1661
 5738W        W 9789   2.275   5.346   1.018 -0.3616 -0.1115 -0.1619
 5739W        W 9790   5.139   6.786   0.737  0.0028 -0.0891  0.1995
 5740W        W 9791   8.544   5.819   1.340 -0.3341  0.2289  0.1411
 5741W        W 9792   2.852   1.943  11.200  0.0592  0.2388 -0.0391
 5742W        W 9793   9.226   6.920  12.197  0.0442 -0.0163 -0.2543
 5743W        W 9794   4.612   8.158   2.361  0.0038  0.1219 -0.3914
 5744W        W 9795   7.034   3.392  11.965 -0.0965 -0.3923 -0.2460
 5745W        W 9796   1.648   5.063  12.167 -0.2007 -0.0331 -0.2837
 5746W        W 9797   1.953   1.159   2.048 -0.0255  0.2858 -0.1062
 5747W        W 9798   9.993  10.178   3.468 -0.2576 -0.0546 -0.2759
 5748W        W 9799   9.845   5.166   2.116 -0.3680  0.1184 -0.2209
 5749W        W 9800   6.934   2.114   9.023 -0.2397  0.1793 -0.1818
 5750W        W 9801   7.797   7.480   2.114 -0.0767  0.1969  0.1978
 5751W        W 9802   6.607   5.906  10.704 -0.3388 -0.4404 -0.1145
 5752W        W 9803  10.026   7.085  13.071  0.0448  0.1446 -0.2968
 5753W        W 9804   3.109   6.756   2.877 -0.0224 -0.0553 -0.0291
 5754W        W 9805   1.922   4.441  13.903 -0.0934 -0.2203 -0.0276
 5755W        W 9806   5.778   4.627   2.564 -0.0571  0.0859  0.0035
 5756W        W 9807   3.254   4.599  12.085  0.0026 -0.0524  0.0112
 5757W        W 9808   9.950   1.274   3.872  0.1760  0.0788 -0.0141
 5758W        W 9809   1.804   6.495  10.914 -0.1493 -0.2023  0.2342
 5759W        W 9810   0.282   8.342  11.764 -0.2891 -0.0349  0.0921
 5760W        W 9811   7.888   1.212  10.734 -0.3266 -0.0461  0.5183
 5761W        W 9812   1.504   5.176  13.599  0.0523  0.0495 -0.1713
 5762W        W 9813   8.114   5.914   0.137 -0.2061 -0.1227 -0.2189
 5763W        W 9814   5.086   0.782  11.369 -0.5253  0.2192 -0.0439
 5764W        W 9815   7.625   7.520   0.862 -0.0325 -0.0822  0.3051
 5765W        W 9816   5.434   3.059   0.829 -0.0781  0.0345  0.1368
 5766W        W 9817   0.036   4.375   1.355  0.1846 -0.2041  0.4166
 5767W        W 9818   4.945   9.917   3.565  0.3411 -0.0706 -0.1809
 5768W        W 9819   0.345  10.097   3.976 -0.1102  0.3702 -0.0878
 5769W        W 9820   2.888   8.551  11.212 -0.0565  0.2250  0.1620
 5770W        W 9821   0.817   9.070   3.577  0.1140 -0.1953  0.1109
 5771W        W 9822   5.337   2.472  13.518  0.1296 -0.3029 -0.5065
 5772W        W 9823   2.408   5.419  12.743 -0.2718  0.0377 -0.1924
 5773W        W 9824   4.706   1.029   3.699  0.3104 -0.0475 -0.3738
 5774W        W 9825   4.840   1.665   4.393  0.0435 -0.0197 -0.3034
 5775W        W 9826   0.510   2.006   0.598 -0.1932 -0.0043 -0.0904
 5776W        W 9827   8.560   7.370  10.919  0.2258 -0.0295  0.0447
 5777W        W 9828   8.943   7.718   9.572 -0.0634 -0.1350 -0.1723
 5778W        W 9829   1.614   9.101   1.377  0.0801  0.0338 -0.2228
 5779W        W 9830   5.701   0.216  11.232  0.5210  0.1562 -0.1519
 5780W        W 9831   0.697   9.917   9.981 -0.1624  0.1611 -0.1988
 5781W        W 9832   9.774   8.120   4.079 -0.4103 -0.0414 -0.2076
 5782W        W 9833   5.005   3.080   1.623 -0.3556  0.0518  0.2796
 5783W        W 9834   8.917   8.627   2.612  0.1533 -0.0950  0.3171
 5784W        W 9835   4.971   7.594   1.210 -0.1443 -0.2919  0.1734
 5785W        W 9836  10.197   5.311   4.522 -0.4649 -0.1346 -0.1516
 5786W        W 9837   4.703   5.108   9.810  0.2439 -0.3149  0.0998
 5787W        W 9838   9.515   4.806   1.897  0.2818  0.1746 -0.0707
 5788W        W 9839   3.554   8.856   1.694 -0.0470 -0.2408 -0.2615
 5789W        W 9840   9.532   3.034  10.553 -0.0766  0.2828 -0.1204
 5790W        W 9841  10.027   3.914   1.403  0.0884  0.4630 -0.2418
 5791W        W 9842   6.870   2.163   9.777  0.2134 -0.3735 -0.0543
 5792W        W 9843   2.220   1.872  10.220  0.1287  0.2147  0.0700
 5793W        W 9844   8.710   5.015  13.703 -0.1497 -0.2111  0.2280
 5794W        W 9845   2.016   9.135   9.070 -0.1584 -0.0095 -0.0633
 5795W        W 9846   3.601   1.382   2.087  0.1327  0.0693 -0.1993
 5796W        W 9847   4.859   5.526  12.019  0.0381 -0.2836 -0.3082
 5797W        W 9848   1.430   8.109  10.070 -0.0917  0.1380 -0.3169
 5798W        W 9849   1.219   0.961   3.299  0.0325  0.5442  0.2615
 5799W        W 9850   0.563   3.802  10.461 -0.2222  0.0740 -0.0300
 5800W        W 9851   5.254   3.267  13.096  0.0146 -0.0404  0.2405
 5801W        W 9852   9.982   0.912  10.955 -0.4097 -0.2212  0.2195
 5802W        W 9853   5.040   9.226  10.767  0.3827  0.2730 -0.0175
 5803W        W 9854   1.072   9.177   4.668 -0.4012 -0.0225 -0.0023
 5804W        W 9855   9.672   5.915   9.761  0.0852  0.1527 -0.0948
 5805W        W 9856   1.448   0.173  12.345 -0.1569  0.0150  0.2331
 5806W        W 9857   8.551   9.990  10.080 -0.0763 -0.0513  0.4080
 5807W        W 9858   8.009   6.090   8.800 -0.0057 -0.2098  0.0927
 5808W        W 9859   4.381   4.419  13.314 -0.1374 -0.1841 -0.2241
 5809W        W 9860   2.140   2.695  13.633 -0.0386 -0.1000  0.0812
 5810W        W 9861   8.688   1.159  12.037  0.0715 -0.2113 -0.2037
 5811W        W 9862   8.474   4.024   1.384  0.1278 -0.1851  0.0380
 5812W        W 9863   9.185   9.966  11.616 -0.6396 -0.2928  0.2046
 5813W        W 9864   2.050   1.484  10.698 -0.0734  0.0754 -0.1599
 5814W        W 9865   3.898   4.034   0.558 -0.1229  0.1013  0.0131
 5815W        W 9866   3.432   9.268   9.070  0.0854  0.0469  0.2060
 5816W        W 9867   9.623   3.225  13.636  0.0040 -0.1390 -0.1782
 5817W        W 9868   1.491   5.455   0.798  0.4133 -0.4562 -0.0778
 5818W        W 9869   2.983   4.002   1.842 -0.0819 -0.2368 -0.1089
 5819W        W 9870   7.483   0.054  11.088  0.2463  0.1663  0.1326
 5820W        W 9871   1.589   1.250   3.583  0.0718 -0.3478  0.1009
 5821W        W 9872   0.681   0.639   2.778  0.0171 -0.2116  0.0010
 5822W        W 9873   8.619   8.749  11.744 -0.0356 -0.4679 -0.0680
 5823W        W 9874   6.393   3.396  10.714  0.1602  0.0378  0.1706
 5824W        W 9875   0.927   7.900   1.507  0.0651 -0.0782  0.0400
 5825W        W 9876   1.697   7.361   1.142  0.1512  0.1381 -0.0721
 5826W        W 9877   3.787   2.187  11.346  0.2416  0.0844 -0.1367
 5827W        W 9878   1.405   2.133   1.262  0.0176 -0.1559  0.0314
 5828W        W 9879  10.009   0.054  13.900 -0.0808  0.1905 -0.1902
 5829W        W 9880   4.693   1.530   1.224 -0.1356 -0.2490 -0.3020
 5830W        W 9881   8.526   8.120   1.837 -0.7067  0.1061  0.0238
 5831W        W 9882   8.958   8.573  12.040 -0.0878 -0.0426  0.1801
 5832W        W 9883   8.385   3.327   0.375 -0.3159  0.2420  0.5592
 5833W        W 9884   0.098   4.350  12.801 -0.1502 -0.4704  0.1349
 5834W        W 9885   9.363   1.836  12.385 -0.0228  0.0866  0.1539
 5835W        W 9886   8.988   2.000   8.592  0.2522  0.0804 -0.0343
 5836W        W 9887   4.113   7.284   1.296  0.0004 -0.0758 -0.2394
 5837W        W 9888   9.476   5.412   3.092  0.4212 -0.3288 -0.0254
 5838W        W 9889   3.582   8.853  11.886 -0.1106  0.0027 -0.1231
 5839W        W 9890   3.504   8.219   8.813 -0.0871  0.2331 -0.0229
 5840W        W 9891   6.465   2.496  12.872  0.0477  0.0729  0.0414
 5841W        W 9892   6.636   5.562   9.132  0.0128  0.1822  0.0868
 5842W        W 9893   3.917   6.538   0.015 -0.1582 -0.0234  0.0606
 5843W        W 9894   2.846   0.520   2.102 -0.0301 -0.0407 -0.0617
 5844W        W 9895   5.292   8.548   3.329  0.1549  0.0070 -0.1267
 5845W        W 9896   6.322   2.008   2.352  0.0439  0.4419  0.1332
 5846W        W 9897   4.330   8.595   0.521  0.2824 -0.1927  0.1893
 5847W        W 9898   4.840   2.098  10.215 -0.0577 -0.3919  0.2764
 5848W        W 9899   6.268   1.228   4.611 -0.0488  0.2410 -0.1533
 5849W        W 9900   8.981   5.805  11.680 -0.0757  0.1606  0.1004
 5850W        W 9901   7.422   4.866   3.597 -0.0399  0.1122 -0.0413
 5851W        W 9902   7.806   9.106  11.574  0.2341 -0.2274 -0.1467
 5852W        W 9903   3.769   0.240   0.427 -0.0270 -0.0241 -0.0899
 5853W        W 9904   7.078   7.916   3.136  0.0852 -0.2869  0.3662
 5854W        W 9905   0.909   5.449  11.354  0.1310  0.1727  0.3123
 5855W        W 9906   2.185   5.121   1.865  0.0813  0.0982 -0.0973
 5856W        W 9907   7.916   6.137   1.993  0.3509  0.1739  0.0670
 5857W        W 9908   4.420   9.047   8.998 -0.0141  0.3105 -0.1650
 5858W        W 9909   4.836   8.841   3.435 -0.0098 -0.1488  0.0495
 5859W        W 9910   8.236   0.526   5.007 -0.0741  0.1032  0.4146
 5860W        W 9911  10.029   2.222  12.684  0.2416 -0.0868 -0.1954
 5861W        W 9912   0.088   5.656   0.917  0.0397  0.2232  0.0848
 5862W        W 9913   8.947   0.703  12.273 -0.1947  0.2601  0.1036
 5863W        W 9914   7.099   7.192   3.909  0.0930  0.0241  0.1276
 5864W        W 9915   8.089   8.796   2.011  0.1098  0.0610  0.0280
 5865W        W 9916   1.045   6.495  10.445 -0.1336  0.2224 -0.2423
 5866W        W 9917   3.250   3.091   1.991  0.3197 -0.1140 -0.3462
 5867W        W 9918   0.805   4.749   1.161  0.0701  0.0492 -0.1411
 5868W        W 9919   0.800   8.995  13.384  0.1168 -0.1497 -0.0193
 5869W        W 9920   4.143   7.942   2.279 -0.0839 -0.2466  0.0918
 5870W        W 9921   8.784   4.801   2.698  0.1215  0.1779 -0.1906
 5871W        W 9922   0.316   7.113   4.089 -0.0072  0.0401  0.0609
 5872W        W 9923   9.182   4.242  13.249  0.0567 -0.4016  0.2189
 5873W        W 9924   1.058   0.653   3.698 -0.1549  0.0408 -0.1145
 5874W        W 9925   1.081   4.721   2.140  0.2635 -0.2116 -0.0631
 5875W        W 9926   7.471   9.198   4.098  0.3700 -0.3350 -0.0141
 5876W        W 9927   0.662   0.739   0.857  0.0539 -0.0185 -0.1478
 5877W        W 9928   2.395   3.218   0.636  0.4024  0.1406  0.1957
 5878W        W 9929   0.427   1.187  10.800  0.2645  0.0851  0.0820
 5879W        W 9930   2.962   7.445   0.461  0.0926 -0.2863 -0.2138
 5880W        W 9931   8.342   0.162   4.246 -0.0898 -0.2405 -0.2139
 5881W        W 9932   5.591   6.544  10.068  0.1114 -0.0470 -0.1240
 5882W        W 9933   1.504   9.074   2.395 -0.0946  0.0639 -0.1770
 5883W        W 9934   4.950   8.533  10.573 -0.4474  0.1069 -0.1304
 5884W        W 9935   9.187   7.914   9.935  0.2409 -0.0936 -0.0243
 5885W        W 9936   6.617   6.681   3.310  0.0146 -0.1369  0.0792
 5886W        W 9937   1.129   9.845   8.742  0.1156  0.0616  0.2288
 5887W        W 9938   1.249   1.735  13.668  0.0369 -0.0420 -0.1544
 5888W        W 9939   9.993   1.537  13.163 -0.0196 -0.1222 -0.3836
 5889W        W 9940   7.363   0.332   0.018  0.1615  0.1921  0.0773
 5890W        W 9941   5.721   5.143  10.144 -0.0188 -0.2851  0.0705
 5891W        W 9942   6.644   6.063  12.003  0.1886 -0.0898  0.0753
 5892W        W 9943   0.897   0.312   4.994 -0.0326  0.3324  0.2330
 5893W        W 9944   7.697   7.683  10.931 -0.4748  0.1309 -0.0074
 5894W        W 9945   6.554   2.481   2.632 -0.0944  0.0374  0.0294
 5895W        W 9946   9.029   0.229   1.888 -0.0628  0.2368 -0.2135
 5896W        W 9947   3.034   2.046   9.255  0.0892 -0.4125  0.0311
 5897W        W 9948   8.044   6.168  13.518  0.1344  0.1726  0.2844
 5898W        W 9949   4.967   1.764  10.973 -0.0201  0.1440  0.0931
 5899W        W 9950   9.664  10.070  12.494 -0.2213 -0.0237  0.0561
 5900W        W 9951   5.563   7.944   4.105  0.2134  0.0067  0.1501
 5901W        W 9952   2.809   7.436   1.282  0.1064 -0.0761  0.0930
 5902W        W 9953   1.386   7.351   9.438 -0.2493 -0.2669  0.1134
 5903W        W 9954   4.601   0.489   4.002 -0.1788  0.1850 -0.0537
 5904W        W 9955   4.100   4.753  12.362 -0.1229 -0.2290  0.2158
 5905W        W 9956   0.185   2.988  10.565 -0.1434  0.2154  0.1111
 5906W        W 9957   1.708   5.996  12.859  0.0471  0.1296  0.2284
 5907W        W 9958   3.965   9.407  12.705  0.2079 -0.3224  0.1302
 5908W        W 9959   2.023   9.248   1.229 -0.1927 -0.1156 -0.2762
 5909W        W 9960   4.600   1.936  10.601  0.0752  0.0361 -0.0672
 5910W        W 9961   1.679   1.329  13.775 -0.1008  0.3893 -0.3086
 5911W        W 9962   8.950   5.118   2.271  0.4119 -0.0591  0.1286
 5912W        W 9963   7.707   9.104   1.689  0.1934 -0.1091 -0.0848
 5913W        W 9964   3.328   6.230   1.943  0.1166 -0.0987 -0.2342
 5914W        W 9965   4.848   1.355   4.012 -0.0926 -0.0718  0.0107
 5915W        W 9966   2.268   4.007  12.944 -0.0593  0.1561  0.2208
 5916W        W 9967   2.034   8.838   1.552  0.0082 -0.4292  0.2145
 5917W        W 9968   8.723   4.935   9.659 -0.2833 -0.0331  0.0473
 5918W        W 9969   3.760   3.604   1.427 -0.4435 -0.4366  0.0190
 5919W        W 9970   8.994   7.312   4.040 -0.1146 -0.0896  0.0255
 5920W        W 9971   6.529   9.279   3.148  0.0632  0.0410 -0.2263
 5921W        W 9972   7.709   8.265   2.769 -0.0325  0.2207  0.2822
 5922W        W 9973   6.518   3.586  13.802  0.1686 -0.0198 -0.1240
 5923W        W 9974   9.681   5.136  13.288 -0.1276 -0.0745  0.1526
 5924W        W 9975   0.989   9.577  10.157  0.1623  0.0727 -0.4335
 5925W        W 9976   2.255   1.144   9.575 -0.1339 -0.0950 -0.2721
 5926W        W 9977   7.879   1.853   0.526 -0.0051 -0.1911 -0.2890
 5927W        W 9978   3.131   7.933   4.617 -0.3019  0.2219  0.2022
 5928W        W 9979   7.961   0.367  11.157 -0.2080  0.1524 -0.2464
 5929W        W 9980   4.539   5.176  13.216  0.1026 -0.0292  0.2927
 5930W        W 9981   0.441   1.354   2.863 -0.2146 -0.1908 -0.0279
 5931W        W 9982   1.716   3.907   0.101 -0.1252 -0.1393  0.1937
 5932W        W 9983   6.322  10.028  13.899  0.3016 -0.0799 -0.0214
 5933W        W 9984   8.940   5.513  11.276 -0.1037 -0.0655 -0.2473
 5934W        W 9985   5.675   1.006  13.625 -0.0181 -0.2511 -0.1898
 5935W        W 9986   1.833   8.446  13.378 -0.0157  0.0322 -0.0102
 5936W        W 9987  10.106   4.295  13.285 -0.1238 -0.3561 -0.0358
 5937W        W 9988   2.173   0.458   9.130  0.0474  0.0881 -0.3349
 5938W        W 9989   7.031   1.943  11.706  0.2783 -0.1165 -0.0303
 5939W        W 9990   3.406   6.108  12.711  0.1341 -0.0502 -0.3491
 5940W        W 9991   7.121   8.171   9.543  0.1029  0.0197 -0.0326
 5941W        W 9992   0.544   2.685  13.016 -0.4673 -0.0883 -0.0807
 5942W        W 9993   0.936   3.065  12.066 -0.0185 -0.0490  0.0240
 5943W        W 9994   8.383   8.054  12.604 -0.2718 -0.1465 -0.1519
 5944W        W 9995   1.125   9.680   2.080  0.2224  0.1001  0.0693
 5945W        W 9996   2.451   2.168   2.174 -0.3861  0.1711  0.2267
 5946W        W 9997   1.170   1.801   1.014  0.1510 -0.0446 -0.2272
 5947W        W 9998   2.845   0.115   2.404  0.5002 -0.3202  0.1163
 5948W        W 9999   4.502   3.623  10.748  0.3944 -0.3703  0.0972
 5949W        W10000   3.300   6.931   1.719 -0.2692  0.2240 -0.1930
 5950W        W10001  10.018   2.170   1.636  0.0173  0.2039  0.2006
 5951W        W10002   4.173   6.187  13.580 -0.1214  0.1028  0.2350
 5952W        W10003   4.493   4.859   1.376 -0.3049 -0.0153  0.1603
 5953W        W10004   7.792   6.767  10.612  0.0736  0.3056  0.0870
 5954W        W10005   7.458   3.836   2.986 -0.3335 -0.2226  0.0240
 5955W        W10006   4.146   5.412  13.021  0.3879 -0.2270  0.1102
 5956W        W10007   9.690   5.696   3.860 -0.3188 -0.1960 -0.0414
 5957W        W10008   0.509   7.374  10.159 -0.5297 -0.0405 -0.2189
 5958W        W10009   8.368   8.135  10.284 -0.1285  0.0379 -0.1782
 5959W        W10010   6.890   7.934   1.125 -0.0769 -0.0622 -0.1310
 5960W        W10011   1.004   5.427  12.794 -0.0073  0.2551  0.0587
 5961W        W10012   5.554   1.505   4.365 -0.1570  0.0442  0.0501
 5962W        W10013   8.120   2.393   1.114 -0.3103 -0.1874 -0.0467
 5963W        W10014   4.852   3.352   2.632  0.2077  0.5117 -0.0817
 5964W        W10015   5.780   9.842   4.796 -0.1502 -0.1159  0.0652
 5965W        W10016   1.185   8.123   0.349 -0.1803  0.3284  0.0937
 5966W        W10017   4.603   0.002   2.772  0.2430  0.2194 -0.0720
 5967W        W10018   1.287   8.598  10.126 -0.0586  0.0549  0.0558
 5968W        W10019   9.220   9.879  11.081  0.0224  0.1095  0.0808
 5969W        W10020   1.237   7.107   3.633  0.3601 -0.0468 -0.2687
 5970W        W10021   6.605   1.180   9.174 -0.0976 -0.0002  0.1941
 5971W        W10022   1.803   2.381  13.799  0.1164  0.0984 -0.1788
 5972W        W10023   4.397   9.225   4.539 -0.0661 -0.1753 -0.1499
 5973W        W10024   1.523   5.711   0.332 -0.1919 -0.1621  0.2590
 5974W        W10025   1.903   3.520   3.923 -0.0505  0.1304 -0.1084
 5975W        W10026   2.694   4.339  13.225  0.0625 -0.2678  0.1619
 5976W        W10027   7.243   6.561   9.798  0.0355 -0.3116  0.0196
 5977W        W10028   9.904   6.880   9.587 -0.0023  0.1220 -0.2371
 5978W        W10029   9.775   5.597  13.777 -0.0274  0.0036  0.2865
 5979W        W10030   3.388   8.514   2.152 -0.0583 -0.0374 -0.3120
 5980W        W10031   6.152  10.070   2.200 -0.1304  0.0720  0.0590
 5981W        W10032   9.338   3.912   3.671  0.0072 -0.0942  0.0264
 5982W        W10033   9.090   4.667   2.215  0.0799 -0.2197  0.0833
 5983W        W10034   7.747  10.167   1.681 -0.0202 -0.1460  0.1538
 5984W        W10035   8.261   1.870  12.734 -0.0497 -0.0456  0.0012
 5985W        W10036   2.145   6.526   2.709 -0.1590 -0.3537 -0.1538
 5986W        W10037   9.340   5.323  10.866 -0.1450 -0.2611 -0.2987
 5987W        W10038   4.485   2.516   9.868 -0.2200 -0.1111  0.0670
 5988W        W10039   3.860   7.128   3.096  0.2115 -0.1126 -0.1175
 5989W        W10040   0.957   6.220   0.916  0.3106 -0.1555 -0.0159
 5990W        W10041   2.624   5.297  11.735  0.0891  0.2693 -0.0559
 5991W        W10042   7.066   1.883  12.659  0.2058  0.1364 -0.2064
 5992W        W10043   6.971   9.403   2.854 -0.0574  0.1276  0.1768
 5993W        W10044   6.176   4.411   3.453 -0.1759 -0.1223 -0.1518
 5994W        W10045   8.137   4.788   3.510 -0.0253  0.2989  0.1171
 5995W        W10046   2.158   7.792   4.300  0.3040 -0.0081  0.2813
 5996W        W10047   3.557   2.598   9.655 -0.1400 -0.2219 -0.0598
 5997W        W10048   6.949   7.950   8.803 -0.1530  0.1704  0.1263
 5998W        W10049   1.038   0.718   2.283  0.3091  0.0664 -0.1184
 5999W        W10050   7.533   5.768   5.379  0.0062  0.2637 -0.3712
 6000W        W10051   8.107   6.047   3.924 -0.1914  0.0763 -0.1335
 6001W        W10052   6.905   9.545  13.308  0.0531  0.0886 -0.0451
 6002W        W10053   8.479   8.421   2.243  0.0200 -0.0702 -0.1248
 6003W        W10054   9.545   1.142  11.108  0.0799 -0.1239 -0.2639
 6004W        W10055   9.278   6.137  13.465  0.0495  0.0886 -0.2404
 6005W        W10056   1.381   5.668  13.016  0.0749  0.0472 -0.1890
 6006W        W10057   6.024   8.609  13.585 -0.6334  0.2292  0.3863
 6007W        W10058   3.655   6.852   4.275 -0.0456 -0.1744 -0.0707
 6008W        W10059  10.007   9.548  11.251 -0.1435 -0.1836 -0.2255
 6009W        W10060   6.784   8.489   0.159 -0.4004 -0.1193  0.1909
 6010W        W10061   3.992   5.702   1.036  0.0830  0.0941 -0.1918
 6011W        W10062   0.026   8.397   3.306 -0.1076 -0.0345 -0.1336
 6012W        W10063   6.166   5.463  12.897  0.0746  0.1136 -0.4033
 6013W        W10064   6.246   5.543  10.530  0.3552 -0.0238 -0.3501
 6014W        W10065   4.905   4.581   3.428 -0.1660  0.0994  0.2324
 6015W        W10066   2.813   8.713   4.859  0.0446 -0.0139 -0.0186
 6016W        W10067   0.881   3.915  11.452  0.0125  0.2277 -0.5078
 6017W        W10068   8.282   8.546   9.663 -0.0561 -0.0737 -0.2129
 6018W        W10069   6.147   7.701   0.626  0.1712 -0.0308  0.1693
 6019W        W10070   2.807   1.107   3.506  0.0623  0.0424 -0.2141
 6020W        W10071   9.785   0.998   1.180  0.1022  0.3854 -0.1137
 6021W        W10072   1.691   7.235  12.182 -0.1263 -0.0590  0.0324
 6022W        W10073   1.122  10.102   1.038 -0.4045  0.0529 -0.4336
 6023W        W10074   6.129   1.515   1.282  0.0051  0.1933  0.3194
 6024W        W10075   9.802   6.945   4.179 -0.1269 -0.2044  0.1070
 6025W        W10076   5.199   0.604   9.609  0.1027  0.0763 -0.0672
 6026W        W10077   3.114   0.451  12.555 -0.2550  0.1346 -0.0210
 6027W        W10078   5.240   0.615  10.921  0.2156  0.2549  0.2099
 6028W        W10079   8.608   2.065   4.232 -0.0792 -0.1518 -0.0484
 6029W        W10080   8.120   1.053  13.255 -0.2388  0.1327  0.4858
 6030W        W10081   1.029   0.930   0.613  0.0905 -0.0137 -0.1681
 6031W        W10082   4.968   0.922  13.019  0.1431 -0.0770  0.2651
 6032W        W10083   3.587   4.463   1.694  0.1111  0.0104 -0.0096
 6033W        W10084   3.214  10.018  13.842 -0.4169  0.0446 -0.0768
 6034W        W10085   8.361   4.253   3.242  0.1572  0.1401 -0.1029
 6035W        W10086   0.836   5.089   0.373  0.0064  0.1605 -0.0508
 6036W        W10087   7.718   0.848   1.458 -0.0114 -0.2394 -0.0358
 6037W        W10088   3.101  10.114   8.816  0.2149 -0.0338 -0.0507
 6038W        W10089   1.933   1.442  12.786  0.0359 -0.1439 -0.0133
 6039W        W10090   1.507   7.804   4.075  0.0705  0.0259 -0.0794
 6040W        W10091   6.794   4.818   8.497  0.0621  0.0919 -0.4727
 6041W        W10092   4.288   7.239  12.132 -0.1307 -0.2151  0.1564
 6042W        W10093   6.749   6.795   1.622 -0.2051 -0.2192 -0.1870
 6043W        W10094   3.197   8.743   9.693 -0.0006  0.2187  0.0138
 6044W        W10095   2.549   1.822  13.393 -0.2464 -0.3680 -0.1216
 6045W        W10096   0.927   7.771   3.271 -0.1670  0.0636 -0.2123
 6046W        W10097   2.743   7.010   0.138 -0.3530  0.0811  0.1310
 6047W        W10098   5.945   4.686   2.043 -0.2342  0.2057 -0.2014
 6048W        W10099   4.859   1.788   1.872 -0.0034  0.3091  0.1229
 6049W        W10100   9.208   5.073   9.647 -0.0922 -0.1460 -0.1197
 6050W        W10101   0.239   9.668   2.784  0.0498  0.0054  0.3661
 6051W        W10102   9.673   0.236  10.540 -0.0821  0.0891  0.1004
 6052W        W10103   8.807   8.473   3.589  0.0593  0.0050 -0.3315
 6053W        W10104   8.524   8.904   0.222 -0.0207 -0.0286 -0.3909
 6054W        W10105   9.679   5.902   0.216 -0.1530 -0.2206  0.0422
 6055W        W10106   0.036   6.515  11.261  0.0843  0.1493  0.2414
 6056W        W10107   0.901   0.586  12.954 -0.0493  0.0517 -0.1157
 6057W        W10108   7.515   9.813   2.527  0.1475  0.2859  0.1340
 6058W        W10109   6.217   6.041   1.292 -0.0663 -0.2177  0.0931
 6059W        W10110   7.744   7.920  11.968 -0.1673 -0.1281  0.2316
 6060W        W10111   2.375   1.448   2.831 -0.2362  0.3021  0.1759
 6061W        W10112   4.714   7.951  10.608  0.3665 -0.1137  0.0417
 6062W        W10113   4.043   0.155  13.652 -0.0893  0.1833 -0.0730
 6063W        W10114   9.180   7.743  12.487 -0.0790 -0.0859 -0.0579
 6064W        W10115   7.907   6.427   3.692 -0.2911 -0.0974  0.0140
 6065W        W10116   6.394   3.929  11.365 -0.2718  0.4331 -0.1840
 6066W        W10117   3.915   0.994   4.418  0.2975  0.0035 -0.0199
 6067W        W10118   2.012   4.622   0.456  0.0411 -0.2060  0.0490
 6068W        W10119   0.195   5.263   1.223  0.0448 -0.4765  0.0354
 6069W        W10120   5.224   8.741  12.393 -0.2358 -0.1844  0.1011
 6070W        W10121   1.082   8.902  12.405  0.4920  0.3300  0.0166
 6071W        W10122   8.871   7.119  12.470  0.1879 -0.1362  0.0887
 6072W        W10123   1.353   5.939  12.057 -0.2081  0.0742  0.0182
 6073W        W10124   9.792   8.557   9.907  0.1341  0.0532  0.2154
 6074W        W10125   6.795   2.783  13.363  0.0093 -0.1642 -0.1940
 6075W        W10126   6.289   9.214   1.647 -0.0280 -0.1371  0.1027
 6076W        W10127   4.058   9.981   0.459 -0.0780  0.0365 -0.0466
 6077W        W10128   0.558   5.633   1.242  0.2455 -0.4169 -0.0926
 6078W        W10129   8.349   9.387   4.269  0.2441 -0.1828  0.0084
 6079W        W10130   8.411   4.582   0.352  0.0345  0.1002  0.1211
 6080W        W10131   0.112   5.038   3.372  0.0770 -0.0053 -0.1672
 6081W        W10132   2.973   0.990  12.163  0.0096  0.0655 -0.1906
 6082W        W10133   2.811   8.370   4.481 -0.1088  0.1683  0.0073
 6083W        W10134   8.313   4.627  12.386  0.1613 -0.3152  0.1221
 6084W        W10135   3.129   9.800  10.907  0.1239 -0.0585  0.1889
 6085W        W10136   4.443   9.507  12.042 -0.1252 -0.1011  0.0108
 6086W        W10137   4.159   2.539  11.164 -0.0345  0.1399  0.3546
 6087W        W10138   2.532   8.677   1.526  0.0839 -0.1867  0.1674
 6088W        W10139   1.077   0.358   4.194 -0.1148  0.3858 -0.0262
 6089W        W10140   4.289   5.304  10.060  0.1927 -0.1440 -0.3222
 6090W        W10141   5.800   7.147   3.899  0.0001 -0.2244  0.1941
 6091W        W10142   5.912   5.606   1.856 -0.1770 -0.5972 -0.3184
 6092W        W10143   5.433   9.876   1.134  0.0343  0.0326 -0.0465
 6093W        W10144   9.988   6.302   0.363  0.3373 -0.0576  0.3279
 6094W        W10145   6.697   7.603  13.681 -0.1195 -0.2186  0.1223
 6095W        W10146   2.744   1.425  12.081  0.1054  0.2112 -0.0383
 6096W        W10147   3.450   7.551   0.212  0.2456 -0.1331  0.0164
 6097W        W10148   5.065   4.207   2.350 -0.4503  0.0820  0.0204
 6098W        W10149   1.525   6.217  11.241  0.1400 -0.2823 -0.1306
 6099W        W10150   7.610   0.450  13.460  0.0884 -0.0356  0.1110
 6100W        W10151   7.438   4.834  12.506 -0.2043  0.3663  0.4941
 6101W        W10152   9.437   6.605  13.239 -0.1002  0.1660  0.0554
 6102W        W10153   3.324   6.932  11.466 -0.1328 -0.3051  0.2444
 6103W        W10154   3.200   5.294   3.395  0.1097 -0.1207 -0.2474
 6104W        W10155   5.659   9.893   2.058 -0.0943  0.0357  0.1162
 6105W        W10156   4.458   2.037   0.157 -0.1302  0.2015 -0.3770
 6106W        W10157   9.056   8.450   3.080 -0.0708 -0.3833  0.3553
 6107W        W10158   4.919   1.307   0.404 -0.0505 -0.2677  0.0226
 6108W        W10159   6.317   5.794  12.507  0.0564 -0.3044  0.1420
 6109W        W10160   2.393   3.739   3.668  0.1671 -0.0219  0.4353
 6110W        W10161   2.047   2.262   3.041 -0.1069 -0.0521  0.3258
 6111W        W10162   9.537   4.208   1.372 -0.0235  0.0229  0.0369
 6112W        W10163   5.698   4.998   1.459  0.1809  0.1477 -0.3045
 6113W        W10164   0.173   5.726   2.905 -0.0364 -0.2262  0.0051
 6114W        W10165   9.898   8.196   2.978 -0.1212  0.0381 -0.3105
 6115W        W10166   3.797   8.063  11.836  0.2915 -0.1962  0.1328
 6116W        W10167   7.779   1.400  11.151  0.0751  0.4695 -0.3215
 6117W        W10168   6.011   5.048  10.536  0.0956 -0.0426  0.3056
 6118W        W10169   0.734   7.248  13.329 -0.1376 -0.2067 -0.0886
 6119W        W10170   3.851   1.723  11.296 -0.0221  0.2241  0.1946
 6120W        W10171   3.655   1.011   1.688  0.2121  0.0104  0.2440
 6121W        W10172   2.566   7.133   4.968  0.0628 -0.1286 -0.0765
 6122W        W10173   1.997   0.535   0.502 -0.1773 -0.4282  0.1935
 6123W        W10174   7.855   8.172  10.129  0.0709  0.3716  0.1718
 6124W        W10175   6.962   1.609   3.728  0.1301 -0.2163 -0.1037
 6125W        W10176   6.085   8.224  10.600 -0.0118  0.1419 -0.0666
 6126W        W10177   6.517   3.937  12.725  0.2759  0.0988  0.0474
 6127W        W10178   9.732   7.518  11.121  0.2170  0.1456 -0.4678
 6128W        W10179   1.425   6.160   2.493 -0.2630  0.3997  0.0466
 6129W        W10180   8.924   3.470   4.255  0.0725  0.1165  0.3777
 6130W        W10181   5.573   8.683  11.248  0.1106  0.0865 -0.0133
 6131W        W10182   0.762   3.156  11.223  0.0866 -0.0127  0.0843
 6132W        W10183   4.988   2.920   3.765  0.0991  0.0453 -0.1691
 6133W        W10184   3.018   8.867  10.307  0.0068 -0.0918 -0.0223
 6134W        W10185   7.484   6.595   6.018  0.1983  0.2194  0.3028
 6135W        W10186   5.375   1.961  12.132  0.0087  0.2587  0.2263
 6136W        W10187   7.734   6.884  12.300 -0.0381  0.0831 -0.0330
 6137W        W10188  10.186   3.425  11.853 -0.1187 -0.0155 -0.0250
 6138W        W10189   5.808   9.517   1.494 -0.0716 -0.0091 -0.0236
 6139W        W10190   0.416   2.957   0.755 -0.1618  0.1171  0.0726
 6140W        W10191   3.920   1.232  11.278 -0.0178  0.3508 -0.3046
 6141W        W10192   5.480   0.469   3.682 -0.1910 -0.2090 -0.5038
 6142W        W10193   2.765   3.404  10.364 -0.1336 -0.1309  0.1073
 6143W        W10194   1.465   2.823   2.385 -0.0790 -0.0734  0.4205
 6144W        W10195   4.245   8.153   2.715 -0.3605 -0.2918 -0.1117
 6145W        W10196   2.429   8.278  10.779  0.3663  0.0959  0.1464
 6146W        W10197   7.881   2.260   5.166 -0.0064 -0.0320 -0.1814
 6147W        W10198   9.906   5.050  10.334 -0.0112 -0.0333 -0.1067
 6148W        W10199   2.325   2.650   4.506 -0.0826 -0.2553  0.0772
 6149W        W10200   6.948   0.993   2.931  0.1180 -0.3370 -0.2598
 6150W        W10201   3.733   5.691   9.459  0.1738  0.1644  0.1520
 6151W        W10202   5.465   7.254  11.643 -0.3541  0.0909 -0.2269
 6152W        W10203   8.381   9.319   0.566 -0.2005 -0.0834  0.2202
 6153W        W10204  10.189   6.186  13.341 -0.3466  0.0225 -0.2593
 6154W        W10205   3.574   2.975   9.990  0.0781 -0.1962 -0.2052
 6155W        W10206   4.185   6.714   2.846 -0.2090  0.1462  0.1551
 6156W        W10207   1.358   4.711   1.380 -0.1976  0.0451  0.0788
 6157W        W10208   6.273   3.323   2.496  0.0045  0.1441  0.0971
 6158W        W10209  10.107   3.697   4.451 -0.4782  0.3040  0.5576
 6159W        W10210   3.538   5.672   1.166  0.4673 -0.3201 -0.3840
 6160W        W10211   5.347   2.032  11.603 -0.6149  0.2170 -0.0829
 6161W        W10212   2.215   1.525  13.672 -0.2711  0.3139  0.0571
 6162W        W10213   4.117   0.467  11.513 -0.1608 -0.0557 -0.3682
 6163W        W10214   8.528   5.367   2.073 -0.1075 -0.1581  0.1447
 6164W        W10215   1.152   6.365  13.767  0.2867 -0.0208  0.1654
 6165W        W10216   1.607   6.005   4.487  0.0801 -0.2650  0.1319
 6166W        W10217   8.858   0.114   1.404 -0.0949  0.0292 -0.1583
 6167W        W10218   3.999   8.999   0.427 -0.0931 -0.1811 -0.0166
 6168W        W10219   3.167   8.012   2.201  0.0106 -0.0158 -0.0302
 6169W        W10220   2.537   2.315  10.390  0.0818 -0.0181 -0.3140
 6170W        W10221   0.367   2.474   0.412  0.0082  0.1079  0.1373
 6171W        W10222   1.318   7.895   9.452 -0.3671 -0.1844  0.3248
 6172W        W10223   8.863   1.865   2.514 -0.0045  0.0612  0.2065
 6173W        W10224   0.685   0.493  11.900  0.3930 -0.0625 -0.2321
 6174W        W10225   7.593   8.396  12.350  0.3338  0.0099 -0.2319
 6175W        W10226   4.216   0.847   2.300  0.0641  0.1158  0.1191
 6176W        W10227   5.918   7.986  12.865 -0.2294  0.0509 -0.0282
 6177W        W10228   0.797   5.640   9.316 -0.1306  0.1658 -0.4097
 6178W        W10229   9.863   9.690  10.044 -0.1723  0.0670  0.0914
 6179W        W10230   1.478   7.266   0.091  0.0311 -0.0166  0.0393
 6180W        W10231   4.150   8.651  12.074  0.0734  0.0897  0.1678
 6181W        W10232   1.565   4.549   3.471  0.0602 -0.1864  0.0662
 6182W        W10233   5.782  10.089  11.777 -0.0634  0.0632 -0.3229
 6183W        W10234   9.152  10.138   9.527  0.1002 -0.1331 -0.0211
 6184W        W10235   5.282   7.217  12.123  0.2862  0.0947  0.1537
 6185W        W10236   5.342   9.444   0.889  0.2193 -0.2695 -0.0469
 6186W        W10237   1.837   0.880  10.066 -0.1677  0.1834  0.1379
 6187W        W10238   8.403   9.588  10.464 -0.1113 -0.1922  0.1781
 6188W        W10239   8.659   2.099  13.831  0.0069 -0.0205  0.0557
 6189W        W10240   0.748   5.300  11.835  0.2227  0.1700 -0.0251
 6190W        W10241   5.263   2.228  11.136 -0.2597  0.1085 -0.1406
 6191W        W10242   9.327   6.931   3.878 -0.0019  0.0566 -0.3148
 6192W        W10243   6.506  10.075   8.964 -0.2437  0.1892  0.1167
 6193W        W10244   3.875   4.391  12.570  0.2728 -0.0986 -0.0542
 6194W        W10245   0.752   9.565   3.590 -0.1671  0.0316 -0.2537
 6195W        W10246   4.580   5.925   9.546 -0.4565  0.2999  0.0896
 6196W        W10247   9.878   0.724  10.405  0.1527  0.1115 -0.0189
 6197W        W10248   5.799   2.520   4.944  0.0560  0.1645  0.0798
 6198W        W10249   0.288   0.734   1.615  0.0706  0.0388 -0.1163
 6199W        W10250   8.856   1.673  12.318  0.2961  0.0728 -0.2813
 6200W        W10251   5.234   6.880   1.625 -0.1411  0.3679  0.0819
 6201W        W10252   0.096   4.503  11.815 -0.0553 -0.1696 -0.0432
 6202W        W10253   3.308   3.906   9.875  0.1309  0.4704 -0.4718
 6203W        W10254   0.777   7.188   3.875  0.3123  0.1091 -0.1604
 6204W        W10255   7.350   8.095  12.673  0.0753  0.2719  0.0769
 6205W        W10256   0.386   9.291   3.793 -0.0726  0.1177 -0.0266
 6206W        W10257   9.193   4.513  12.249  0.1647  0.2587  0.1383
 6207W        W10258   9.616   7.650   5.797  0.1594 -0.3614  0.0343
 6208W        W10259   8.717   1.901   3.359 -0.0447  0.0296  0.0732
 6209W        W10260   8.591   5.837   3.691 -0.2595 -0.0778  0.3073
 6210W        W10261   4.624   8.875   8.559  0.2914  0.0381 -0.1370
 6211W        W10262   2.814   9.137   4.129  0.1161 -0.1043  0.0538
 6212W        W10263   9.731   5.145   1.503  0.0558  0.1000 -0.2129
 6213W        W10264   2.505   8.981   9.024  0.1252 -0.0260  0.2322
 6214W        W10265   1.873   8.682   0.581 -0.2423  0.3936  0.0982
 6215W        W10266   9.508   1.280  13.081 -0.0728  0.3436  0.1355
 6216W        W10267   7.333   1.505  13.525  0.1291 -0.0743 -0.1419
 6217W        W10268   4.942   7.216  12.987  0.0273  0.2374  0.0889
 6218W        W10269   3.555   6.451   1.577  0.2162 -0.1126  0.0388
 6219W        W10270   9.694   5.084  12.751  0.1670  0.1465 -0.1608
 6220W        W10271   8.383   0.910   1.445  0.2533 -0.0212 -0.2855
 6221W        W10272   9.271   0.696  11.278  0.4402  0.1065  0.1618
 6222W        W10273   1.381   5.892   2.967 -0.0226 -0.1240  0.1969
 6223W        W10274   6.073   9.991  10.367 -0.4043 -0.0633 -0.0424
 6224W        W10275   7.836   8.255   3.986 -0.0955  0.1612 -0.0162
 6225W        W10276   3.713   0.332  10.204 -0.0248  0.2008 -0.0691
 6226W        W10277   6.336   1.002   2.116 -0.0177  0.0531  0.1322
 6227W        W10278   4.728   0.240   3.192 -0.1204 -0.0202  0.1428
 6228W        W10279   8.091   8.360   1.739  0.2159  0.1562 -0.0752
 6229W        W10280   0.199   5.512   3.429  0.0037  0.3780  0.0701
 6230W        W10281   1.857   7.879   1.146  0.1246 -0.1513  0.2111
 6231W        W10282   1.041   8.626   9.687  0.4335  0.2785 -0.4528
 6232W        W10283   5.646   6.291   2.137 -0.1949  0.0735 -0.2113
 6233W        W10284   5.045   6.847   3.955 -0.1064 -0.1473 -0.1939
 6234W        W10285   9.302   7.919  10.493 -0.3661  0.0524 -0.0900
 6235W        W10286   7.968   3.851   3.322 -0.0237  0.1952  0.0601
 6236W        W10287   4.072   1.540  12.204 -0.4256 -0.1041 -0.1308
 6237W        W10288   0.806   1.019   3.090  0.0625 -0.2320  0.2799
 6238W        W10289   4.596   3.996   0.912  0.2950 -0.1371  0.0165
 6239W        W10290   4.639   6.641   2.694 -0.2739  0.2685 -0.2012
 6240W        W10291   0.714   8.401   4.233 -0.0796 -0.3372 -0.2522
 6241W        W10292  10.154   9.091  10.970  0.0565  0.2076  0.0287
 6242W        W10293   0.807   1.619   0.747 -0.2877  0.0613  0.2365
 6243W        W10294   6.093   7.446   2.680 -0.0119  0.1152  0.3888
 6244W        W10295   7.669   1.041   2.772  0.0551  0.1412 -0.1653
 6245W        W10296   7.140   9.791  11.230 -0.0072  0.1621 -0.3089
 6246W        W10297   6.758   3.223  11.100  0.2510 -0.1536 -0.2416
 6247W        W10298   8.921   0.893  10.295 -0.1674 -0.1243  0.0621
 6248W        W10299   9.065   6.811   4.351 -0.2365 -0.0962 -0.3468
 6249W        W10300   8.276   8.160  13.933 -0.6902 -0.0126  0.0871
 6250W        W10301   0.791   1.579   1.821 -0.4197  0.2195  0.0221
 6251W        W10302   5.708   9.220   3.434 -0.2026  0.1917 -0.3073
 6252W        W10303   4.119   4.413   2.963  0.1947 -0.0234 -0.1639
 6253W        W10304   0.705   9.145   4.265  0.3484  0.2194  0.2947
 6254W        W10305   2.683   3.836   3.246 -0.1907  0.2186 -0.1410
 6255W        W10306   6.576   4.863   4.413  0.0846 -0.0988  0.1016
 6256W        W10307   3.560   3.892  10.375 -0.0001  0.0843 -0.1981
 6257W        W10308   4.758   9.494   0.310  0.0500 -0.0118  0.2007
 6258W        W10309   3.931   7.061   0.845 -0.0315 -0.2179 -0.1464
 6259W        W10310   3.787   7.730   3.361  0.1363 -0.0133 -0.1543
 6260W        W10311   8.415   0.946  13.925  0.2281 -0.0217 -0.3357
 6261W        W10312   1.479   3.160   3.591 -0.0750  0.0525  0.1665
 6262W        W10313   5.605   5.284  10.940 -0.0775  0.0885  0.0143
 6263W        W10314   0.215   8.061   2.912 -0.3045  0.0065  0.2174
 6264W        W10315   2.183   2.786   2.926  0.0598 -0.2622 -0.1719
 6265W        W10316   7.281   1.388   3.174 -0.3188  0.2068  0.3165
 6266W        W10317   8.754   3.052   1.695  0.0402  0.0628  0.2577
 6267W        W10318   7.745   1.655  10.602 -0.0688 -0.3252 -0.0490
 6268W        W10319   9.686   9.066  13.724  0.1326  0.1337  0.0324
 6269W        W10320   1.030   4.280  11.838 -0.1410 -0.2684  0.2162
 6270W        W10321   8.872   3.589   3.751  0.0702 -0.1269  0.0531
 6271W        W10322   0.148   9.028  12.795  0.2707  0.0026  0.0314
 6272W        W10323   2.810   6.576   1.074 -0.2785 -0.3883  0.2785
 6273W        W10324   2.550   8.546  10.404  0.0701 -0.2144 -0.5714
 6274W        W10325   5.624   1.956  10.074 -0.3058  0.0097  0.1878
 6275W        W10326   5.135   5.854  12.781 -0.0071 -0.2108 -0.2279
 6276W        W10327   0.801   4.657  12.276 -0.1804  0.1447  0.1006
 6277W        W10328   9.956   3.271  10.179  0.0527 -0.0509  0.1128
 6278W        W10329   4.801   0.982   1.150 -0.0351  0.2504  0.0014
 6279W        W10330   5.455   5.963   4.094 -0.0265 -0.2908  0.0626
 6280W        W10331   1.949   7.125  10.347 -0.1870 -0.2416 -0.0964
 6281W        W10332   7.116   2.450  11.564 -0.2115  0.1502  0.0465
 6282W        W10333   9.916   8.324   1.489 -0.1740  0.3824 -0.0022
 6283W        W10334   5.924   1.740  10.433 -0.1121 -0.0739 -0.3917
 6284W        W10335   3.801   8.437  10.388  0.0784 -0.3248  0.1964
 6285W        W10336   3.857   6.975  11.360 -0.0589  0.0256 -0.0271
 6286W        W10337   7.729   1.796   3.558  0.3003 -0.2663  0.0752
 6287W        W10338   1.670   7.761   0.283 -0.1353 -0.0162 -0.0022
 6288W        W10339   6.961   7.763  10.338  0.3216 -0.0512  0.3456
 6289W        W10340   8.730   7.591  12.437 -0.0981  0.0038  0.1065
 6290W        W10341   5.834   5.947  12.211 -0.2255  0.3603 -0.0776
 6291W        W10342   7.367   0.358   4.667 -0.2865 -0.1144  0.0617
 6292W        W10343   2.122   9.821  10.922 -0.3926  0.0314  0.0776
 6293W        W10344   5.380   0.389   2.201  0.2318 -0.0972 -0.2705
 6294W        W10345   6.400   6.678   9.208 -0.1653  0.2299  0.1316
 6295W        W10346   2.694   8.006  10.286 -0.1531 -0.0990 -0.0750
 6296W        W10347   2.497   7.566   9.515 -0.2289  0.0566  0.0292
 6297W        W10348   0.488   3.764   0.289 -0.0034 -0.2999  0.1117
 6298W        W10349   5.283   0.040  13.411  0.0082 -0.1375 -0.3090
 6299W        W10350   4.409   2.381  10.405 -0.2455  0.2112 -0.3766
 6300W        W10351   6.076   6.795  13.492 -0.1496  0.0682  0.0516
 6301W        W10352   6.046   7.050   2.249 -0.1984  0.1072 -0.0598
 6302W        W10353   9.466   7.274  12.444  0.1113  0.0404  0.2144
 6303W        W10354   8.499   1.105   3.246 -0.0423 -0.2503 -0.2109
 6304W        W10355   3.035   5.104   2.877  0.3674 -0.2722 -0.0387
 6305W        W10356   0.232   0.661   1.104 -0.1135  0.1394 -0.0226
 6306W        W10357   8.591  10.080   3.900  0.0325 -0.2302 -0.3484
 6307W        W10358   5.629   0.541   0.619  0.0229 -0.2098  0.2374
 6308W        W10359   5.663   8.201   3.610  0.2048 -0.0006  0.2262
 6309W        W10360   4.588   6.001   0.469 -0.4906  0.0675  0.0400
 6310W        W10361   0.030   7.901   3.321  0.0499 -0.3394 -0.1155
 6311W        W10362   9.816   1.476  11.813 -0.1034 -0.1390  0.1438
 6312W        W10363   6.347   7.179   4.621  0.2577 -0.0491  0.1658
 6313W        W10364   4.411   5.582   2.824 -0.3316 -0.0341 -0.0414
 6314W        W10365   1.975   0.122  12.320  0.2173 -0.2857 -0.0853
 6315W        W10366   5.617   0.025   2.466  0.2450  0.1897  0.4030
 6316W        W10367   2.247   0.839  13.510  0.1671  0.1987  0.3413
 6317W        W10368   3.791   5.377  10.267 -0.4771 -0.2723  0.0771
 6318W        W10369   5.676   3.753  12.014 -0.1576 -0.0980 -0.0168
 6319W        W10370   1.717   1.559   0.677 -0.0767 -0.1187 -0.0914
 6320W        W10371   6.132   5.720   2.642  0.3580  0.0596  0.2390
 6321W        W10372   7.398   6.523  12.203 -0.1399 -0.1707  0.1768
 6322W        W10373   9.796   6.424   9.477  0.0521  0.1120 -0.0041
 6323W        W10374   5.446   2.690   9.468  0.1905 -0.1921 -0.0429
 6324W        W10375   8.016  10.088  11.169 -0.2283 -0.1404  0.1043
 6325W        W10376   0.776   2.789   0.313 -0.1434  0.3674 -0.0367
 6326W        W10377   9.693   4.717  12.387  0.1780  0.1916  0.1512
 6327W        W10378   9.517   8.494   1.723  0.3137 -0.3903  0.0412
 6328W        W10379   0.228   9.751   3.535 -0.0195  0.1251 -0.0216
 6329W        W10380   0.609   9.731  11.993 -0.0125 -0.0314  0.2967
 6330W        W10381   3.650   5.864  12.384 -0.2381  0.1584  0.4097
 6331W        W10382   8.330   8.936  12.697  0.0155  0.3668 -0.2052
 6332W        W10383   0.142   0.492   4.586 -0.0827  0.0550  0.0373
 6333W        W10384   2.339   3.021  11.131 -0.0605  0.2096  0.2821
 6334W        W10385   3.105   2.606  12.759 -0.0923  0.3103 -0.2409
 6335W        W10386   8.109   5.332   3.224  0.1136 -0.1540 -0.0481
 6336W        W10387   7.879   6.763   2.744 -0.1860  0.0470 -0.0877
 6337W        W10388   6.858   8.121  11.845 -0.0247  0.1380 -0.0724
 6338W        W10389   4.774   0.336  11.620 -0.0443 -0.1220  0.0382
 6339W        W10390   9.609   8.865   3.934 -0.0044  0.0007 -0.3804
 6340W        W10391   3.007   9.122   1.042  0.2856  0.2137 -0.0088
 6341W        W10392   6.104   7.016  10.474 -0.3015  0.2058  0.3480
 6342W        W10393   3.786   5.326  13.781  0.2891 -0.4278 -0.2476
 6343W        W10394   4.392   1.414  13.419 -0.3768  0.1565 -0.0964
 6344W        W10395   0.089   1.906   4.075 -0.1062  0.0586  0.2691
 6345W        W10396   7.921   7.006   3.828  0.3092  0.0515 -0.0893
 6346W        W10397   1.033   0.294   8.931  0.0645  0.2025  0.1320
 6347W        W10398   6.679   7.785   2.058  0.3141 -0.1558  0.4517
 6348W        W10399   9.950   9.663  11.838  0.1657  0.1034 -0.0105
 6349W        W10400   0.024   3.766   3.948  0.0740 -0.0233 -0.0842
 6350W        W10401   5.983   7.034   5.460 -0.1417 -0.3405 -0.1305
 6351W        W10402   1.188   2.651   2.729  0.1947 -0.0517 -0.0150
 6352W        W10403   7.759   0.680   4.685 -0.0381 -0.1930 -0.2005
 6353W        W10404   5.238   1.654   4.723 -0.1157 -0.0823 -0.0816
 6354W        W10405   3.531   5.343  11.535 -0.6740  0.1200 -0.1455
 6355W        W10406   0.279   5.896   0.469  0.0996 -0.1598 -0.0804
 6356W        W10407   6.359   4.384   1.969 -0.0922  0.0337  0.0201
 6357W        W10408   2.911   8.580   2.006 -0.4219  0.1143  0.1589
 6358W        W10409   3.225   0.561   0.745  0.1516 -0.1266  0.1692
 6359W        W10410   2.523   1.869  10.663  0.4883 -0.3025  0.0906
 6360W        W10411   5.407   3.458   2.621 -0.0373  0.2480  0.2563
 6361W        W10412   8.474   1.530   4.192  0.0242  0.1601 -0.0282
 6362W        W10413   2.777   9.536  10.717  0.0150 -0.1173 -0.1123
 6363W        W10414   3.993   1.821  13.164 -0.0545  0.1279  0.0531
 6364W        W10415   0.553   7.679   8.767 -0.3701  0.3097  0.2746
 6365W        W10416   7.723   6.202   9.605  0.0219  0.1606  0.0857
 6366W        W10417   2.329   5.904  10.236  0.1345  0.3134  0.1218
 6367W        W10418   6.370   3.002  11.503 -0.1302 -0.0315 -0.1538
 6368W        W10419   1.686   2.343  10.876 -0.1521  0.1551 -0.0952
 6369W        W10420   4.608   3.031  12.406  0.4157  0.0109  0.0196
 6370W        W10421   1.099   1.605   9.892  0.1810 -0.0473  0.3230
 6371W        W10422   8.729   2.943   0.620 -0.0132  0.0541 -0.0751
 6372W        W10423   2.493   1.972   2.956  0.1553 -0.3427  0.1208
 6373W        W10424   8.395   6.324   3.665 -0.0475 -0.2610  0.0474
 6374W        W10425   4.645   4.778   4.221  0.1789  0.2649 -0.0854
 6375W        W10426   7.971   9.078   2.445 -0.2959 -0.0205  0.1159
 6376W        W10427   1.583   1.845   2.361 -0.0737 -0.0147  0.2920
 6377W        W10428   1.496   8.888  12.149 -0.4962 -0.1147 -0.1658
 6378W        W10429   2.345   4.249  11.273 -0.3141 -0.1356  0.4003
 6379W        W10430   2.757   0.209  12.794 -0.2536 -0.1321 -0.0396
 6380W        W10431   0.619   7.835   1.903 -0.0023  0.0985  0.0823
 6381W        W10432   9.125   1.008  10.740 -0.0007 -0.1320 -0.0552
 6382W        W10433   6.300   3.149   4.531 -0.0005  0.2986 -0.0248
 6383W        W10434   2.954   9.783  10.084  0.1208  0.1603 -0.0383
 6384W        W10435   5.114   1.383   0.972 -0.1353 -0.0059 -0.2566
 6385W        W10436   3.344   3.607   1.713 -0.3727 -0.1465 -0.1337
 6386W        W10437   2.298   3.945  13.420  0.0654  0.1752 -0.0378
 6387W        W10438   2.079   0.960  10.488 -0.0272  0.0028 -0.2560
 6388W        W10439   8.892   7.269  13.723  0.0203  0.0933  0.1505
 6389W        W10440   1.186   6.709   2.232  0.2480 -0.1704 -0.3063
 6390W        W10441   3.503   0.971  11.718  0.0801  0.1923  0.1342
 6391W        W10442   5.761   8.415   9.133 -0.0090 -0.1717 -0.2870
 6392W        W10443   7.100   0.297  12.673 -0.0021 -0.0268  0.3339
 6393W        W10444   7.097   7.415   0.753 -0.1738  0.2234  0.0065
 6394W        W10445   2.465   8.243   2.308  0.1218  0.1289 -0.0869
 6395W        W10446   8.833   8.169  12.394 -0.0199 -0.2937  0.0283
 6396W        W10447   1.239   0.654   1.798 -0.2339  0.1900  0.2367
 6397W        W10448   4.889   5.012  11.686 -0.3132 -0.0185  0.0667
 6398W        W10449   9.940   9.191   9.427 -0.0031 -0.2076  0.2630
 6399W        W10450   4.085   4.899  13.889 -0.1598  0.0511  0.3472
 6400W        W10451   5.368   2.688   4.136  0.3416  0.0289  0.1152
 6401W        W10452   5.758   6.410   4.126  0.1263 -0.0657 -0.1340
 6402W        W10453  10.165   8.771   2.349  0.1677 -0.3584  0.0650
 6403W        W10454   1.781   1.724   1.200  0.1985 -0.0570 -0.0751
 6404W        W10455   3.738   0.817   2.147 -0.1760 -0.0512  0.1140
 6405W        W10456   4.903   8.689   0.134 -0.2106  0.2210 -0.0172
 6406W        W10457   3.807   4.550   9.787  0.1122  0.0178 -0.1612
 6407W        W10458   9.715   0.346   1.141 -0.1759  0.1117 -0.0770
 6408W        W10459   8.073   7.521   1.152 -0.1079 -0.3253  0.0119
 6409W        W10460   6.369   2.153   9.900 -0.2659 -0.2638  0.1925
 6410W        W10461   7.977   2.378  12.070  0.2815 -0.0038  0.1266
 6411W        W10462   8.958   4.548   1.667 -0.2045  0.0435 -0.0245
 6412W        W10463   9.121   5.533   2.476  0.2052 -0.1837 -0.2499
 6413W        W10464   9.390   8.451   0.314  0.1607 -0.1166 -0.0136
 6414W        W10465   1.519   5.953   1.133 -0.1697 -0.0023 -0.1115
 6415W        W10466   1.528   9.624  13.384  0.1007  0.1581  0.2337
 6416W        W10467   8.017   7.218  10.324  0.2714 -0.0743 -0.0836
 6417W        W10468   3.547   9.288   3.553  0.3640  0.0472  0.1397
 6418W        W10469   2.053   4.909   0.840 -0.1844  0.2729  0.3888
 6419W        W10470   6.932   6.851   9.460 -0.3891 -0.1168  0.1431
 6420W        W10471   4.508   7.660   5.584  0.3158 -0.2845  0.0548
 6421W        W10472   4.130   5.386   3.733 -0.3967 -0.0250 -0.0895
 6422W        W10473   9.118   6.175  10.635  0.0753  0.1725  0.0820
 6423W        W10474   0.691   7.217  10.644 -0.0332 -0.0592 -0.0942
 6424W        W10475   6.718   8.219   0.740 -0.0962 -0.3768 -0.0626
 6425W        W10476   5.888   3.648   2.632 -0.0416  0.1119  0.0490
 6426W        W10477   3.492   4.928  13.354  0.3084  0.0374 -0.3595
 6427W        W10478   1.009   2.554  12.807  0.0506  0.1322  0.2170
 6428W        W10479   6.709   9.144   4.717 -0.0780  0.2643  0.1411
 6429W        W10480   0.120   4.903   2.245  0.0983 -0.0962 -0.4689
 6430W        W10481   6.574   7.977  10.469 -0.1917  0.0032 -0.1204
 6431W        W10482   9.473   5.306   3.672  0.0748 -0.2063 -0.0934
 6432W        W10483   7.227   1.175   2.042 -0.0013 -0.0785 -0.2270
 6433W        W10484   1.725   1.352  11.945 -0.1718 -0.1747 -0.1477
 6434W        W10485   8.952   4.913   5.510  0.1000 -0.2203  0.1835
 6435W        W10486   3.006   0.914  10.454  0.0512  0.0410 -0.0369
 6436W        W10487   1.566   2.245   2.695 -0.1614 -0.0634  0.1817
 6437W        W10488   4.766   8.321  11.023 -0.1667 -0.0144  0.1437
 6438W        W10489   8.533   7.609  10.473  0.1241  0.0819 -0.0596
 6439W        W10490   5.897   8.083   2.759 -0.1541  0.0184  0.2191
 6440W        W10491   1.397   5.482   2.163 -0.1500  0.1105 -0.1563
 6441W        W10492   7.291   4.479  11.154  0.2404 -0.1854  0.2777
 6442W        W10493   9.637   8.572   3.125  0.0446  0.2632  0.0561
 6443W        W10494   0.135   0.900   3.875 -0.1933 -0.0767 -0.1213
 6444W        W10495   6.264   8.877   2.577 -0.4029  0.2305 -0.2126
 6445W        W10496  10.032   9.314   3.497  0.5511  0.2063  0.2055
 6446W        W10497   4.729   6.532  10.816 -0.3469  0.2229  0.0833
 6447W        W10498   9.003   8.182   9.519  0.4295 -0.0846 -0.2171
 6448W        W10499   5.311   6.308   1.175 -0.1181 -0.1561 -0.0951
 6449W        W10500   2.834   3.723   9.690 -0.0272  0.2436  0.1040
 6450W        W10501   8.477   7.296   0.999 -0.0511  0.1174 -0.2586
 6451W        W10502   1.479   5.350   3.556 -0.0199  0.0384  0.2307
 6452W        W10503   7.359   5.890   2.912  0.0948 -0.0570  0.1949
 6453W        W10504   6.336   3.891  10.061  0.3761 -0.0277  0.2620
 6454W        W10505   4.743   6.087   3.394 -0.0183 -0.1459 -0.2167
 6455W        W10506   1.564   8.882  13.514 -0.0693 -0.1411 -0.1906
 6456W        W10507   5.089   3.370   3.069  0.0381  0.0041 -0.1452
 6457W        W10508   7.567   4.061  12.577 -0.2873 -0.1669 -0.1588
 6458W        W10509   4.329   8.088  10.248  0.1194  0.1181 -0.1663
 6459W        W10510   2.001   8.972   3.892 -0.0480  0.1311 -0.1052
 6460W        W10511   5.309   5.515  10.228  0.0313 -0.1428 -0.2846
 6461W        W10512   3.188   5.281  13.407  0.2200 -0.0634  0.0225
 6462W        W10513   9.500   3.768   2.012  0.1420 -0.1819 -0.1644
 6463W        W10514   6.032   8.601  10.153  0.0172  0.1610  0.1592
 6464W        W10515   5.658   8.191  11.338  0.0337  0.1226 -0.2522
 6465W        W10516   4.838   7.131   4.694 -0.0071  0.0279 -0.3365
 6466W        W10517   5.981   3.799   1.168 -0.1741  0.2981  0.2788
 6467W        W10518   9.630   2.267   3.624  0.2459 -0.0406  0.1819
 6468W        W10519   2.148   2.525  11.320  0.1605  0.0764  0.3990
 6469W        W10520   6.917   5.111   9.245  0.2416 -0.2616  0.1350
 6470W        W10521   5.934   7.616   4.147 -0.1372  0.1129 -0.0699
 6471W        W10522   0.280   1.837  10.980 -0.0393  0.1054  0.0457
 6472W        W10523   0.248   3.947   1.670 -0.0512  0.0922 -0.1394
 6473W        W10524   3.089   1.034   4.907 -0.0006  0.0457 -0.0646
 6474W        W10525   1.042   0.321   2.736  0.1463 -0.2593 -0.1160
 6475W        W10526   6.643   3.569  13.244 -0.2517 -0.0266 -0.1129
 6476W        W10527   7.048   9.147   9.609 -0.0854  0.3489  0.1076
 6477W        W10528   6.450   4.628   9.906 -0.0724 -0.1889  0.0964
 6478W        W10529   6.981   5.607   9.432 -0.0906 -0.1566 -0.2257
 6479W        W10530   6.127   4.089  10.509 -0.1047  0.0850 -0.1560
 6480W        W10531   0.180   2.071  12.364  0.0556 -0.2750 -0.0747
 6481W        W10532   8.803   5.319  11.841  0.1108 -0.3479  0.3147
 6482W        W10533   7.021   3.934   1.541  0.1881 -0.3350  0.0929
 6483W        W10534   3.561   2.304  12.801  0.1002  0.1134 -0.0902
 6484W        W10535   9.715   7.540   4.527 -0.0377  0.2720 -0.0404
 6485W        W10536   9.428   8.434   2.195  0.0077 -0.2186  0.0877
 6486W        W10537   8.217   5.548   4.738 -0.0460 -0.1201  0.1663
 6487W        W10538   6.589   8.877  13.745 -0.1732  0.0668  0.2522
 6488W        W10539   4.276   8.104   8.928  0.0785  0.2507  0.0661
 6489W        W10540   4.423   8.782   3.711 -0.3684  0.0579  0.0876
 6490W        W10541   3.421   4.214   2.969 -0.3217  0.0990  0.1530
 6491W        W10542   8.261   6.442   4.165  0.0074 -0.0937 -0.2189
 6492W        W10543   8.991   2.882   3.059 -0.1027 -0.4001  0.2735
 6493W        W10544   3.159   5.704   2.004 -0.0025 -0.1645  0.0671
 6494W        W10545   3.331   2.769   1.612  0.1256  0.0697 -0.1132
 6495W        W10546   3.794   2.407   0.538  0.0350  0.2549 -0.0015
 6496W        W10547   0.021   1.276   9.355  0.4514  0.0384 -0.2488
 6497W        W10548   3.521   9.127   5.429  0.2366 -0.1841  0.0161
 6498W        W10549   6.527   6.385  10.946 -0.1464  0.0212 -0.0857
 6499W        W10550   4.143   0.310   1.661  0.3703  0.2572 -0.1932
 6500W        W10551   1.272   3.332  13.332  0.0904  0.0409  0.0248
 6501W        W10552   3.699   7.737   1.426  0.2895 -0.0573  0.0596
 6502W        W10553   8.710   5.319  10.731 -0.1248 -0.1408  0.0303
 6503W        W10554   0.470   4.847  11.909  0.1050 -0.0637 -0.1284
 6504W        W10555   5.679   1.365  12.619  0.2461  0.1057  0.0126
 6505W        W10556   4.974   5.943  11.698  0.3286 -0.2963  0.2766
 6506W        W10557  10.143   2.388   3.891  0.0278 -0.1911 -0.1769
 6507W        W10558   3.101   7.549   3.934 -0.2444 -0.1912 -0.3509
 6508W        W10559   7.469   2.054  10.749  0.2159 -0.2060  0.2239
 6509W        W10560   9.549   0.238  12.187 -0.2128  0.1682  0.0859
 6510W        W10561   8.516   6.279   0.894 -0.2876 -0.2587 -0.0036
 6511W        W10562   8.250   5.662   1.809 -0.3381 -0.1635  0.2838
 6512W        W10563   9.588   7.009  12.835  0.1473  0.0446  0.0797
 6513W        W10564   1.731   5.614  12.491 -0.1354  0.2778 -0.0151
 6514W        W10565   8.030   7.803  12.987  0.0313 -0.0024  0.0204
 6515W        W10566   9.779   4.099  11.457  0.0515  0.1018 -0.1758
 6516W        W10567   5.660   5.942   0.018 -0.0578 -0.0755 -0.0279
 6517W        W10568   9.658   8.892   2.031  0.1987 -0.1483 -0.1714
 6518W        W10569   0.136   4.282   2.880 -0.0311  0.1461 -0.0506
 6519W        W10570   2.652   6.998   2.041 -0.0269 -0.0156  0.0720
 6520W        W10571   8.306   7.181   1.958 -0.2622  0.0353 -0.2770
 6521W        W10572   3.954   7.017  13.512 -0.0050  0.0969  0.0493
 6522W        W10573   9.583   6.549   1.488 -0.0972 -0.2138 -0.1252
 6523W        W10574  10.022   4.738   3.740 -0.3528 -0.3293 -0.0238
 6524W        W10575   7.085   8.124   3.600 -0.0481 -0.1928  0.0152
 6525W        W10576   7.198   3.521  11.072 -0.0283  0.0215 -0.2417
 6526W        W10577   9.082   3.978   1.425 -0.1075  0.1801  0.0414
 6527W        W10578   9.078   5.872   9.898 -0.1511 -0.1129  0.1380
 6528W        W10579   8.584   8.229   2.713 -0.2452  0.2676  0.2049
 6529W        W10580   3.663   3.802   0.943  0.1179 -0.0897  0.0787
 6530W        W10581   6.085   0.016   2.656  0.0841 -0.1846 -0.0689
 6531W        W10582   5.709   8.061   1.048 -0.2343  0.0283 -0.0566
 6532W        W10583   3.373   1.941   1.887  0.1036  0.1106 -0.3246
 6533W        W10584   6.937   5.858   0.514  0.4963 -0.1385 -0.3523
 6534W        W10585   6.699   3.483   0.574 -0.1450  0.2022  0.2668
 6535W        W10586   0.636  10.103  12.344 -0.0529 -0.2745  0.2529
 6536W        W10587   8.996   2.292   0.328 -0.0513  0.0898  0.1137
 6537W        W10588   5.258   0.955   2.893  0.0656  0.1020  0.0663
 6538W        W10589   5.017  10.033  13.807 -0.0136  0.0582  0.0093
 6539W        W10590   4.415   1.328   4.225 -0.0879  0.1305 -0.3190
 6540W        W10591   8.555  10.131  12.025  0.2954 -0.0039  0.2554
 6541W        W10592   9.497   5.877  10.706  0.0818  0.3519 -0.0616
 6542W        W10593   0.951   8.627   2.910  0.3816 -0.3418 -0.1320
 6543W        W10594   8.932   1.176  13.150 -0.1461 -0.2810  0.0373
 6544W        W10595   3.550  10.083   9.911  0.0527  0.2104  0.3824
 6545W        W10596   9.117   0.517  10.823 -0.2235 -0.2566 -0.3021
 6546W        W10597   3.171   9.990   3.944 -0.1402  0.1154 -0.0240
 6547W        W10598   0.013   0.972  12.459 -0.1855 -0.0618  0.1368
 6548W        W10599   6.674   8.860  12.020 -0.1194  0.0643  0.0127
 6549W        W10600   3.012   5.937   1.459  0.0949 -0.1310 -0.1140
 6550W        W10601   2.705   6.294  11.577 -0.0230 -0.0385  0.0264
 6551W        W10602   3.092   0.269  13.795  0.0238  0.3118 -0.0568
 6552W        W10603   4.244   0.402  10.045  0.1625 -0.0909 -0.0229
 6553W        W10604   9.257   0.681   0.124  0.2658 -0.0184  0.1210
 6554W        W10605   6.189   0.005  12.048  0.0217 -0.3170  0.0329
 6555W        W10606   5.658   4.541  12.517  0.0408  0.1028 -0.2120
 6556W        W10607   8.754   5.884   2.703 -0.0588 -0.1574  0.0984
 6557W        W10608  10.049   3.396  13.465 -0.0463 -0.0485 -0.2879
 6558W        W10609   6.719   7.991   0.159  0.0669 -0.2267 -0.1055
 6559W        W10610   8.460   2.921   3.167  0.0761  0.0020 -0.0054
 6560W        W10611   8.414   6.718  11.843  0.0657 -0.0251 -0.1390
 6561W        W10612   8.124   1.953  13.845 -0.2148 -0.1481 -0.1193
 6562W        W10613   3.465   4.084   1.960 -0.3627 -0.1399 -0.0126
 6563W        W10614   5.294   9.080  13.820 -0.0050  0.0026  0.0708
 6564W        W10615   2.095   7.767   2.575 -0.1423 -0.1798 -0.0332
 6565W        W10616   1.345   7.565   3.472 -0.2073  0.2551  0.1378
 6566W        W10617   1.859   0.782   8.853  0.1336  0.0858  0.2303
 6567W        W10618   2.004   9.224  12.216  0.0477  0.3648  0.4249
 6568W        W10619   9.630   8.875  13.160  0.1587  0.0947 -0.0899
 6569W        W10620   0.846   0.349  10.767  0.1798 -0.2061  0.0800
 6570W        W10621   9.246   2.132  13.888  0.0946 -0.3761  0.0908
 6571W        W10622   8.219   3.674   1.149 -0.3868 -0.2307  0.1116
 6572W        W10623   0.619   0.867   3.575  0.0228 -0.1154  0.3333
 6573W        W10624   1.283  10.135   9.175 -0.2241  0.0411  0.1297
 6574W        W10625  10.025   3.643   1.807  0.1488  0.0323  0.0090
 6575W        W10626   9.768   6.160   3.482 -0.2490 -0.2632 -0.1503
 6576W        W10627   7.502   6.936  10.177 -0.1884 -0.0606 -0.1747
 6577W        W10628   4.461   9.616   9.654 -0.0683 -0.1744 -0.2962
 6578W        W10629   8.094   0.645   9.587  0.0146  0.2314  0.0603
 6579W        W10630   9.381   7.142  11.773  0.0563 -0.1352 -0.1083
 6580W        W10631  10.113   9.704   9.553  0.4234  0.1941 -0.0657
 6581W        W10632   7.205   8.041  10.796  0.0628 -0.1494  0.2557
 6582W        W10633   8.606   8.236   0.424 -0.3374  0.2579 -0.1612
 6583W        W10634   8.558   0.625  11.843 -0.0842  0.3088 -0.0029
 6584W        W10635   5.985   6.204   0.369 -0.1541  0.1437  0.0920
 6585W        W10636   3.432   3.838  12.419 -0.0068 -0.2002  0.1460
 6586W        W10637   9.913   2.805  10.398 -0.1323 -0.4240 -0.1233
 6587W        W10638   8.121   7.927   0.406 -0.0773  0.1315  0.1864
 6588W        W10639   3.094   4.051  12.788  0.0957  0.1628 -0.2964
 6589W        W10640   1.720   5.710  13.399 -0.0168  0.4310 -0.1177
 6590W        W10641   0.533   6.728  12.011  0.3963  0.1856  0.2480
 6591W        W10642   4.757   7.455   0.504 -0.1752  0.4012 -0.1453
 6592W        W10643   4.695   8.109   9.955 -0.3559 -0.1390 -0.1724
 6593W        W10644   4.108   8.824   4.725 -0.0687 -0.1760  0.0575
 6594W        W10645   4.654   2.024   4.783  0.2155  0.1663  0.1784
 6595W        W10646   1.998   9.526  11.702 -0.1002  0.0177 -0.0610
 6596W        W10647   3.095   8.297   9.958  0.3137 -0.0650 -0.2704
 6597W        W10648   0.590   6.554   1.722 -0.3934  0.0056 -0.0610
 6598W        W10649   6.464   2.631   0.239  0.0964 -0.1546 -0.2120
 6599W        W10650   7.115   9.518  13.741  0.1214  0.1833 -0.0052
 6600W        W10651   6.352   5.521   1.055 -0.0411  0.2500 -0.5071
 6601W        W10652   0.536   5.068  11.357  0.1580  0.3713 -0.1196
 6602W        W10653   2.085   5.155  12.461 -0.0191  0.2648 -0.0959
 6603W        W10654   6.296   4.731  10.910  0.1483 -0.0313  0.0042
 6604W        W10655   9.252   0.813  13.021 -0.1410 -0.1819 -0.0256
 6605W        W10656   5.439   1.879   1.495 -0.2345  0.0526 -0.1061
 6606W        W10657   7.909   8.845   9.442  0.3495  0.0287  0.1351
 6607W        W10658   6.276   5.265   4.964 -0.0255  0.2523 -0.0599
 6608W        W10659   3.319   6.261   1.107 -0.2326  0.0877  0.1315
 6609W        W10660   8.369   4.912   3.959  0.0024 -0.0423 -0.1744
 6610W        W10661   2.169   0.041  13.038  0.0555 -0.0760  0.1787
 6611W        W10662   8.895   5.657  12.617  0.5044 -0.2132 -0.2054
 6612W        W10663   4.483   7.155   2.809  0.1562 -0.0003  0.1182
 6613W        W10664   0.079   8.082   2.227  0.1716 -0.0958 -0.0176
 6614W        W10665   8.312   4.681   8.397 -0.2008 -0.0852  0.2288
 6615W        W10666   5.025   4.835   9.493  0.4075  0.0170 -0.1544
 6616W        W10667   0.248   5.582   9.210  0.0422 -0.0509  0.2297
 6617W        W10668   8.470   0.589   4.004 -0.2471  0.0619  0.0721
 6618W        W10669   6.449   6.079  10.204 -0.1037  0.0348  0.2850
 6619W        W10670   5.726   6.657   5.126 -0.1758  0.1320  0.2565
 6620W        W10671   5.601   2.345  10.783 -0.1249  0.0124  0.0024
 6621W        W10672   8.575   8.918   1.152  0.3203 -0.0334 -0.0391
 6622W        W10673  10.094   0.975  13.143  0.1622 -0.3352  0.1028
 6623W        W10674   8.132   1.834   2.853  0.1472  0.2894 -0.1662
 6624W        W10675   9.635   5.830   4.751 -0.1596  0.0165 -0.0231
 6625W        W10676   2.398   9.659  10.355  0.0964  0.1118 -0.0990
 6626W        W10677   9.972   9.817   4.397  0.0925  0.1641 -0.0396
 6627W        W10678   5.371   8.750   9.142 -0.1426  0.1550 -0.0590
 6628W        W10679  10.128   1.032  10.034  0.0303 -0.1709  0.2236
 6629W        W10680   6.554   7.853   1.529 -0.0242  0.2829 -0.0999
 6630W        W10681   6.528   9.834  12.837 -0.0879  0.2065 -0.3060
 6631W        W10682   5.798   7.271  13.583 -0.2382 -0.1087  0.0445
 6632W        W10683   8.792   4.558   4.272 -0.4875 -0.4054 -0.0522
 6633W        W10684   8.735   9.287  13.640  0.0903  0.1750 -0.0351
 6634W        W10685   2.945   1.634   2.754  0.1566  0.0941 -0.0385
 6635W        W10686   8.836   5.725   0.832  0.1041  0.0752  0.1234
 6636W        W10687   7.393   7.616   9.513 -0.1538  0.2249  0.1108
 6637W        W10688   3.361   1.717   3.749  0.1343 -0.1717 -0.0013
 6638W        W10689   3.430   8.639  10.122  0.2193 -0.0070  0.0063
 6639W        W10690   8.554   0.472   0.678  0.0703 -0.1585 -0.1529
 6640W        W10691   2.761   5.558  10.355  0.2493  0.0087  0.1171
 6641W        W10692   8.501   8.620   0.780  0.0886  0.1207  0.0629
 6642W        W10693   0.402   5.773   2.392  0.1313  0.0459 -0.2775
 6643W        W10694   1.394   0.693   9.042  0.0116 -0.0506  0.2517
 6644W        W10695   9.773   6.188  12.096  0.3635 -0.2971  0.1553
 6645W        W10696   6.876   9.676   4.680  0.0281  0.0748 -0.0623
 6646W        W10697   1.443   9.477   0.394  0.2589 -0.3995 -0.0312
 6647W        W10698   8.467   4.382   3.977  0.4295 -0.0850 -0.1356
 6648W        W10699   8.023   5.927   9.930 -0.0076 -0.0081 -0.1996
 6649W        W10700   6.198   9.621   4.615 -0.1023 -0.0941 -0.2291
 6650W        W10701   7.820   5.119   3.751 -0.0942 -0.1822  0.0606
 6651W        W10702   2.219   5.065  11.968 -0.3819  0.0904 -0.2846
 6652W        W10703   9.517   9.999   9.911  0.1765 -0.0522 -0.1076
 6653W        W10704   7.004   4.388   0.412 -0.1161  0.1971  0.0161
 6654W        W10705   7.448   2.531  10.611 -0.1584  0.0268 -0.2534
 6655W        W10706   9.974   5.776  12.482  0.1132 -0.0185  0.1743
 6656W        W10707   0.343   2.090  12.875 -0.0980  0.1183  0.1540
 6657W        W10708   4.021   4.241   2.004 -0.0429 -0.0732 -0.1574
 6658W        W10709   8.911   3.200   3.422  0.2224  0.0333  0.1035
 6659W        W10710   0.697   9.898  13.064 -0.1521 -0.2380 -0.2525
 6660W        W10711   6.330   6.618   2.336 -0.2533  0.2023 -0.0664
 6661W        W10712   9.529   9.086  12.521  0.1635  0.1783 -0.0361
 6662W        W10713   7.375   9.850   5.628 -0.1096  0.0601 -0.3046
 6663W        W10714   9.755   3.248   2.628 -0.2971 -0.2233  0.3530
 6664W        W10715   5.241   1.412  10.754 -0.0501  0.0526 -0.0614
 6665W        W10716   1.803   7.669  13.711  0.3100 -0.3543  0.2009
 6666W        W10717   5.035   7.028   3.465  0.1572 -0.3183 -0.1724
 6667W        W10718   5.021   9.557   1.335 -0.0033  0.2245  0.0065
 6668W        W10719   8.256   2.429  13.909  0.1803  0.2768 -0.1005
 6669W        W10720   2.344   1.234   2.380  0.0708  0.3367 -0.1099
 6670W        W10721   9.824   8.185   3.531  0.3737  0.0150  0.1322
 6671W        W10722   0.207   4.449   3.356 -0.0503  0.1941  0.1393
 6672W        W10723  10.086   9.719   3.125 -0.1514  0.0811 -0.1251
 6673W        W10724   3.382   0.274  11.313  0.0602 -0.3960  0.0995
 6674W        W10725   1.470   8.601  11.701  0.1160 -0.0115  0.0393
 6675W        W10726   5.921   9.748   1.085  0.1332  0.2702  0.1827
 6676W        W10727   0.933   5.623   1.632  0.0552  0.3233  0.2050
 6677W        W10728   5.164   8.727  10.989  0.2889  0.0336 -0.1593
 6678W        W10729   9.757   6.273   2.568  0.2547  0.0751  0.2597
 6679W        W10730   5.705   1.715   1.868 -0.1964 -0.1351  0.1394
 6680W        W10731   9.123   6.894   3.030 -0.1260 -0.0332  0.0174
 6681W        W10732   7.736   1.684   0.064 -0.1745  0.2233 -0.0460
 6682W        W10733   2.413   4.259   2.979 -0.1758  0.0588 -0.1353
 6683W        W10734   5.634   3.347   1.612  0.0062  0.1005  0.1838
 6684W        W10735   9.057   2.523  13.547 -0.2255  0.1531  0.5321
 6685W        W10736   3.883   1.277   0.524  0.0874  0.1101  0.2406
 6686W        W10737   6.260   9.720   2.841 -0.1275 -0.0988  0.1347
 6687W        W10738   1.629   9.322   0.945  0.1116  0.0933  0.1091
 6688W        W10739   7.406   6.097   5.012  0.1118 -0.0259 -0.1034
 6689W        W10740   4.141   8.883   8.299  0.3436  0.1279 -0.0370
 6690W        W10741   4.533   7.611  10.224 -0.0195  0.0819 -0.0859
 6691W        W10742   6.335   2.916   9.351 -0.2027  0.3623  0.2317
 6692W        W10743   6.199   8.725   0.075 -0.1089  0.3157  0.2244
 6693W        W10744   6.625   0.442  13.489  0.2616 -0.1011  0.0007
 6694W        W10745   3.836   6.537   4.639  0.0897 -0.2047  0.1627
 6695W        W10746   5.297   7.324   2.949 -0.0036 -0.1060 -0.0444
 6696W        W10747   3.853   1.480   3.525  0.0100  0.0182 -0.2725
 6697W        W10748   3.705   9.841   9.345 -0.0337  0.0679  0.2855
 6698W        W10749   8.270   1.450  11.984 -0.2102  0.1230 -0.0456
 6699W        W10750   3.829   3.756   1.921  0.0796  0.1990 -0.0034
 6700W        W10751   6.374   6.140   4.998  0.0550 -0.0205  0.0701
 6701W        W10752  10.005   1.205  11.400 -0.5930 -0.0720  0.2713
 6702W        W10753   4.832   0.396   2.311  0.0345  0.1840 -0.0551
 6703W        W10754   4.631   9.155  13.369  0.6854  0.0866  0.0874
 6704W        W10755   1.805   5.445   1.732 -0.1624 -0.1574 -0.2774
 6705W        W10756   1.310   6.978  12.071  0.1378  0.2978  0.0191
 6706W        W10757   6.360   3.699   9.190  0.0834 -0.1909 -0.0301
 6707W        W10758   8.653   3.369  13.268  0.0059  0.2368  0.1368
 6708W        W10759   8.366   1.220  10.951  0.0926 -0.0302  0.1357
 6709W        W10760   4.271   2.633   2.137 -0.1357  0.0562 -0.1591
 6710W        W10761   5.199   8.249  11.278 -0.0999  0.0316  0.0839
 6711W        W10762   8.196   0.012  12.414  0.0168  0.1040  0.0686
 6712W        W10763   5.561   4.354   9.907 -0.2776  0.0269 -0.1225
 6713W        W10764   4.611   3.180   0.301 -0.1975 -0.0130 -0.2219
 6714W        W10765   4.988   1.094  10.450 -0.0482 -0.0907 -0.0164
 6715W        W10766   5.790   7.002   1.475 -0.1561 -0.1522  0.0069
 6716W        W10767   7.297   7.403  13.020 -0.0200 -0.3639 -0.1711
 6717W        W10768   9.803   0.622  13.772 -0.0996 -0.1909 -0.1055
 6718W        W10769   7.701   0.960  10.361  0.2308  0.0276  0.1166
 6719W        W10770   5.757   5.109  12.665 -0.1175  0.3580 -0.3103
 6720W        W10771   2.523   8.958   0.361  0.2946  0.0809  0.0261
 6721W        W10772   4.421   2.257   3.727  0.0501  0.2242 -0.0613
 6722W        W10773   9.365   0.798   3.375 -0.2253  0.0474  0.3213
 6723W        W10774   6.932   1.663   2.798  0.4141 -0.2081  0.2658
 6724W        W10775   0.461   0.725   2.252 -0.2099  0.0195 -0.1328
 6725W        W10776   2.088   4.876  13.584 -0.0549  0.0534 -0.1772
 6726W        W10777   8.576   7.713   9.967  0.1462 -0.0167 -0.0093
 6727W        W10778   2.847   0.879   3.064 -0.0542  0.2326 -0.3461
 6728W        W10779   3.901   0.155  11.065 -0.0299 -0.0077 -0.0903
 6729W        W10780   6.514   4.728  13.271 -0.1628 -0.0467  0.5008
 6730W        W10781   4.149   4.825  12.902  0.2628  0.1551  0.1219
 6731W        W10782   2.632   0.317   9.837 -0.4760 -0.1186  0.0101
 6732W        W10783   0.765   6.660  10.841  0.2834 -0.0137 -0.2012
 6733W        W10784   7.516   3.221   2.017 -0.0564 -0.1933 -0.0217
 6734W        W10785   9.426   5.502   1.642 -0.3807  0.1901  0.4691
 6735W        W10786   7.582   6.083  13.372 -0.0627 -0.0793  0.1323
 6736W        W10787   6.139   1.747  12.636 -0.3331  0.1283  0.2286
 6737W        W10788   9.268   0.610   2.088 -0.0674 -0.0241  0.0411
 6738W        W10789   4.608   7.773   3.953 -0.0408  0.1740 -0.2140
 6739W        W10790   3.545   4.617   2.205 -0.2001  0.4458 -0.4309
 6740W        W10791   0.416   0.830  12.823  0.1015 -0.0461  0.1836
 6741W        W10792   3.169   9.259   1.549 -0.0677  0.2005  0.0089
 6742W        W10793   7.960   2.162  10.789 -0.0678 -0.0655 -0.0827
 6743W        W10794   3.766   2.763   2.833  0.1436 -0.0745  0.1278
 6744W        W10795   9.413   2.177  12.037  0.0203  0.2694 -0.2907
 6745W        W10796   5.037   8.853  10.135  0.0156 -0.0256 -0.0506
 6746W        W10797   8.375   1.134  11.526 -0.1271  0.0339  0.0304
 6747W        W10798  10.167   6.991   3.204 -0.0830  0.3813 -0.0498
 6748W        W10799   6.752   2.924   2.460  0.0912 -0.2873 -0.1261
 6749W        W10800   9.379   6.751   9.414  0.1432 -0.0323  0.3561
 6750W        W10801   1.133   5.745   3.486 -0.1060 -0.3273 -0.3165
 6751W        W10802   1.646   8.583   2.369 -0.0478  0.1888  0.1152
 6752W        W10803   7.594   7.088  10.937  0.4143  0.4287  0.0175
 6753W        W10804   6.561   9.042   9.676 -0.1147  0.0512  0.2349
 6754W        W10805   7.003   4.270   4.503 -0.3556  0.0680  0.0640
 6755W        W10806   6.442   2.714   1.242 -0.1877 -0.3768  0.2460
 6756W        W10807   8.800   0.291  12.934  0.2402 -0.1388 -0.2175
 6757W        W10808   5.634   4.039   3.436  0.2516  0.3686 -0.3723
 6758W        W10809   5.094   1.224   9.926  0.0795 -0.1861  0.0884
 6759W        W10810   9.314   1.963  10.869 -0.1850  0.2578 -0.1204
 6760W        W10811   3.779   7.436  12.223  0.1913  0.1584 -0.0471
 6761W        W10812   3.636   4.621   2.722  0.0240 -0.0233  0.1577
 6762W        W10813   8.356   7.723   9.383  0.0201  0.2287  0.2053
 6763W        W10814   7.522   6.005   9.989 -0.0631 -0.0167  0.2391
 6764W        W10815   7.672   3.970   4.976  0.1681 -0.0458  0.3039
 6765W        W10816   4.432   1.303   2.284 -0.0928  0.0145 -0.0347
 6766W        W10817   6.104   9.072   3.703  0.1585  0.1173 -0.0311
 6767W        W10818  10.098   5.571   0.275  0.0469  0.0298 -0.1905
 6768W        W10819   4.351   1.741   3.983 -0.0748  0.2227  0.2559
 6769W        W10820   3.456   4.044   1.445  0.1738 -0.0781  0.1618
 6770W        W10821   2.554   2.753   0.324  0.4793 -0.0287 -0.3723
 6771W        W10822   2.799   1.115   2.645  0.2353 -0.0034 -0.3109
 6772W        W10823   0.501   3.290   1.127 -0.3326 -0.0830  0.2222
 6773W        W10824   1.117   6.784   4.016  0.1763  0.3966 -0.0021
 6774W        W10825   4.317   2.065  11.536  0.1134  0.0546 -0.0071
 6775W        W10826   6.268   5.629   5.737 -0.0119 -0.0338 -0.0568
 6776W        W10827   1.452   2.882  11.828  0.3486  0.2152  0.1306
 6777W        W10828   2.060   7.825   3.042  0.3665 -0.0261 -0.0903
 6778W        W10829   5.287   1.141  11.693 -0.1082 -0.0511  0.2682
 6779W        W10830   2.715   5.667  12.353  0.0514  0.1037  0.1813
 6780W        W10831   2.407   3.544   4.092  0.0435  0.0787  0.1404
 6781W        W10832   9.980   9.813  13.270  0.2139  0.2396 -0.3125
 6782W        W10833  10.000   0.477   4.191  0.3996 -0.0338 -0.1766
 6783W        W10834   2.705   5.657   1.850  0.1685 -0.1552 -0.2332
 6784W        W10835   8.088   6.178   1.535 -0.4076 -0.1443 -0.0653
 6785W        W10836   5.001   4.172  10.417  0.0061 -0.3232  0.2681
 6786W        W10837   2.819   8.278   1.583  0.0761 -0.0596  0.2308
 6787W        W10838   6.627   7.986   3.429 -0.2581 -0.0516 -0.1051
 6788W        W10839   7.611   6.188  12.775  0.1557 -0.0582  0.4672
 6789W        W10840   5.989   2.979  13.365  0.1510 -0.0002 -0.0319
 6790W        W10841   8.092   9.551  10.926 -0.0542 -0.3188  0.0589
 6791W        W10842   8.512   2.420   9.941  0.1164 -0.4114 -0.2239
 6792W        W10843   1.266   1.834   2.927 -0.2122 -0.0897  0.0359
 6793W        W10844   5.708   2.243   1.750 -0.2480 -0.2515 -0.1443
 6794W        W10845   2.025   3.179  12.398  0.4208  0.3862 -0.2497
 6795W        W10846   7.239   0.605  11.088  0.0087 -0.0688 -0.1322
 6796W        W10847   7.936   3.957  11.083  0.1369  0.3456 -0.0180
 6797W        W10848   8.048   7.031  11.919  0.1628 -0.0120 -0.0961
 6798W        W10849   1.159   4.632  10.199 -0.0551  0.2302 -0.1179
 6799W        W10850   0.731   6.925  13.775  0.2514  0.2966 -0.3123
 6800W        W10851   6.303   0.095   1.726 -0.1062 -0.0721 -0.2917
 6801W        W10852   5.932   7.816  11.171 -0.2485  0.0787 -0.0509
 6802W        W10853   8.271   2.837   0.297  0.1467 -0.0929  0.1561
 6803W        W10854   8.997   9.819   9.918 -0.0164  0.3069  0.1804
 6804W        W10855   3.195   4.996   2.405  0.1732 -0.3481 -0.2148
 6805W        W10856   7.106   0.119  13.451 -0.0250  0.1644 -0.2056
 6806W        W10857   1.565   6.918   0.882  0.2948  0.1176  0.0026
 6807W        W10858   6.167   7.263  12.549  0.1874  0.5604 -0.2772
 6808W        W10859   5.321   1.989  13.638  0.1754 -0.0795 -0.1183
 6809W        W10860   9.443   9.563   4.463 -0.1450  0.0603  0.0597
 6810W        W10861   8.372  10.073   3.292  0.0603  0.1752 -0.0503
 6811W        W10862   4.315   5.307  13.664  0.1941  0.2295 -0.0832
 6812W        W10863   8.355   0.128   1.146  0.2191 -0.2189 -0.1210
 6813W        W10864   2.111   0.500   2.914 -0.0070 -0.3563  0.0979
 6814W        W10865   9.350   0.114   1.500  0.0600  0.1054 -0.0694
 6815W        W10866   7.928   5.405  12.564 -0.0003 -0.0096  0.4953
 6816W        W10867   7.230   0.143   5.727 -0.0484 -0.0514  0.0382
 6817W        W10868   2.238   3.396   1.423 -0.1774 -0.3959 -0.0686
 6818W        W10869   6.811   1.853  10.214 -0.0627 -0.0343  0.0284
 6819W        W10870   9.164   7.220   9.758 -0.1845 -0.1140  0.0640
 6820W        W10871   7.548   1.962   1.738  0.2149  0.1850 -0.3096
 6821W        W10872   9.381   6.412  13.870  0.0310 -0.0521  0.2190
 6822W        W10873   7.244   1.221  10.516 -0.0591 -0.1004 -0.0066
 6823W        W10874   2.632   5.594   0.800  0.2490  0.0825 -0.3183
 6824W        W10875   1.851   8.165  11.569  0.4634  0.0850 -0.0423
 6825W        W10876   0.659   8.213   1.051 -0.3352  0.1416 -0.1452
 6826W        W10877   4.735   0.123   1.633  0.0197 -0.1279 -0.2325
 6827W        W10878   1.551   9.654  11.560  0.0155 -0.2146  0.3410
 6828W        W10879   5.027   4.985  13.925 -0.3729 -0.0502 -0.2133
 6829W        W10880   7.181   6.434   2.022 -0.0511  0.0324  0.1233
 6830W        W10881   0.389   4.208   1.066  0.0564 -0.1363 -0.0721
 6831W        W10882   9.121   2.482   1.113 -0.2516 -0.1327 -0.1705
 6832W        W10883   1.422   8.787   2.845  0.0059 -0.1583 -0.0881
 6833W        W10884   5.846   8.145  11.884  0.1975  0.0570 -0.4103
 6834W        W10885   9.701   6.441  10.013  0.2674  0.1171  0.1213
 6835W        W10886   4.311   1.970  12.416 -0.2787  0.0597  0.2607
 6836W        W10887   3.143   8.031  11.229 -0.3513 -0.1987  0.0538
 6837W        W10888   2.354   2.339   0.567  0.1598  0.1372 -0.1593
 6838W        W10889   0.765   1.956  13.243  0.1465  0.1926  0.1624
 6839W        W10890   4.564   6.413  11.726  0.0407 -0.0952 -0.1172
 6840W        W10891   6.158   6.891   2.816  0.0162  0.0346  0.2809
 6841W        W10892   7.739   7.568  13.277 -0.2012  0.1768 -0.1086
 6842W        W10893   9.388   6.741   0.325 -0.0839 -0.0232  0.1262
 6843W        W10894   8.408   7.216  12.194  0.3475 -0.0374  0.1563
 6844W        W10895   6.704   8.598   2.626  0.0982 -0.0499  0.3161
 6845W        W10896   7.943   5.488  10.271  0.4087  0.0063  0.2255
 6846W        W10897   9.208   5.051   2.674 -0.3624 -0.2742 -0.1451
 6847W        W10898   7.705   0.739   9.325  0.4656 -0.0176 -0.0317
 6848W        W10899   1.641   3.642   0.556  0.1830  0.0599  0.1490
 6849W        W10900   1.430   3.839   9.515  0.1387 -0.4007 -0.2404
 6850W        W10901   2.555   6.870  13.523 -0.0278 -0.2380 -0.1753
 6851W        W10902   3.950   5.282   2.031 -0.0818  0.3261 -0.0759
 6852W        W10903   2.197   5.009   0.134 -0.1544  0.1061 -0.3313
 6853W        W10904   7.154   1.088   3.564 -0.2732  0.1263  0.1863
 6854W        W10905   9.546   7.656   9.545  0.0892  0.3090 -0.3522
 6855W        W10906   3.151   0.788  11.353 -0.0644 -0.3711  0.1032
 6856W        W10907   6.869   5.547   2.289 -0.2499 -0.0649 -0.2877
 6857W        W10908   1.636   9.826  10.096 -0.0920  0.1293 -0.0411
 6858W        W10909   2.384   4.233   3.496  0.1701 -0.2580  0.0971
 6859W        W10910   4.718   1.728  11.496 -0.0163 -0.1875 -0.4161
 6860W        W10911   6.281   4.962   3.548  0.1899 -0.1126 -0.4920
 6861W        W10912   5.070   7.615   2.581  0.1828 -0.2640 -0.1367
 6862W        W10913   2.728   1.393  13.493 -0.1915  0.1295  0.1232
 6863W        W10914   8.666   8.367   1.346 -0.0572 -0.2190  0.1852
 6864W        W10915   7.573   2.946   3.762 -0.2836  0.1067  0.0972
 6865W        W10916   7.557   6.953   4.499  0.0807  0.1078 -0.2669
 6866W        W10917   8.867   6.032  12.083  0.4524  0.0647 -0.1058
 6867W        W10918   2.576   6.189   3.765 -0.0013 -0.4271  0.0752
 6868W        W10919   6.651   4.594   9.388  0.0765  0.0344  0.0233
 6869W        W10920   6.288   7.359  10.924 -0.1643  0.1455 -0.4555
 6870W        W10921   5.129   6.339   2.357 -0.2613  0.1427 -0.2092
 6871W        W10922   2.518   7.321  10.113  0.1556  0.1119 -0.1548
 6872W        W10923   8.092   5.279  13.642  0.1760 -0.2550 -0.1236
 6873W        W10924   3.521   8.676  12.622  0.1469  0.0083  0.1017
 6874W        W10925   7.941   9.008  13.591  0.1241 -0.5385  0.2310
 6875W        W10926   0.935   6.125  10.045  0.4743 -0.1683  0.0181
 6876W        W10927   4.581   5.402   1.426  0.0392 -0.0667 -0.0263
 6877W        W10928   2.782   7.203   3.653  0.0506 -0.0739 -0.0420
 6878W        W10929   9.070   6.398   3.053  0.0193 -0.3496 -0.1392
 6879W        W10930   5.753   0.198  13.246 -0.4312 -0.0827 -0.1478
 6880W        W10931   3.431   9.625   9.766  0.0651  0.2255 -0.0895
 6881W        W10932   1.282   1.190  13.407 -0.1374  0.1598  0.2375
 6882W        W10933   5.242   8.212   1.123  0.0544  0.2363  0.0039
 6883W        W10934   9.820   3.258   3.566 -0.1324  0.0497 -0.1271
 6884W        W10935   6.061   3.151  13.921  0.0507  0.3219  0.1693
 6885W        W10936   7.841  10.010   0.623  0.1490  0.0257 -0.1966
 6886W        W10937   5.282   2.336   2.672  0.4720 -0.2880 -0.4394
 6887W        W10938   2.106   4.510  13.249  0.0452  0.1276  0.0486
 6888W        W10939   0.062   3.234   0.936  0.1139  0.1031 -0.2109
 6889W        W10940   7.790   3.529  13.810  0.2350 -0.1809 -0.1981
 6890W        W10941   0.828   7.007   1.746  0.0802  0.0024 -0.0285
 6891W        W10942   3.176   6.295   0.578 -0.0473 -0.2351  0.0334
 6892W        W10943   1.233   2.960   4.021 -0.3212  0.1020  0.1068
 6893W        W10944   3.434   9.975   2.838 -0.0529 -0.2220 -0.0702
 6894W        W10945   7.220   1.016   0.187  0.1025  0.3427  0.2010
 6895W        W10946   5.147   2.570   3.165 -0.1123  0.0369  0.0473
 6896W        W10947   9.833   6.719   0.047  0.3338  0.0977  0.2993
 6897W        W10948   9.637   0.139   9.521  0.0739  0.2794  0.3828
 6898W        W10949   9.298   0.953   1.241 -0.0433 -0.2481  0.1534
 6899W        W10950   4.838   5.388  13.611 -0.1150  0.2492  0.1671
 6900W        W10951   2.278   8.009   9.429 -0.0248 -0.0127 -0.1602
 6901W        W10952   4.615   5.769  12.407 -0.2588  0.3188  0.2399
 6902W        W10953   3.254   8.924  11.188 -0.1593 -0.0491 -0.3870
 6903W        W10954  10.126   1.291   0.539  0.1052  0.1771 -0.1628
 6904W        W10955   8.114   0.426   5.460  0.4132  0.1225  0.3260
 6905W        W10956   9.348   2.688  11.663 -0.3487  0.0414 -0.1661
 6906W        W10957   1.186   9.281   9.415  0.2326  0.4796 -0.0653
 6907W        W10958   8.782   6.863   5.421 -0.2954 -0.1994 -0.1756
 6908W        W10959   9.044   8.059   2.789 -0.1646  0.1972 -0.0782
 6909W        W10960   1.990   7.673   0.708 -0.0780 -0.0380  0.1535
 6910W        W10961   7.025   5.110  11.482 -0.1139  0.0191  0.1754
 6911W        W10962   5.782   6.403  13.285  0.1933  0.1213  0.2959
 6912W        W10963  10.095   3.236   2.080 -0.1589 -0.0546  0.0089
 6913W        W10964   1.527   6.948   4.404 -0.0553  0.4266 -0.0984
 6914W        W10965   7.696   8.615  13.914 -0.1044 -0.1812  0.3431
 6915W        W10966   8.733   0.032   0.829 -0.1643  0.2700 -0.0951
 6916W        W10967   0.838  10.121   4.710 -0.0842  0.3483  0.0407
 6917W        W10968   1.767   7.205   1.610 -0.1187 -0.2045 -0.0804
 6918W        W10969   3.754   4.875   9.430  0.1136 -0.0357  0.1664
 6919W        W10970   6.631   1.634   0.808  0.0400  0.0520  0.1835
 6920W        W10971   2.047   0.613   2.176 -0.2382  0.1081  0.0881
 6921W        W10972   9.336   4.046   3.105  0.1031 -0.1193  0.3922
 6922W        W10973   8.898   5.758   8.980 -0.0860  0.1395  0.3682
 6923W        W10974   4.061   6.065   4.498 -0.1232  0.3278  0.1206
 6924W        W10975   9.510   0.146  11.713 -0.0752  0.2494 -0.2191
 6925W        W10976   4.520   9.641  13.131 -0.0965 -0.0021 -0.1077
 6926W        W10977   7.556   2.394   9.096 -0.1246  0.3806  0.2303
 6927W        W10978   1.379   6.504   1.148  0.1328  0.0483 -0.0245
 6928W        W10979   7.037   1.919  13.495  0.3185 -0.0666  0.0945
 6929W        W10980   4.940   1.754   0.162  0.0438  0.2887  0.0904
 6930W        W10981   5.343   5.168   1.199 -0.1754 -0.0853  0.1424
 6931W        W10982   0.458   0.892   9.214 -0.0602  0.4139 -0.2533
 6932W        W10983   5.955   7.031   4.971 -0.3426 -0.2638  0.1502
 6933W        W10984   8.925   2.087  13.296 -0.0894 -0.0400 -0.2511
 6934W        W10985   6.314   7.961   3.056  0.2887  0.3633 -0.0346
 6935W        W10986   4.958   9.493   9.753 -0.1527 -0.1247 -0.1771
 6936W        W10987   7.341   8.995  11.030 -0.0431 -0.0178  0.1460
 6937W        W10988   2.701   2.280  13.451  0.3697  0.1888 -0.3932
 6938W        W10989   2.661   1.183   0.919 -0.0304  0.2719 -0.2113
 6939W        W10990   5.923   8.467  13.087 -0.0442 -0.1134  0.2144
 6940W        W10991   5.269   8.345   5.291 -0.0396  0.1885 -0.0506
 6941W        W10992   1.417   5.117  11.518 -0.1733 -0.0115  0.1325
 6942W        W10993   3.978   8.019  12.961 -0.0386 -0.1868  0.2821
 6943W        W10994   2.042   2.685   0.182  0.2952  0.0509  0.2004
 6944W        W10995   9.054   5.770   5.468  0.0258 -0.0286 -0.1653
 6945W        W10996   9.058   8.673   1.638  0.1392 -0.1649  0.1939
 6946W        W10997   9.007   7.565  10.881 -0.2792 -0.0990  0.1210
 6947W        W10998   1.000   1.385   2.774  0.1321  0.1652  0.1079
 6948W        W10999   7.348   8.907  12.890  0.0389 -0.1473  0.1589
 6949W        W11000   2.991   0.730   1.137 -0.3904 -0.2007 -0.2418
 6950W        W11001   1.752   9.065  12.701 -0.3589  0.1686 -0.0581
 6951W        W11002   9.396   5.269   2.155 -0.2754  0.0731 -0.0921
 6952W        W11003   8.552   4.106  10.107 -0.0885  0.0989 -0.0178
 6953W        W11004   3.197   0.788   1.628 -0.2191  0.0079 -0.0251
 6954W        W11005   8.844   6.205  12.550 -0.0625  0.0173  0.0150
 6955W        W11006   9.598   0.071   2.487  0.4499  0.0020  0.0364
 6956W        W11007   9.168  10.017   0.556 -0.3309  0.1221  0.0598
 6957W        W11008   5.669   9.044   0.480 -0.0820 -0.0590  0.1657
 6958W        W11009   2.154   6.759   2.251  0.3704 -0.0303  0.1170
 6959W        W11010   2.184   4.959  12.956 -0.2593 -0.0935  0.3012
 6960W        W11011   4.448   1.731  11.115 -0.1033 -0.0051  0.0688
 6961W        W11012   0.630   3.883   1.314  0.0152  0.1933 -0.1772
 6962W        W11013   3.404   0.727  12.202  0.0018 -0.2197  0.2136
 6963W        W11014   9.448   9.207   4.842 -0.2408 -0.2456 -0.1160
 6964W        W11015   6.255   7.403   1.366 -0.4808 -0.1467 -0.0222
 6965W        W11016   6.343   4.245   2.966  0.0018  0.0783  0.1152
 6966W        W11017   1.275   3.146  11.423  0.1524 -0.3338  0.1029
 6967W        W11018   2.054   9.220  11.261 -0.0287 -0.2959 -0.0407
 6968W        W11019   4.756   2.441   1.130 -0.0417 -0.0407  0.3831
 6969W        W11020   2.779   0.570   0.214  0.2454  0.2174 -0.1856
 6970W        W11021   4.419   2.039  13.230 -0.3042  0.0379 -0.1896
 6971W        W11022   5.447   7.258   2.480 -0.1226  0.1088  0.2001
 6972W        W11023   2.807   1.077   1.487  0.0041  0.0383 -0.0197
 6973W        W11024   8.156   1.686  10.878 -0.3725  0.1682  0.2919
 6974W        W11025  10.031   0.599   1.435  0.0985 -0.0860 -0.0138
 6975W        W11026   8.125   3.213   9.440 -0.1382  0.2619  0.3918
 6976W        W11027   0.368   4.756   1.488 -0.2053  0.1560  0.0288
 6977W        W11028   8.483   1.198  12.954 -0.2100 -0.2354 -0.2361
 6978W        W11029   8.497   9.869   4.975  0.0461  0.0689 -0.2737
 6979W        W11030   6.643   7.780   0.590  0.1534  0.1132 -0.0172
 6980W        W11031   9.645   0.169   3.848  0.2863 -0.0421 -0.3086
 6981W        W11032  10.078   4.619  11.353  0.0729 -0.1764 -0.1815
 6982W        W11033   3.351   4.408  10.068 -0.2157  0.1213 -0.0014
 6983W        W11034   7.040   1.664  12.180 -0.1088 -0.3255 -0.1911
 6984W        W11035   7.071   4.928   1.112 -0.3626  0.2416 -0.2300
 6985W        W11036   6.318   9.940   9.924 -0.1854  0.2046 -0.2803
 6986W        W11037   5.134   3.229  10.427 -0.4319 -0.1908  0.0078
 6987W        W11038   3.963   3.031   1.340  0.0114  0.2087 -0.1408
 6988W        W11039   5.214   8.005   3.541 -0.1989 -0.2178 -0.0585
 6989W        W11040   1.254   0.597   4.649 -0.3080 -0.1476  0.0804
 6990W        W11041   1.362   3.073   3.143 -0.0452 -0.1563 -0.3372
 6991W        W11042   6.212   2.844   4.042  0.1297 -0.0552  0.0131
 6992W        W11043   0.715   8.744   3.929  0.0798 -0.0066 -0.0838
 6993W        W11044   9.983   0.986   2.526 -0.0547  0.1608  0.2912
 6994W        W11045   1.687   6.709   3.977  0.0542 -0.1373  0.0064
 6995W        W11046   4.589   4.083  10.713  0.2815 -0.0178  0.0914
 6996W        W11047   7.397   0.214   9.328  0.1165 -0.0374 -0.0089
 6997W        W11048   7.254   5.586  12.653  0.0540 -0.2206 -0.0951
 6998W        W11049   6.315   8.688   0.975  0.1232 -0.3561 -0.0200
 6999W        W11050   7.243   2.064  11.200 -0.3164  0.0585  0.0449
 7000W        W11051   2.442   8.691   2.074  0.0432  0.0639  0.2537
 7001W        W11052   5.133   6.904  10.022  0.1360  0.2782 -0.0461
 7002W        W11053   5.972   4.993   4.127  0.0073 -0.0042 -0.2062
 7003W        W11054   6.693   7.291  12.671 -0.3026  0.2373 -0.2437
 7004W        W11055   7.476   6.448  10.766 -0.1727  0.3481 -0.1284
 7005W        W11056   2.216   5.228  11.403 -0.0446 -0.0839 -0.1918
 7006W        W11057   0.952   6.497  11.417 -0.2148  0.0501  0.0735
 7007W        W11058   0.175   7.448   0.554 -0.0109  0.1252 -0.0184
 7008W        W11059   7.904   2.228   2.663  0.0365 -0.0830  0.4512
 7009W        W11060   0.984   2.153   0.687  0.1693  0.0050 -0.1428
 7010W        W11061   4.294  10.171   2.022  0.2267 -0.1403 -0.0810
 7011W        W11062   5.824   8.647   1.046  0.2009 -0.1900 -0.2432
 7012W        W11063   3.028   5.937  13.347 -0.2993  0.3160 -0.1078
 7013W        W11064   3.148   1.753   1.398  0.1066 -0.0291  0.2518
 7014W        W11065   4.407   5.290  10.579 -0.1648  0.1742  0.2559
 7015W        W11066   9.944   8.555  13.868 -0.0689 -0.3490  0.1659
 7016W        W11067   3.596   9.360   1.824  0.1269  0.3087 -0.2116
 7017W        W11068   9.048   3.024   2.436  0.0091 -0.2963 -0.1525
 7018W        W11069   9.186   4.987   3.354 -0.0813  0.0919  0.1918
 7019W        W11070   5.042   2.257   1.722 -0.0815 -0.0280  0.1423
 7020W        W11071   2.289   3.544  11.196  0.0448 -0.1716  0.0339
 7021W        W11072   1.697   7.870  11.129  0.2798 -0.2038  0.0222
 7022W        W11073   3.709   7.098   4.717 -0.1958  0.1673  0.1784
 7023W        W11074   8.844   2.163  12.111  0.0980 -0.1643 -0.0346
 7024W        W11075   9.164   1.657  11.930  0.1205  0.0188 -0.3738
 7025W        W11076   4.714   2.513   2.513  0.2879  0.1711 -0.1083
 7026W        W11077   8.489   9.573   1.752  0.1833  0.0255 -0.1824
 7027W        W11078   8.420   5.129   0.150 -0.2723 -0.1175 -0.3588
 7028W        W11079   8.033   1.890   1.838 -0.3662  0.1094 -0.1214
 7029W        W11080  10.164   7.318   2.150  0.1819  0.2773 -0.0609
 7030W        W11081   1.347   7.004   2.617 -0.3817 -0.2370 -0.2276
 7031W        W11082   3.673   2.719  11.230 -0.2263 -0.1560  0.0866
 7032W        W11083   8.353   9.083   1.533  0.3508 -0.0488  0.1618
 7033W        W11084   1.359  10.190   3.964 -0.2498 -0.0631 -0.0638
 7034W        W11085   3.058   7.725  11.582  0.0252 -0.0207 -0.1621
 7035W        W11086   3.106   4.278   2.254 -0.1221 -0.2209 -0.0197
 7036W        W11087   7.656   5.175  13.391 -0.2520  0.0115  0.1216
 7037W        W11088   7.948   2.478   9.859  0.2344 -0.1693  0.2351
 7038W        W11089   2.884   9.294   9.106  0.0953 -0.4655  0.0550
 7039W        W11090   1.683   8.222  12.924  0.0929 -0.2400  0.0274
 7040W        W11091   2.957   3.803  10.192 -0.2179 -0.1059  0.1320
 7041W        W11092   6.247   8.948   5.392 -0.0255  0.0133  0.1173
 7042W        W11093   2.385   8.190   3.230  0.0047 -0.0442  0.0890
 7043W        W11094   1.921   9.467   0.421 -0.2617 -0.2234 -0.0532
 7044W        W11095   4.564   6.402   1.563  0.0546  0.0962  0.0887
 7045W        W11096   9.985   2.484   3.284  0.1510 -0.1697 -0.0864
 7046W        W11097   6.910   8.518   4.365 -0.1879 -0.1402 -0.1428
 7047W        W11098   5.926   9.145   9.906 -0.0710 -0.0552 -0.0756
 7048W        W11099   1.750   6.252  11.785 -0.1282 -0.0674 -0.0224
 7049W        W11100   0.790   4.031   3.905  0.1719  0.0604  0.4707
 7050W        W11101   2.570   8.853   0.926  0.0057  0.1079 -0.0617
 7051W        W11102   2.443   3.932  12.070  0.2548 -0.0109  0.3149
 7052W        W11103   0.326   4.785   2.801 -0.0823  0.2055  0.0561
 7053W        W11104   5.266   1.560  11.348 -0.1402  0.1914  0.0662
 7054W        W11105   8.913   9.181   9.229  0.4341  0.5559 -0.0195
 7055W        W11106   7.666   6.133   1.167  0.1194 -0.0628  0.2010
 7056W        W11107   8.913   2.731   2.058 -0.0537  0.0077  0.0577
 7057W        W11108   8.651   6.886  12.980 -0.0299 -0.0656  0.2685
 7058W        W11109   7.954   2.531   3.910  0.1436 -0.1313 -0.0649
 7059W        W11110   7.535   4.947   1.398 -0.2211  0.2016  0.0013
 7060W        W11111   3.751   8.229  13.706  0.0665 -0.2202  0.2488
 7061W        W11112   1.713   0.949  12.680  0.1548 -0.1232 -0.3712
 7062W        W11113   0.573   2.638  13.830 -0.1700  0.1342 -0.0085
 7063W        W11114   5.389   8.825  10.544  0.1584 -0.0461 -0.0157
 7064W        W11115   3.889   6.715   2.487  0.1372  0.0090  0.4185
 7065W        W11116   2.871   6.697  13.115  0.1088 -0.2588  0.0199
 7066W        W11117   1.043   1.856  11.576 -0.2109 -0.0016 -0.1127
 7067W        W11118   5.613   6.401   8.792 -0.0946 -0.2004 -0.1458
 7068W        W11119   8.738   0.199   2.940 -0.1102  0.1137  0.1558
 7069W        W11120   8.221   2.976   1.729 -0.0326 -0.0821  0.0068
 7070W        W11121   5.204   5.721   3.405  0.1438 -0.1917 -0.3534
 7071W        W11122   6.046   7.616  11.672 -0.0868  0.2089 -0.0068
 7072W        W11123   1.778   3.591   1.965 -0.2658 -0.1579 -0.1519
 7073W        W11124   9.287   1.743   3.638  0.3034  0.1229 -0.4041
 7074W        W11125   9.549   1.324  12.242 -0.2115 -0.2250  0.2784
 7075W        W11126   5.128   0.790   2.387  0.0051  0.0877  0.0468
 7076W        W11127   9.050   1.333   1.432 -0.0871  0.1754 -0.1692
 7077W        W11128   4.880   7.845   0.750 -0.1146 -0.0831  0.1104
 7078W        W11129   1.811   0.734   0.017  0.1507  0.1260  0.3120
 7079W        W11130  10.161   4.235   4.226 -0.0809  0.1976  0.2251
 7080W        W11131   0.699   8.719   0.383  0.2710 -0.3331  0.1938
 7081W        W11132   5.583   1.388   9.833  0.0486 -0.0320  0.1546
 7082W        W11133   8.179   1.285   1.187 -0.1840 -0.2134  0.0068
 7083W        W11134   5.787   8.706   3.670  0.2376 -0.5928 -0.1466
 7084W        W11135   4.432   8.568   2.657 -0.0322 -0.3187  0.0661
 7085W        W11136   1.171   9.950   0.586 -0.1659  0.0500 -0.0784
 7086W        W11137   4.892   3.711  10.458  0.1775  0.2388 -0.0373
 7087W        W11138   5.437   4.061   3.899 -0.1829  0.4639 -0.3833
 7088W        W11139   0.063   8.114  10.667 -0.1020 -0.3401  0.1133
 7089W        W11140   7.952   2.265   4.477  0.0848 -0.1546  0.1060
 7090W        W11141   0.860   7.292  11.600  0.0174 -0.2237 -0.2268
 7091W        W11142   2.809   9.225   4.623 -0.0776  0.2164  0.0635
 7092W        W11143   5.805   7.474  10.769 -0.0860 -0.2185 -0.1228
 7093W        W11144   5.963   3.532   4.397  0.1621 -0.0719 -0.1556
 7094W        W11145   6.574   1.810  12.919 -0.0674  0.2171  0.0667
 7095W        W11146   3.733   2.845  10.472 -0.1565 -0.0568  0.0975
 7096W        W11147   6.703   5.371   3.569  0.1014  0.1915 -0.0904
 7097W        W11148   7.685   2.235   0.722  0.2815 -0.0452 -0.1513
 7098W        W11149  10.192   4.928   1.788 -0.3714 -0.2121 -0.0509
 7099W        W11150   0.745   7.874   9.403  0.3048 -0.1446 -0.1545
 7100W        W11151   6.742   0.699   4.151 -0.1106  0.1120 -0.2739
 7101W        W11152   8.744   9.216   5.707  0.0348 -0.0253  0.0845
 7102W        W11153  10.036   7.525   9.460  0.1002  0.0719 -0.2544
 7103W        W11154   5.727   4.319  13.384 -0.3761 -0.0634  0.0093
 7104W        W11155   6.059   7.021   9.294  0.1149 -0.3837 -0.2926
 7105W        W11156   6.563   6.214   0.347  0.2239  0.1137 -0.0627
 7106W        W11157   3.259   5.411   1.622  0.1501  0.1675  0.0988
 7107W        W11158   0.101   2.480  12.071 -0.1622  0.1323  0.1056
 7108W        W11159   9.083   2.256  11.684  0.0766  0.0987 -0.0804
 7109W        W11160   1.990   4.604  10.865 -0.3321 -0.2401 -0.0169
 7110W        W11161   4.026   9.154  11.862 -0.0497 -0.1792 -0.0188
 7111W        W11162   3.216   8.382   9.242  0.2421 -0.0150  0.0095
 7112W        W11163   8.139   2.572   3.141 -0.1187 -0.0334 -0.1095
 7113W        W11164   7.286   7.081   9.774 -0.0323  0.2886 -0.2834
 7114W        W11165   2.334   7.804   9.993  0.3225  0.2769  0.2298
 7115W        W11166   1.935   0.144   4.508  0.0054  0.3581  0.1566
 7116W        W11167   0.706   2.323   3.427 -0.0692  0.1360  0.1011
 7117W        W11168   3.482   5.392   2.159 -0.1090 -0.0027  0.1892
 7118W        W11169   0.483   5.958   0.900  0.0365 -0.1105  0.0746
 7119W        W11170   5.819   0.881   4.472  0.2002 -0.1020  0.1971
 7120W        W11171   8.839   6.284  13.752 -0.1596 -0.1319 -0.0720
 7121W        W11172   8.420   6.777   1.013 -0.1697 -0.3571  0.3025
 7122W        W11173   6.349   1.752  11.240  0.1148 -0.1977 -0.2691
 7123W        W11174   5.314   4.069   1.890  0.1510  0.2918  0.0485
 7124W        W11175   2.264   7.555   3.461 -0.0602  0.1648 -0.0784
 7125W        W11176   3.291   1.108   2.619 -0.1256 -0.1555 -0.0094
 7126W        W11177   7.552   3.632   0.833 -0.0328 -0.0704  0.2221
 7127W        W11178   8.090   6.780  13.606 -0.1012 -0.0027 -0.2574
 7128W        W11179   6.630   0.618  11.346 -0.0645  0.0342 -0.0909
 7129W        W11180   8.480   5.718  11.670 -0.1081  0.3422  0.0643
 7130W        W11181   0.698   2.153  11.035  0.0280 -0.0115 -0.4174
 7131W        W11182   7.239   6.375   2.820 -0.0266 -0.1017 -0.0740
 7132W        W11183   4.513   9.556   3.757 -0.3407  0.0363 -0.1888
 7133W        W11184   1.047   0.383  13.783  0.2239  0.0370 -0.0265
 7134W        W11185   2.792   9.694  13.771 -0.4166 -0.0003  0.2131
 7135W        W11186   3.880   8.604   0.818 -0.2012  0.1923  0.0660
 7136W        W11187   8.911   8.547  13.411  0.1375  0.0497 -0.0870
 7137W        W11188   0.585   7.720   2.909  0.0135 -0.1951 -0.1312
 7138W        W11189   8.620   2.293   8.798  0.1577  0.1109  0.0925
 7139W        W11190   6.444   1.421  13.858 -0.0864 -0.0022 -0.3557
 7140W        W11191   6.812   3.028   4.319  0.0131  0.4056 -0.2740
 7141W        W11192   0.891   0.764  10.093 -0.0937  0.0187 -0.0353
 7142W        W11193   1.670   9.514   2.220 -0.0249  0.0784 -0.3463
 7143W        W11194   4.162   4.908  10.522  0.2211 -0.0898  0.2902
 7144W        W11195   4.277   1.523  11.543 -0.3997 -0.0311  0.1145
 7145W        W11196   8.445   6.154   1.905 -0.0895  0.1376  0.0814
 7146W        W11197   7.442   3.734   2.090  0.0701 -0.2229  0.0506
 7147W        W11198   5.089   0.716   3.887  0.0751 -0.0987 -0.1330
 7148W        W11199   8.088   4.718   2.135 -0.1073  0.0049  0.0624
 7149W        W11200   0.271   2.121   2.484  0.2666  0.0112  0.0748
 7150W        W11201   9.907   4.744   0.656 -0.4324  0.0839  0.0903
 7151W        W11202   8.211   4.792  13.733  0.1995  0.0156 -0.1618
 7152W        W11203   7.519   7.583   1.688  0.1074  0.1353  0.2887
 7153W        W11204   5.888   0.355   3.091  0.1564  0.0561 -0.0225
 7154W        W11205   2.669   7.639   4.172 -0.1631 -0.2479 -0.1656
 7155W        W11206   9.873   6.551   4.574 -0.2143  0.2746 -0.0892
 7156W        W11207   7.282   4.586  10.648  0.0398 -0.5534  0.2385
 7157W        W11208   3.899   9.008   9.118 -0.0267 -0.0805  0.0932
 7158W        W11209   3.751   0.026  13.056 -0.0783 -0.1161  0.1304
 7159W        W11210   3.082   0.042  11.661  0.1270 -0.1878  0.0173
 7160W        W11211   2.967   3.744   2.521  0.0089 -0.0002  0.0597
 7161W        W11212   2.321   9.342   4.335  0.2624  0.0735  0.2082
 7162W        W11213   1.748   3.005   2.788 -0.3640  0.2482 -0.0209
 7163W        W11214   7.205   5.174  13.725  0.1043  0.1425 -0.2697
 7164W        W11215   1.659   9.845   0.747 -0.1100 -0.1548 -0.1150
 7165W        W11216   7.574   4.851  13.799 -0.1014  0.2184  0.0520
 7166W        W11217   0.647   6.162   0.440 -0.1026 -0.0319 -0.2346
 7167W        W11218   9.637   5.328   2.640  0.0040  0.0280 -0.2184
 7168W        W11219   5.585   0.701  11.368  0.1831 -0.1808  0.1110
 7169W        W11220   3.887   2.007   0.179  0.3843  0.0735 -0.0007
 7170W        W11221   6.093   9.554   1.976  0.0726 -0.3812  0.0219
 7171W        W11222   9.272   0.172  11.294 -0.2344 -0.2974  0.1557
 7172W        W11223   1.777   8.704   9.369  0.1328 -0.1887 -0.2237
 7173W        W11224   7.538   2.674  10.099  0.3312 -0.2344 -0.1683
 7174W        W11225   6.242   6.797  10.927 -0.0987  0.2418 -0.0599
 7175W        W11226   7.422   8.538   4.541 -0.1471 -0.0519 -0.0328
 7176W        W11227   7.775   5.144  11.751  0.0538  0.2734  0.0419
 7177W        W11228   8.452   9.391   1.136 -0.2922 -0.3497 -0.0942
 7178W        W11229   9.511   8.540   8.690 -0.1890 -0.1510  0.0298
 7179W        W11230   5.604   6.526   0.793 -0.1269  0.0125 -0.0186
 7180W        W11231   2.309   2.275   0.042 -0.4158  0.0399 -0.1391
 7181W        W11232   2.453   6.461  10.241  0.0359  0.2161  0.1815
 7182W        W11233   5.216   8.045  10.621  0.0265  0.0675 -0.0858
 7183W        W11234   1.198   0.190  12.795 -0.2507  0.0613  0.1346
 7184W        W11235   6.749   4.132  13.111  0.0364  0.1214  0.1109
 7185W        W11236   7.178   0.638   3.776  0.1077  0.0770 -0.0019
 7186W        W11237   0.299   0.082   3.451 -0.2183 -0.1401  0.1825
 7187W        W11238   0.547   0.363   1.888 -0.1446  0.0946 -0.3225
 7188W        W11239   4.302   1.646  13.835  0.2057  0.0297 -0.0118
 7189W        W11240   0.081   6.999   0.442 -0.3018 -0.0558  0.0500
 7190W        W11241   0.500   6.240  13.244  0.0925 -0.0445  0.1993
 7191W        W11242   3.167   0.148  12.113 -0.0242  0.2363 -0.3244
 7192W        W11243   5.178   0.222  11.336  0.3463 -0.0361  0.0643
 7193W        W11244   4.820   7.716  12.819 -0.2158 -0.2013 -0.1129
 7194W        W11245   9.968   6.579  13.011 -0.0068  0.0555  0.2129
 7195W        W11246   8.085   0.549  13.270 -0.0473  0.0914  0.1208
 7196W        W11247   6.892   9.198   5.791 -0.1271  0.1511  0.1224
 7197W        W11248   5.848   7.522   2.242 -0.0229  0.1873  0.2799
 7198W        W11249   0.197   9.818   9.943 -0.0211 -0.2579  0.2166
 7199W        W11250   7.664   2.666   1.003  0.0967 -0.1971  0.1824
 7200W        W11251   7.036   0.170  11.272  0.0738  0.3915  0.1352
 7201W        W11252   7.107   7.955   0.530 -0.3539  0.5030 -0.0262
 7202W        W11253   5.096   8.092   2.609 -0.2529 -0.0835 -0.0316
 7203W        W11254   5.279   6.450  11.892  0.0405 -0.1631  0.2432
 7204W        W11255   9.746   8.939  11.248 -0.0006  0.1281 -0.0270
 7205W        W11256   5.656   9.852  11.085  0.0178 -0.1826 -0.1702
 7206W        W11257   0.096   4.130  10.632  0.1864  0.0107 -0.0745
 7207W        W11258   5.799   6.395  13.785 -0.0517 -0.3018  0.0793
 7208W        W11259   7.562   9.105   9.219 -0.1814  0.1484  0.2048
 7209W        W11260   9.375   1.645   1.668  0.0691 -0.2557  0.1051
 7210W        W11261   1.949   3.727  11.831  0.0263 -0.1708 -0.0572
 7211W        W11262   6.499   2.976  13.763  0.1499 -0.0572 -0.0454
 7212W        W11263   1.214   7.236  12.562 -0.1686  0.2862  0.0781
 7213W        W11264   3.440   6.747  12.771 -0.1329 -0.5331 -0.1741
 7214W        W11265   1.734   5.387  11.232  0.0498 -0.2767 -0.1024
 7215W        W11266   4.062   0.704   9.647 -0.0670 -0.1234  0.0804
 7216W        W11267   3.590   0.880   8.676 -0.0116  0.3004  0.0666
 7217W        W11268   8.865   0.816  13.753  0.1942 -0.0634  0.2716
 7218W        W11269   4.339   8.212  12.235 -0.2014 -0.3687  0.3505
 7219W        W11270   6.211   8.795   1.958  0.0411  0.3186  0.3395
 7220W        W11271   4.020   3.235  10.004  0.0337 -0.0220  0.0029
 7221W        W11272   7.492   3.579  12.871 -0.0841  0.2964 -0.3075
 7222W        W11273   6.147   5.769   4.844 -0.3362  0.0367  0.2063
 7223W        W11274   1.860   8.607  12.520  0.2353 -0.2289  0.0318
 7224W        W11275   7.214   5.693   0.104  0.1278  0.0728  0.1451
 7225W        W11276   6.014   8.292   3.205 -0.2804  0.2730  0.3823
 7226W        W11277   8.527   7.618   0.413 -0.0291 -0.3145 -0.2967
 7227W        W11278   6.152   4.142  11.727  0.1692 -0.1163 -0.0811
 7228W        W11279   2.595   9.947  12.960 -0.1789 -0.0739  0.1898
 7229W        W11280   3.692   8.705   4.451 -0.2344  0.0279  0.1420
 7230W        W11281   8.212   8.619  13.885 -0.1510  0.1009  0.1209
 7231W        W11282   8.788   1.034   1.690  0.1142  0.1049 -0.2669
 7232W        W11283   8.442   9.140  10.176  0.2206  0.0542  0.0937
 7233W        W11284   0.895   3.154   0.814 -0.0835 -0.1679  0.0151
 7234W        W11285   7.369   9.537  12.324  0.4594 -0.1654  0.0732
 7235W        W11286   7.616   7.085  13.839  0.0491  0.0645  0.1060
 7236W        W11287   5.202   9.867   2.498 -0.2027 -0.0464  0.0142
 7237W        W11288   8.646   0.179   2.191 -0.0985  0.0119 -0.0656
 7238W        W11289   7.027   2.690  13.882 -0.3417 -0.0025 -0.1573
 7239W        W11290   2.542   9.161  10.308 -0.0264  0.0404 -0.2766
 7240W        W11291   2.617   4.128   2.532  0.3847  0.1129  0.1474
 7241W        W11292   8.104   9.842   1.227  0.1517 -0.0457 -0.3812
 7242W        W11293  10.065  10.085  10.574 -0.0369  0.1293  0.2958
 7243W        W11294   9.538   2.582   4.979  0.2654 -0.3051  0.2566
 7244W        W11295   5.436   9.676   3.405 -0.1659 -0.2520 -0.1583
 7245W        W11296   6.412   9.574   0.519 -0.0233  0.2232 -0.1226
 7246W        W11297   8.428   2.286  11.721  0.0732  0.2949 -0.0554
 7247W        W11298   8.404   9.777   0.828  0.0184 -0.0134 -0.0612
 7248W        W11299   0.295   6.978   1.622 -0.1430 -0.2693 -0.2807
 7249W        W11300   6.354   9.602  10.489 -0.0576 -0.2436 -0.2146
 7250W        W11301   6.533   0.788   1.666  0.1329  0.0514  0.5398
 7251W        W11302   4.327   0.353   2.535 -0.2064 -0.2439  0.0480
 7252W        W11303   6.306   5.102  10.063 -0.1245  0.1013 -0.1288
 7253W        W11304   0.245   9.498   1.064  0.2259  0.3434 -0.0699
 7254W        W11305   9.629   1.299   2.640  0.0411  0.0639 -0.4379
 7255W        W11306   5.944   4.478   4.364 -0.1814 -0.0239  0.4920
 7256W        W11307   5.703   5.415  13.061  0.1756  0.0302 -0.2219
 7257W        W11308   7.304   9.231   1.389 -0.0508 -0.0399  0.3125
 7258W        W11309   0.518   1.548   2.313  0.0836 -0.1805 -0.1283
 7259W        W11310   9.264   3.260  12.637 -0.0408 -0.1656 -0.1292
 7260W        W11311   1.603   4.525  10.550  0.0120 -0.2287 -0.1404
 7261W        W11312   8.421   5.761   9.235 -0.0326 -0.1705 -0.2801
 7262W        W11313   5.360   9.484  10.518 -0.0464  0.3343 -0.2669
 7263W        W11314   9.944   5.600   1.252 -0.1954  0.2096 -0.4235
 7264W        W11315  10.010   7.722   0.201  0.2344  0.0528  0.1953
 7265W        W11316   9.969   5.792   1.705 -0.3138  0.2284 -0.0011
 7266W        W11317   3.765   8.493   3.928  0.1122  0.1163  0.2442
 7267W        W11318   9.837   7.292   9.923 -0.0948 -0.2303  0.0984
 7268W        W11319   6.235   3.935   4.449 -0.1229 -0.0085  0.3138
 7269W        W11320   4.785   9.816  10.171  0.0812  0.3082  0.1848
 7270W        W11321   8.850   1.088  11.173  0.1024  0.0504 -0.1255
 7271W        W11322   1.829   5.776  12.039 -0.1133 -0.1414 -0.0836
 7272W        W11323   1.427   5.205   1.460  0.1269 -0.0511  0.1204
 7273W        W11324   0.173   2.601   2.438 -0.2698 -0.3041  0.2489
 7274W        W11325   3.654   1.181  12.193 -0.1170 -0.0214 -0.0603
 7275W        W11326   4.462   1.794  11.960 -0.0925  0.0778  0.0658
 7276W        W11327   0.521   7.525  13.741 -0.3183  0.0352  0.0628
 7277W        W11328  10.011   8.321  12.496 -0.1723  0.1475 -0.2162
 7278W        W11329   8.572   1.132  13.493 -0.1040 -0.0081  0.2091
 7279W        W11330   4.498   7.204  12.660  0.2380  0.0173 -0.1370
 7280W        W11331   9.893   2.772   2.858  0.0280  0.1608  0.1959
 7281W        W11332   9.368   8.338  13.249 -0.2449  0.0571 -0.3596
 7282W        W11333   0.551   1.181  12.473 -0.0792 -0.0009  0.0625
 7283W        W11334   1.433   7.380  11.178  0.3574 -0.1670  0.3559
 7284W        W11335   5.033   5.110   0.687 -0.0370  0.1850 -0.1622
 7285W        W11336   9.669   6.780  12.404  0.0774 -0.0142  0.1962
 7286W        W11337   4.836   7.499   3.077  0.1069  0.0216  0.0828
 7287W        W11338   0.560   2.804  10.254 -0.0159 -0.2206  0.0736
 7288W        W11339   7.472   1.109  13.680 -0.0666  0.2608 -0.3077
 7289W        W11340   7.758   5.638   2.049  0.0916 -0.0378  0.1445
 7290W        W11341   1.332   1.552   1.570  0.3255 -0.2051  0.1600
 7291W        W11342   7.444   4.827  11.508 -0.1525  0.0262 -0.3398
 7292W        W11343   6.261   1.315   0.850 -0.0382 -0.1182 -0.0931
 7293W        W11344  10.125   8.670   2.852  0.3633 -0.1025 -0.1485
 7294W        W11345   7.683   4.718   9.593 -0.0806  0.0532 -0.0313
 7295W        W11346   2.645   0.161  13.281 -0.0284  0.3459 -0.1033
 7296W        W11347   1.235   3.247   2.693  0.2343 -0.0212  0.0257
 7297W        W11348   3.301   0.302  10.471  0.2399  0.0166 -0.1790
 7298W        W11349   8.488   2.276   3.703  0.0024 -0.2488  0.0135
 7299W        W11350   2.932   5.208   0.599  0.1729 -0.1610 -0.1205
 7300W        W11351   4.569   8.555   9.056 -0.0180  0.2184  0.1689
 7301W        W11352   8.664   6.339   5.568  0.0655  0.1567  0.1722
 7302W        W11353   3.177   4.763  10.573  0.1123  0.1495 -0.1282
 7303W        W11354   7.341   7.249   2.073 -0.1869  0.3352  0.2353
 7304W        W11355   8.405   4.956  13.308  0.1251  0.2051  0.1026
 7305W        W11356   6.675   5.939   9.802  0.3794 -0.1092 -0.0876
 7306W        W11357   5.686   4.750  10.828 -0.0113 -0.4725  0.0216
 7307W        W11358   8.688   2.628  13.910 -0.3772 -0.0608 -0.1989
 7308W        W11359   7.679   4.936   0.922  0.1745  0.0247 -0.0078
 7309W        W11360   8.794   9.081  11.236 -0.0651 -0.1580  0.3588
 7310W        W11361   3.481   6.642   0.295 -0.0129 -0.1893  0.3000
 7311W        W11362   2.182   7.288   2.210  0.0118  0.2725  0.0798
 7312W        W11363   7.723   8.465  12.868  0.1732 -0.1953  0.0797
 7313W        W11364   3.480   9.149   3.066  0.1797 -0.1077  0.1554
 7314W        W11365   6.187   2.010   1.814 -0.3921  0.1198  0.0996
 7315W        W11366   0.784   2.277  11.562  0.2132 -0.0942 -0.0011
 7316W        W11367   9.606   6.656   3.181 -0.1727  0.0071  0.2192
 7317W        W11368   4.836   3.776   3.216  0.3192 -0.1432  0.1613
 7318W        W11369   0.287   2.011   1.886  0.1480 -0.0266  0.0894
 7319W        W11370  10.077   1.681  10.284 -0.0772 -0.0246  0.1429
 7320W        W11371   3.586   1.411   0.889 -0.3375  0.0475 -0.2530
 7321W        W11372   0.402   7.897   1.375  0.2379  0.0839  0.0451
 7322W        W11373   7.049   7.710  12.624  0.0076  0.0110  0.2944
 7323W        W11374   4.292   8.282  11.691  0.2527 -0.2443  0.0970
 7324W        W11375   6.803   0.406  10.363 -0.0960 -0.2613 -0.1446
 7325W        W11376   7.849   6.483  11.988 -0.1368  0.0027 -0.0015
 7326W        W11377   4.613   7.755   3.399  0.1506 -0.1406  0.0413
 7327W        W11378   4.729  10.028   2.332 -0.0569 -0.0371  0.2556
 7328W        W11379   0.418   7.125   3.508  0.2486  0.0519  0.0279
 7329W        W11380   1.435   4.118  12.066 -0.0104  0.0845 -0.2018
 7330W        W11381   9.643   9.354   0.197  0.0403 -0.4087  0.4094
 7331W        W11382   6.636   7.161  11.178  0.0827 -0.0759  0.2680
 7332W        W11383   3.447   9.992  11.290  0.0714  0.2295 -0.0187
 7333W        W11384   3.579   9.925   4.910  0.3069 -0.1555 -0.0131
 7334W        W11385   5.705   3.411   1.053  0.0747 -0.0000  0.2474
 7335W        W11386   7.827   2.233   8.667  0.2300  0.0215  0.0372
 7336W        W11387   4.302   8.519  11.185 -0.1014 -0.1740 -0.0871
 7337W        W11388   5.545   4.993   1.999 -0.0233 -0.1565  0.2052
 7338W        W11389   3.635   5.413   0.729  0.1755  0.0643 -0.2324
 7339W        W11390   0.957   0.875  11.684 -0.0891 -0.3395  0.0790
 7340W        W11391   2.916   3.552  12.912  0.1114  0.2693  0.1446
 7341W        W11392   7.825   2.746  12.385 -0.0578 -0.0733  0.1441
 7342W        W11393   2.898   7.753  13.448  0.0537 -0.2863 -0.0377
 7343W        W11394   5.217   1.604   2.687  0.2379 -0.0483  0.0505
 7344W        W11395   9.410   2.484   9.449 -0.1235 -0.2516 -0.1011
 7345W        W11396   9.638   2.397  13.023 -0.2967 -0.0264 -0.1173
 7346W        W11397   3.028   0.598   4.579 -0.0871 -0.0328  0.0682
 7347W        W11398   8.036   3.118  12.072 -0.1697 -0.1566  0.1121
 7348W        W11399   0.177   0.885   3.324 -0.1813 -0.0235 -0.1767
 7349W        W11400   6.517   6.266  12.689  0.2123  0.3001 -0.3795
 7350W        W11401   4.241   9.497   0.165 -0.0568  0.1481 -0.1192
 7351W        W11402   8.101   3.481   9.802  0.1387 -0.4959 -0.0220
 7352W        W11403   1.785   8.503  10.189 -0.1252 -0.2799  0.2025
 7353W        W11404   6.311   6.935  11.464  0.1030  0.0595  0.1076
 7354W        W11405   1.253   5.301   0.118  0.2801  0.1986 -0.0626
 7355W        W11406   2.555   1.542   9.764 -0.2406 -0.2114 -0.1133
 7356W        W11407   8.291   5.930   2.869  0.1067  0.1239  0.2493
 7357W        W11408   9.525   2.017   1.353 -0.0432 -0.0980 -0.2759
 7358W        W11409   9.588   3.738  13.545  0.1334  0.0800 -0.0989
 7359W        W11410   8.378   8.668  13.168  0.0069  0.0500 -0.1324
 7360W        W11411   3.024   7.249  13.289  0.1861  0.0382  0.2792
 7361W        W11412   2.529   1.871   4.568  0.2841 -0.3299 -0.1914
 7362W        W11413   6.020   4.200   2.427 -0.4077 -0.0564  0.1833
 7363W        W11414   7.391   1.862   0.400 -0.1089 -0.3306  0.2613
 7364W        W11415   5.047   5.024   2.144  0.3719  0.2951 -0.0708
 7365W        W11416   6.713   0.826   3.681 -0.0114 -0.0207 -0.1984
 7366W        W11417   6.836   7.118  13.842  0.0550  0.1118  0.3737
 7367W        W11418   4.982   6.561   3.592 -0.0963  0.2094  0.0418
 7368W        W11419   6.428   4.514   8.697  0.0493 -0.1068  0.1250
 7369W        W11420   2.508   1.893  12.125  0.2737 -0.0610  0.1491
 7370W        W11421   5.020   5.466  13.152 -0.1899 -0.0663  0.0388
 7371W        W11422   7.159   7.472  10.853 -0.1906 -0.1828 -0.1078
 7372W        W11423   5.450   0.142   9.575 -0.0698  0.2383 -0.1002
 7373W        W11424   4.442   0.148   1.211 -0.2444 -0.1708 -0.1841
 7374W        W11425   0.964   5.198   3.397 -0.4316  0.0263  0.0823
 7375W        W11426   6.765   4.316   1.697  0.0648  0.1074  0.1671
 7376W        W11427   1.797   1.653   4.691 -0.2702  0.1190 -0.1142
 7377W        W11428   8.107   9.146   9.066  0.2035  0.1516 -0.1800
 7378W        W11429   6.548   1.676   9.714  0.3474 -0.1082 -0.0087
 7379W        W11430   5.024   9.963   3.044  0.1955 -0.2540 -0.0154
 7380W        W11431   7.266   3.863  13.931  0.0994  0.2257 -0.2678
 7381W        W11432   0.371   3.665  13.362  0.0559  0.0523  0.2128
 7382W        W11433   2.849   7.147   4.186  0.1082  0.1245  0.2255
 7383W        W11434   5.466   6.810   4.274  0.0227  0.1770 -0.2251
 7384W        W11435   1.860   5.367  13.923  0.0719  0.0208  0.0121
 7385W        W11436   5.078   3.279   0.111 -0.0890 -0.0892  0.0221
 7386W        W11437   8.212   7.311   4.900 -0.0729 -0.0323  0.5060
 7387W        W11438   7.872   7.842   9.505 -0.1142 -0.0655  0.1688
 7388W        W11439   3.920   5.868  10.332 -0.2258 -0.1607 -0.0284
 7389W        W11440   8.282  10.168   9.547 -0.1076 -0.1174  0.1208
 7390W        W11441   2.723   7.844   9.216  0.3658 -0.0534  0.0961
 7391W        W11442   4.236   1.026  11.639 -0.4293 -0.2733 -0.4388
 7392W        W11443   7.124   3.261   1.510  0.0378 -0.0353 -0.0739
 7393W        W11444   3.369   9.653   3.167 -0.2092  0.1384  0.1954
 7394W        W11445   0.831   3.671  10.848  0.0786 -0.0984 -0.5004
 7395W        W11446   1.116   9.960  12.469 -0.4876 -0.0355  0.6137
 7396W        W11447   7.542   2.733   9.539 -0.0974 -0.2127 -0.1943
 7397W        W11448   5.342   0.021   1.458  0.1604 -0.1489 -0.0463
 7398W        W11449   8.104   2.925   0.770  0.1234  0.0719  0.2683
 7399W        W11450   7.941   5.982  10.798 -0.0630 -0.2480  0.2720
 7400W        W11451   8.196   8.929   3.333  0.0240 -0.1050 -0.3645
 7401W        W11452   0.721   6.711  13.274  0.2834 -0.1307 -0.0397
 7402W        W11453   8.594   0.648   9.902  0.2755 -0.4300 -0.3066
 7403W        W11454   9.471   3.472  10.785 -0.0500  0.1153 -0.1128
 7404W        W11455   3.324   5.396   9.576 -0.1191 -0.0752 -0.0692
 7405W        W11456   6.325   8.083  10.970  0.3543  0.0071 -0.4476
 7406W        W11457   8.393   4.013   2.407  0.0730 -0.2230 -0.3221
 7407W        W11458   6.775   6.426   1.031  0.0688  0.0730 -0.3975
 7408W        W11459   0.319   6.480  10.616  0.0636 -0.1056 -0.4257
 7409W        W11460   6.729   4.681   2.850 -0.0564  0.0984 -0.3075
 7410W        W11461   3.094   0.867  13.932 -0.2473  0.1790  0.1179
 7411W        W11462   6.875   1.807   1.328 -0.0266  0.0138  0.0744
 7412W        W11463   3.439   6.561   3.845  0.1349  0.1475  0.0126
 7413W        W11464   3.995   2.537  10.157  0.3480 -0.5028 -0.2494
 7414W        W11465   4.545   4.311   2.147  0.0412 -0.0600  0.2434
 7415W        W11466   4.775   5.401  10.274  0.0459 -0.0824  0.2254
 7416W        W11467   6.356   8.251  13.812  0.0503 -0.0249  0.3271
 7417W        W11468   8.795   9.056   0.687  0.0364 -0.1057 -0.1213
 7418W        W11469   6.058   2.537  12.524 -0.4464 -0.0197  0.2158
 7419W        W11470   2.059   6.974   4.326 -0.2099 -0.0724 -0.0052
 7420W        W11471   4.188   8.647   9.306  0.0538 -0.0042 -0.1034
 7421W        W11472   0.680   2.400   2.559  0.1979  0.0052 -0.0513
 7422W        W11473   9.529   6.511   4.211  0.0129 -0.4457  0.1702
 7423W        W11474   5.997   5.642  11.018 -0.0723  0.4202  0.2750
 7424W        W11475   9.242   3.906  10.592 -0.2772 -0.0122  0.2024
 7425W        W11476   8.809   1.698   0.246 -0.2187  0.1350 -0.1982
 7426W        W11477   2.773   8.136  13.087 -0.0610  0.2744 -0.1639
 7427W        W11478   5.184   8.161   0.527  0.1164  0.1429  0.1020
 7428W        W11479   4.184   6.558  11.453  0.4364  0.0655 -0.2724
 7429W        W11480   6.898   6.879  12.468 -0.1993  0.0818 -0.0662
 7430W        W11481   5.370   0.933  12.269 -0.1213  0.0924 -0.0935
 7431W        W11482   5.398   6.681   2.119  0.1000 -0.0236 -0.1072
 7432W        W11483   4.295   4.882   0.493 -0.2114 -0.1304 -0.1197
 7433W        W11484  10.153   1.662   2.409  0.0785  0.0147  0.0398
 7434W        W11485   5.384   5.034  13.090 -0.3049  0.2653 -0.1479
 7435W        W11486   6.070   7.202   9.938  0.1313 -0.0457 -0.2337
 7436W        W11487  10.138   2.639   9.023 -0.3097 -0.1319 -0.3036
 7437W        W11488   7.438   7.021   0.820  0.0586  0.2694  0.1668
 7438W        W11489   9.621   1.978   2.041  0.2276 -0.1056 -0.0011
 7439W        W11490   1.669   1.933  10.536 -0.0548 -0.2399  0.0235
 7440W        W11491   2.091   9.434   5.667  0.0109  0.3218  0.2005
 7441W        W11492   6.968   8.515   1.587  0.0666 -0.0500  0.1293
 7442W        W11493   7.899   7.168  11.451  0.0770  0.1883  0.0160
 7443W        W11494   8.044   0.447  10.401 -0.1472  0.0539 -0.0040
 7444W        W11495   0.819   3.527  13.897  0.0015  0.3313 -0.3030
 7445W        W11496   2.815   2.153   2.589 -0.1614 -0.1806  0.0772
 7446W        W11497   5.117   1.271   1.986  0.2093 -0.1167  0.1845
 7447W        W11498   0.872   0.339   0.555 -0.0963  0.1341  0.2180
 7448W        W11499   5.009   6.070   1.527 -0.1293  0.3159 -0.0420
 7449W        W11500   8.378   3.685   9.371 -0.0989  0.3380 -0.2112
 7450W        W11501   1.811   8.179   2.736  0.2617  0.0643  0.0050
 7451W        W11502   3.551   4.636  12.925  0.1319 -0.1695  0.2376
 7452W        W11503   5.291   6.571  10.539 -0.1295 -0.0237  0.0723
 7453W        W11504   5.641   7.611   1.747  0.1116 -0.4128 -0.0556
 7454W        W11505   1.766   2.156  12.344 -0.0378  0.0539 -0.0676
 7455W        W11506   9.887   6.577  13.488 -0.0922  0.1145  0.0534
 7456W        W11507   1.166   1.381  11.807  0.0827 -0.0812 -0.1277
 7457W        W11508   3.384   5.482   2.931 -0.0384 -0.1526 -0.0994
 7458W        W11509   9.799   6.085   4.331  0.0772 -0.0624  0.1931
 7459W        W11510   7.756   8.626   3.240  0.1201  0.0556  0.1888
 7460W        W11511   6.810   9.102   1.734 -0.0056 -0.0506  0.4042
 7461W        W11512   7.516   9.196   0.148 -0.0096  0.2397 -0.1354
 7462W        W11513   2.565   8.209   9.845 -0.0862 -0.0361  0.0976
 7463W        W11514   9.539   2.920  11.109  0.0057 -0.1146 -0.3063
 7464W        W11515   3.657   9.704   2.210  0.1479 -0.0204 -0.3747
 7465W        W11516   5.442   0.575  13.647  0.1399  0.2083  0.0525
 7466W        W11517   5.101   3.953  10.849 -0.1553 -0.4907 -0.3302
 7467W        W11518   0.384   5.525  11.538  0.0283 -0.0088  0.0333
 7468W        W11519   4.594   0.732  11.439  0.3242 -0.0712  0.0408
 7469W        W11520   2.534   0.828  11.674 -0.2243 -0.1505  0.1715
 7470W        W11521   0.219   3.424   0.467  0.0228  0.1475  0.1393
 7471W        W11522   9.401   2.786  12.754 -0.0506  0.1131 -0.3722
 7472W        W11523   0.728   0.105  11.208 -0.1297  0.1504 -0.2415
 7473W        W11524   4.005   6.000   3.830  0.3936  0.0321  0.2691
 7474W        W11525   9.849   1.436   0.168  0.0648  0.1627  0.0745
 7475W        W11526   8.108   4.219   3.671  0.0171 -0.2950 -0.1591
 7476W        W11527   7.088   1.081  13.255 -0.1719 -0.0286  0.1983
 7477W        W11528   8.807   3.692   0.493 -0.1318 -0.2506  0.1989
 7478W        W11529   9.830   5.859  11.062  0.2763  0.1940  0.0909
 7479W        W11530   7.296   5.797   1.331 -0.0206 -0.2689 -0.2717
 7480W        W11531   5.768   1.680  12.982  0.0688  0.1391  0.1249
 7481W        W11532   0.524   3.732   0.839 -0.1534  0.1448  0.1370
 7482W        W11533   6.470   9.771   2.399 -0.0331  0.1020 -0.1862
 7483W        W11534   9.433   8.393  11.212  0.0921  0.1080 -0.2452
 7484W        W11535   6.723  10.180  12.481  0.3208  0.0057  0.0344
 7485W        W11536   6.642   5.644  10.246 -0.4680 -0.2365 -0.1744
 7486W        W11537   3.677   9.988   0.981  0.2623 -0.1670  0.0523
 7487W        W11538   6.612   1.927  13.766 -0.0568 -0.0317  0.0835
 7488W        W11539   3.756   9.807  13.598 -0.0607 -0.2097 -0.2768
 7489W        W11540   4.349   6.699   1.972  0.0985 -0.2140 -0.0740
 7490W        W11541   0.025   8.702  11.258  0.3775 -0.1377 -0.2731
 7491W        W11542   9.566   5.452   9.614 -0.1121  0.1153  0.0308
 7492W        W11543   0.093   3.409   3.506  0.2057 -0.0393  0.1676
 7493W        W11544   4.301   3.794   3.296  0.1143  0.0794  0.0050
 7494W        W11545   8.962   8.189   2.312 -0.1281  0.0036  0.1581
 7495W        W11546  10.116   4.187   9.188 -0.1991 -0.0630 -0.0359
 7496W        W11547   9.227   2.116  12.814 -0.1812 -0.0460  0.0233
 7497W        W11548   1.942   1.340   4.164  0.2033 -0.0955  0.0857
 7498W        W11549   6.349   6.370  11.451 -0.1610  0.1993  0.2000
 7499W        W11550   3.668   8.146   2.055 -0.2001 -0.0375 -0.2133
 7500W        W11551   1.711   9.873   3.770 -0.0101 -0.0451 -0.0554
 7501W        W11552   6.949   3.854  13.501  0.1063  0.1285 -0.1982
 7502W        W11553   3.981   5.700  13.573  0.0661 -0.0869  0.1297
 7503W        W11554   0.532   9.041   0.838  0.0981  0.0114 -0.0736
 7504W        W11555   4.456   6.683   4.782 -0.0059 -0.0821  0.1141
 7505W        W11556   2.059   0.826   3.487 -0.0683 -0.0680  0.1459
 7506W        W11557   7.833   0.073  10.730  0.0434 -0.0739  0.0906
 7507W        W11558   4.225   2.146   2.450  0.1742 -0.0746 -0.0271
 7508W        W11559   6.168   9.603   3.371 -0.0826 -0.1364  0.0367
 7509W        W11560   1.356   4.311   2.496  0.0017 -0.3836  0.0864
 7510W        W11561   8.915   6.540   1.101 -0.2228 -0.4281 -0.2026
 7511W        W11562   6.181   4.098   0.028 -0.0181 -0.0166  0.0814
 7512W        W11563   0.949   3.115  13.004 -0.1048 -0.0031  0.0233
 7513W        W11564   7.445   4.623   0.333 -0.2754  0.1479 -0.3225
 7514W        W11565   5.904   6.293   9.333  0.0829 -0.1108 -0.2382
 7515W        W11566   1.935  10.150   9.179 -0.0936  0.3661 -0.0580
 7516W        W11567   1.303   6.938  10.379 -0.3517  0.2608 -0.0496
 7517W        W11568   3.034   0.606  11.805 -0.0335 -0.0254 -0.2008
 7518W        W11569   1.659   9.926   8.820  0.0708  0.0880 -0.0193
 7519W        W11570   8.978   2.697  11.207 -0.0944 -0.1228  0.2587
 7520W        W11571   3.458   2.787   2.386 -0.1985 -0.2498 -0.1644
 7521W        W11572   4.661   1.833  13.647 -0.1607 -0.4405  0.4380
 7522W        W11573   0.815   1.563   1.309 -0.1776 -0.0656  0.1988
 7523W        W11574   8.648   3.281  12.657 -0.3701 -0.2787 -0.1393
 7524W        W11575   1.174   0.065   0.200  0.0883  0.0319 -0.0395
 7525W        W11576   2.270   3.879   1.728  0.1595  0.2650  0.1973
 7526W        W11577   2.579   8.421   9.046  0.0769  0.0257  0.0001
 7527W        W11578   8.557   5.173   3.497 -0.0805 -0.1504  0.0023
 7528W        W11579   3.448   4.352   0.608 -0.2015  0.0848  0.0660
 7529W        W11580   6.147   1.873   9.405 -0.0105  0.0111 -0.2205
 7530W        W11581   8.674   4.144   0.705  0.0595 -0.1448 -0.0593
 7531W        W11582   3.274   2.318  11.466 -0.0903  0.0164 -0.1517
 7532W        W11583   8.957   1.403   3.943 -0.1321  0.0460 -0.1808
 7533W        W11584   0.886   8.029  11.326  0.0182  0.1323 -0.2181
 7534W        W11585   6.677   3.704  11.039 -0.3111 -0.1090 -0.0491
 7535W        W11586   4.863   5.617   3.072  0.0515  0.1758  0.2656
 7536W        W11587   2.718   7.796  11.195  0.0020 -0.1678 -0.1701
 7537W        W11588   7.091   1.711   1.778 -0.1749 -0.3738 -0.2635
 7538W        W11589   9.254   3.193  11.387 -0.0896 -0.1657  0.2498
 7539W        W11590   9.822   5.852   0.696  0.1439 -0.0959 -0.0257
 7540W        W11591   4.138   5.175   9.134 -0.0708  0.1000 -0.1281
 7541W        W11592   2.397   1.275  11.512  0.0705 -0.0356 -0.4050
 7542W        W11593   7.047   4.931   2.559  0.1776  0.0057 -0.0833
 7543W        W11594  10.113   2.178   2.134  0.0310 -0.3582 -0.4627
 7544W        W11595   0.695   9.186   0.017  0.2905  0.0461  0.0662
 7545W        W11596   2.646   4.201   1.023  0.0417  0.0448 -0.2279
 7546W        W11597  10.066   6.902  10.081 -0.1454 -0.1479  0.3390
 7547W        W11598   9.034   6.771  13.874 -0.1586  0.5027 -0.1840
 7548W        W11599   9.863   7.758   2.174 -0.0646 -0.0533  0.1783
 7549W        W11600   2.393   8.931   2.886 -0.1262  0.2084 -0.0477
 7550W        W11601   7.266   6.065  12.410  0.2466  0.0310  0.1499
 7551W        W11602   1.398   1.162  11.352  0.2145  0.0064 -0.1865
 7552W        W11603   4.352   6.195   1.089  0.2127 -0.0781  0.0648
 7553W        W11604   1.914   4.382   2.660  0.1429 -0.1709  0.2940
 7554W        W11605   5.420   6.026  10.253  0.1533 -0.0353 -0.1630
 7555W        W11606   5.954   9.788   0.200  0.4864 -0.1229  0.1170
 7556W        W11607   7.938   7.915   0.881 -0.2182  0.0782  0.0229
 7557W        W11608   4.335   9.470  10.185 -0.0575  0.2514 -0.1868
 7558W        W11609   2.389   6.527  10.747  0.0175  0.0038  0.1940
 7559W        W11610   2.904   1.410   2.218  0.2302  0.0911 -0.1819
 7560W        W11611   3.831   2.795   1.879  0.2365  0.3055  0.2484
 7561W        W11612   5.262   7.455   9.884  0.0031  0.0908  0.1608
 7562W        W11613   5.043   8.414   1.555  0.1162 -0.2411 -0.0058
 7563W        W11614   9.196   1.476  10.951  0.1191 -0.0787 -0.1109
 7564W        W11615   3.565   5.862  13.302  0.0883  0.2750 -0.2511
 7565W        W11616   4.055   6.236   0.645  0.0444 -0.2371  0.1202
 7566W        W11617   1.037   1.153   4.309  0.0372 -0.0137  0.2223
 7567W        W11618   4.840   6.061   1.037 -0.1154  0.0018  0.1689
 7568W        W11619   5.071   6.163  10.880  0.0401 -0.1082 -0.0542
 7569W        W11620   7.581   7.316   0.334  0.0423 -0.0168 -0.2807
 7570W        W11621   4.570   4.267   3.259 -0.0534 -0.1490  0.1660
 7571W        W11622   0.443   5.263   3.073 -0.4659 -0.0906  0.0867
 7572W        W11623   8.241   7.834  10.887 -0.0088 -0.1007 -0.3215
 7573W        W11624   9.013   9.691   4.708 -0.0600  0.2830  0.1262
 7574W        W11625   8.837   0.773  12.753  0.3550  0.1173  0.0818
 7575W        W11626   7.641   6.215  11.614  0.0662  0.2654 -0.1778
 7576W        W11627   8.873   7.532  13.268  0.1922  0.3737 -0.1812
 7577W        W11628   0.291   7.910   0.203 -0.1090  0.0871  0.1675
 7578W        W11629   9.825   1.780   3.917  0.4075  0.0314 -0.0675
 7579W        W11630   7.918   9.467   9.601  0.0745  0.0699  0.1554
 7580W        W11631   5.770   4.840  13.468  0.1373 -0.0263  0.0512
 7581W        W11632   4.676   1.300   1.763  0.0033  0.1129 -0.1045
 7582W        W11633   6.318   9.370  11.520  0.0174  0.1989  0.0407
 7583W        W11634   9.823   6.075  13.659  0.4719 -0.1226  0.1116
 7584W        W11635   6.914   4.300   3.642 -0.0293  0.1096 -0.0744
 7585W        W11636   8.357   0.201  11.446 -0.1781 -0.1601  0.0242
 7586W        W11637   1.213   4.807  13.148  0.2526 -0.0575 -0.1900
 7587W        W11638   1.709   6.356   3.458 -0.2248  0.0396 -0.1070
 7588W        W11639   2.107   1.902   2.549  0.0268  0.2387  0.2035
 7589W        W11640   6.329   4.623   2.472  0.2278 -0.2545  0.0189
 7590W        W11641   6.104   2.611   3.600  0.3016  0.0526 -0.3733
 7591W        W11642   9.025   0.580   1.545  0.1527  0.0682 -0.1313
 7592W        W11643   5.343   7.791   0.827  0.2462  0.1205 -0.0351
 7593W        W11644   5.763   8.074   0.506  0.1460  0.2057  0.0674
 7594W        W11645   8.012   7.888   8.948 -0.1641  0.2897  0.2170
 7595W        W11646   1.158   4.279   2.969 -0.0369  0.2843 -0.4236
 7596W        W11647   7.071   6.638   5.005  0.0192  0.1352 -0.0096
 7597W        W11648   8.065   6.031  11.854 -0.2253 -0.1419 -0.2661
 7598W        W11649   1.153   8.807   3.391  0.0112 -0.1351  0.1724
 7599W        W11650   6.102   1.268  12.422  0.2929 -0.1399 -0.0873
 7600W        W11651   7.980   1.992   9.680 -0.2633 -0.0537 -0.0303
 7601W        W11652   4.004   8.555   1.797 -0.1883 -0.0962 -0.0204
 7602W        W11653   2.904   9.840   3.518  0.0135 -0.0453  0.3527
 7603W        W11654   6.798   6.198   3.215  0.2782 -0.1098  0.2183
 7604W        W11655   6.594   0.508  12.327 -0.0564  0.2969 -0.1515
 7605W        W11656   1.806   3.741   1.514  0.0362  0.2177  0.2766
 7606W        W11657   4.798   6.932   1.708 -0.0988 -0.3476  0.0234
 7607W        W11658   2.710   3.600   1.579  0.1159 -0.2835 -0.1345
 7608W        W11659   7.163   8.904   0.414 -0.0899 -0.1609 -0.0952
 7609W        W11660   9.739   9.198  12.035  0.0419 -0.1426 -0.0931
 7610W        W11661   1.106   4.124  12.947  0.3373  0.0887  0.2494
 7611W        W11662   6.612  10.109   0.830  0.0215 -0.1016  0.2483
 7612W        W11663   4.723   8.486  13.112  0.0773  0.0001 -0.1486
 7613W        W11664   7.752   7.113   1.783 -0.3057 -0.1047 -0.0038
 7614W        W11665   1.128   6.771   0.115 -0.0037 -0.0598 -0.1274
 7615W        W11666   7.109   3.832  11.718 -0.0173 -0.0654 -0.2880
 7616W        W11667   6.100   4.935   4.643  0.1195  0.2740 -0.0182
 7617W        W11668   5.993   6.370   3.073 -0.0116 -0.0934 -0.1839
 7618W        W11669   5.933   0.992   0.524 -0.0119  0.0027 -0.0562
 7619W        W11670   7.782   4.390  13.642  0.0843  0.1257  0.0286
 7620W        W11671   2.928   3.294  13.377  0.2464 -0.2177  0.0819
 7621W        W11672  10.178   0.715  11.390  0.1869 -0.0157 -0.0230
 7622W        W11673   9.781   3.490   1.308  0.1072 -0.0571  0.0780
 7623W        W11674   2.660   8.768   2.504 -0.2608 -0.1824 -0.0239
 7624W        W11675   7.850   9.133  11.034 -0.1068 -0.0838 -0.0469
 7625W        W11676   6.690   0.052  13.204 -0.2825 -0.0610  0.0077
 7626W        W11677   0.935   7.557  11.148  0.1884  0.0549 -0.2019
 7627W        W11678   8.353   5.677   4.149 -0.0765 -0.1134  0.2110
 7628W        W11679   0.559   5.461   4.157 -0.1797 -0.0914 -0.0058
 7629W        W11680   3.732   9.820   1.552  0.0153  0.0549 -0.0762
 7630W        W11681   1.098   9.520   1.438  0.0328  0.4534 -0.1374
 7631W        W11682   2.467   0.067   5.449  0.0711  0.3738 -0.0075
 7632W        W11683   7.680   8.735   2.690 -0.0225 -0.1038  0.0082
 7633W        W11684   6.259   7.908   2.456 -0.0303 -0.2152 -0.1432
 7634W        W11685   6.563   7.041   2.522  0.4691  0.2410  0.0695
 7635W        W11686   1.156   5.874   9.682 -0.2130  0.1238  0.3486
 7636W        W11687   4.680   3.424   1.067 -0.1896 -0.0981  0.2196
 7637W        W11688   8.791   7.343   2.243 -0.0223 -0.0377 -0.2685
 7638W        W11689   7.023   6.097  10.208 -0.0630  0.1023  0.0039
 7639W        W11690   9.501   1.108  13.902  0.1118  0.0647  0.2233
 7640W        W11691   7.496   8.143   3.249 -0.0435 -0.0291  0.0298
 7641W        W11692   8.686   3.877   4.087 -0.1058  0.1836  0.1342
 7642W        W11693   0.482   3.394   9.800  0.1580 -0.0762  0.0867
 7643W        W11694   3.970   7.080  10.836 -0.1093 -0.0489 -0.2790
 7644W        W11695   5.049   8.067   8.564  0.0566 -0.1195 -0.1607
 7645W        W11696   3.434   7.667  11.922 -0.1296  0.0716  0.0414
 7646W        W11697   2.680   9.317   8.598 -0.1657  0.0094  0.3744
 7647W        W11698   0.588   2.612  11.175 -0.0042 -0.0529 -0.3686
 7648W        W11699   8.920   1.037   2.991  0.0533 -0.3678 -0.0549
 7649W        W11700   0.532   6.473   0.885  0.1493 -0.1552 -0.1578
 7650W        W11701   2.482   9.459   9.891  0.0728  0.1807  0.1091
 7651W        W11702   8.399   1.443  12.472 -0.1162 -0.0318  0.2903
 7652W        W11703   7.455   4.086   1.568 -0.1197  0.2679 -0.0909
 7653W        W11704   2.232   3.547   2.242 -0.0543  0.2612 -0.0103
 7654W        W11705   2.511   1.403   0.169  0.0854 -0.3835 -0.0366
 7655W        W11706   6.665   7.509   8.835 -0.1105 -0.3927 -0.4584
 7656W        W11707   3.997   7.897  13.481  0.2036  0.0135  0.1320
 7657W        W11708   8.504   6.415   2.866  0.2035 -0.0881  0.2982
 7658W        W11709   9.383   5.826   4.297 -0.1960 -0.0022 -0.0046
 7659W        W11710   8.805   9.221   1.511 -0.2493  0.2103 -0.0793
 7660W        W11711   4.425   0.620   3.007 -0.0252 -0.1618  0.0556
 7661W        W11712   3.059   5.380  12.076  0.0451  0.3416 -0.0822
 7662W        W11713  10.145   6.681  12.553  0.0353 -0.1108 -0.0863
 7663W        W11714  10.143   7.997  13.744 -0.1634  0.2296  0.1290
 7664W        W11715   6.761   0.247   2.742  0.0097 -0.0944  0.3046
 7665W        W11716   2.973   6.833   0.561  0.0501 -0.0322  0.2147
 7666W        W11717   7.012   7.127   3.389  0.1757 -0.1706 -0.3443
 7667W        W11718   8.150   6.891   3.151 -0.1465  0.1411 -0.0859
 7668W        W11719   0.788   5.567   2.140  0.1622 -0.4227  0.0797
 7669W        W11720   5.568   0.909   2.407 -0.2145  0.2777 -0.0953
 7670W        W11721   2.201   3.880   3.125 -0.0578  0.0909 -0.1941
 7671W        W11722   8.738   8.322  12.992 -0.1334 -0.2286 -0.0934
 7672W        W11723   2.706   5.121   0.995 -0.0786 -0.1786  0.2583
 7673W        W11724   7.123   3.165  13.049 -0.0188 -0.0785 -0.0393
 7674W        W11725   9.165   7.128   2.555 -0.0595 -0.3321 -0.0723
 7675W        W11726   1.822   5.124   0.435  0.2938  0.2700 -0.0491
 7676W        W11727   4.634   6.512  10.101  0.0130  0.1603 -0.0820
 7677W        W11728   9.734   8.869   1.039 -0.0671  0.2626 -0.0866
 7678W        W11729   7.786   9.521   2.219 -0.1146  0.0157  0.0978
 7679W        W11730   9.743   5.890  11.619 -0.2941 -0.2802 -0.1991
 7680W        W11731   1.445   2.314   2.147 -0.2800 -0.0238 -0.0566
 7681W        W11732   5.640   5.706   3.710  0.0308  0.1528  0.0750
 7682W        W11733   0.025   2.378   4.366  0.1358  0.0257  0.0723
 7683W        W11734   5.218   2.896  11.749  0.0135 -0.0017 -0.2527
 7684W        W11735   4.145   5.290   0.820  0.2400  0.1831  0.1025
 7685W        W11736   3.711   5.660  12.845  0.1714 -0.0357 -0.1563
 7686W        W11737   9.668   5.746   2.224  0.1980  0.2231  0.3430
 7687W        W11738   4.762   3.931  13.473 -0.1173  0.2338  0.1669
 7688W        W11739   2.243   1.938   1.192  0.1513 -0.2578 -0.2074
 7689W        W11740   4.122   0.937   2.812  0.0868  0.0914  0.0597
 7690W        W11741   9.709   2.346  10.849  0.1210  0.0850  0.1240
 7691W        W11742   5.679   1.197  11.405  0.0444 -0.2528  0.0186
 7692W        W11743   4.569   7.622   2.571 -0.3369 -0.2478  0.1540
 7693W        W11744   8.839   5.071   4.270  0.0006 -0.0782  0.4106
 7694W        W11745   2.235   4.611   1.711 -0.1545 -0.1369  0.1329
 7695W        W11746   2.505   3.716   1.137  0.0530 -0.0668 -0.2357
 7696W        W11747   1.397   1.436   9.509  0.0025 -0.1407  0.0637
 7697W        W11748   1.728   1.934   1.779  0.1477 -0.1892  0.3871
 7698W        W11749   5.284   7.645  13.005  0.1266  0.0470  0.1778
 7699W        W11750   7.534   3.348   9.503  0.0308  0.0350  0.3296
 7700W        W11751   4.526   8.767  13.731 -0.0160 -0.3079 -0.1141
 7701W        W11752   4.089   2.638   4.430 -0.0379 -0.0087  0.1587
 7702W        W11753   6.074   1.609   2.882 -0.3173  0.1143  0.1337
 7703W        W11754   6.299   9.307   5.002 -0.0505 -0.0757 -0.1861
 7704W        W11755   2.904   3.148  10.963  0.0003  0.0829 -0.0672
 7705W        W11756   4.311   6.641  10.493 -0.0939 -0.2690 -0.3829
 7706W        W11757   1.357   5.037  10.374 -0.1950 -0.1319  0.0637
 7707W        W11758  10.098   4.889  12.081 -0.0354  0.0347  0.2273
 7708W        W11759   7.288   6.508   9.275  0.0451 -0.0094 -0.0001
 7709W        W11760   8.439   4.127   9.616  0.0217  0.2542 -0.4112
 7710W        W11761   0.397   0.828   0.364 -0.2654  0.0668  0.1372
 7711W        W11762   9.424   6.268  11.561 -0.2820 -0.0247  0.2512
 7712W        W11763   4.636   7.093   9.982  0.1801 -0.1939  0.2820
 7713W        W11764   5.200   2.524   1.357  0.4861 -0.0005  0.0779
 7714W        W11765   6.401   1.546  10.217  0.1299  0.1058 -0.0146
 7715W        W11766   4.841   7.947   1.718  0.1410  0.0023  0.3909
 7716W        W11767   4.951   5.862  10.438  0.0589 -0.1771 -0.2264
 7717W        W11768   1.724   4.296  13.036 -0.3975  0.0577  0.2921
 7718W        W11769   8.147   7.551   0.089  0.2196  0.1854 -0.0442
 7719W        W11770   1.801   9.711  12.394  0.1011 -0.3210  0.1003
 7720W        W11771   4.888   8.190   4.020  0.2531  0.1912  0.0096
 7721W        W11772   4.893   9.114  11.406 -0.0466 -0.2173 -0.0869
 7722W        W11773   0.825   7.179  12.146 -0.0483 -0.1694  0.2550
 7723W        W11774   5.243   0.671  11.828 -0.0003  0.3359  0.0687
 7724W        W11775   9.630   1.624  10.674  0.0073 -0.0073  0.1251
 7725W        W11776   4.093   1.493  10.824 -0.0590  0.1767 -0.1962
 7726W        W11777   8.106   0.616  11.633 -0.1274 -0.1429  0.1725
 7727W        W11778   2.736   4.956   0.168 -0.0299  0.0408 -0.3012
 7728W        W11779   8.511   6.000  13.450 -0.2165  0.1974 -0.4229
 7729W        W11780   9.787   5.291   0.592  0.1988  0.1291 -0.0173
 7730W        W11781   4.928   7.811  11.058 -0.1158 -0.1996  0.4731
 7731W        W11782   8.305   3.720   0.643 -0.1004 -0.2054  0.0510
 7732W        W11783   3.845   3.104  12.739 -0.1983  0.2371  0.0616
 7733W        W11784   2.969   0.136   4.427  0.2186 -0.0797  0.3101
 7734W        W11785   2.710   0.781  12.695  0.0744 -0.0523 -0.2072
 7735W        W11786   7.129   8.909  13.843  0.0570  0.1496 -0.0867
 7736W        W11787   5.512   8.433   0.769  0.0476 -0.2030  0.2284
 7737W        W11788   7.054   5.498   2.920 -0.0739 -0.3208 -0.1759
 7738W        W11789   3.330   5.680  11.155  0.1507 -0.1669 -0.4358
 7739W        W11790   5.008   6.033   3.840 -0.0494 -0.1029 -0.1854
 7740W        W11791   3.342   8.185   0.558  0.2569  0.0119  0.0171
 7741W        W11792   6.851   1.721   4.214 -0.2025 -0.0115 -0.0073
 7742W        W11793   7.132   5.684   4.903  0.5226  0.0115 -0.3112
 7743W        W11794   2.107   1.111   0.030 -0.3360  0.0867  0.1784
 7744W        W11795   6.576   8.611  10.481  0.2207 -0.1705  0.0364
 7745W        W11796   4.791   9.279   1.709 -0.2268  0.1789  0.1487
 7746W        W11797   3.690   3.440  13.189  0.1984 -0.1528 -0.0097
 7747W        W11798   4.960   9.248   2.726 -0.1443 -0.2750 -0.0977
 7748W        W11799   0.710   2.775   3.240 -0.0504  0.3014 -0.0795
 7749W        W11800   3.309   9.901   1.871  0.1227 -0.1337  0.1318
 7750W        W11801   4.243   9.067  12.352 -0.1327  0.0269  0.0481
 7751W        W11802   7.113   6.383  13.578  0.1127 -0.0354  0.2176
 7752W        W11803   8.874   4.306  10.447  0.2376 -0.2077  0.2763
 7753W        W11804   0.121   3.685  10.871  0.2625 -0.0329  0.1543
 7754W        W11805   0.690   7.114   1.191 -0.2758 -0.0721  0.0273
 7755W        W11806   2.083   9.966   0.322 -0.2246  0.0631 -0.0228
 7756W        W11807   7.218   2.532   3.813 -0.1599  0.1711  0.2060
 7757W        W11808   7.646  10.142  13.663  0.2180 -0.2993 -0.3761
 7758W        W11809   8.298   5.230  11.651 -0.2601  0.2418  0.1978
 7759W        W11810   8.725   4.828  10.581  0.0533 -0.1042  0.0057
 7760W        W11811   1.236   6.956   1.411 -0.0803 -0.3642  0.3030
 7761W        W11812   7.779   3.238  10.733 -0.0621  0.0561 -0.2568
 7762W        W11813   5.147   8.024   4.395 -0.0949  0.0724  0.0741
 7763W        W11814   6.465   5.868  11.591 -0.3451  0.2958  0.2291
 7764W        W11815   6.502   5.095  10.539  0.2021  0.2994 -0.1965
 7765W        W11816   2.166   3.390   2.805  0.1849  0.0216 -0.0396
 7766W        W11817   1.750   0.955  13.404 -0.3960 -0.4770 -0.1744
 7767W        W11818   3.258   8.137  12.359 -0.0319 -0.1327 -0.1404
 7768W        W11819   7.388   4.391   8.854  0.2213 -0.3460 -0.2391
 7769W        W11820   1.302   5.720  11.182 -0.0322 -0.2371  0.0037
 7770W        W11821   7.140   0.800   4.478  0.0466  0.4214 -0.0133
 7771W        W11822   7.383   6.440   3.740  0.0851 -0.0986  0.0855
 7772W        W11823   6.114   7.285   1.803  0.0490 -0.1728  0.1540
 7773W        W11824   4.186   5.471   0.151 -0.2489  0.0803 -0.0944
 7774W        W11825   2.441   2.197   4.102  0.1128  0.0514 -0.0238
 7775W        W11826   7.432   3.983  11.178  0.0868  0.1803 -0.1206
 7776W        W11827   8.325   2.050   0.853 -0.0961  0.1536  0.0508
 7777W        W11828   2.617   9.994   0.221  0.2663  0.0888 -0.0681
 7778W        W11829   0.455   3.891   9.901  0.1227 -0.0532 -0.3918
 7779W        W11830   5.199   7.311   0.789 -0.1207  0.0308  0.0416
 7780W        W11831   4.667   7.772   9.304 -0.3024 -0.0924  0.0091
 7781W        W11832   3.012   9.295   3.272 -0.2114 -0.1137 -0.0862
 7782W        W11833   9.359   4.726   4.284 -0.2586  0.0386  0.0396
 7783W        W11834   5.860   0.670  11.859  0.1408 -0.0362 -0.1863
 7784W        W11835   5.025   4.104   4.347  0.2011 -0.2028  0.0659
 7785W        W11836   7.844   4.463  12.302 -0.0517 -0.1375  0.3766
 7786W        W11837   0.330   3.055  13.279 -0.0708  0.2948 -0.0459
 7787W        W11838   8.468   4.945   2.379  0.1917 -0.0871 -0.4238
 7788W        W11839   4.456   0.558  12.771 -0.1342 -0.0600 -0.0215
 7789W        W11840   8.796   9.720   3.458  0.0439  0.1493  0.3969
 7790W        W11841   1.084   4.363  13.384 -0.2244  0.1453 -0.1325
 7791W        W11842   0.506   9.400  10.065 -0.3378 -0.1606 -0.0532
 7792W        W11843   8.125   3.348  12.963  0.1325  0.2907  0.2943
 7793W        W11844   2.694   5.794   2.360 -0.1232 -0.1381  0.1387
 7794W        W11845   2.894   5.374  12.707  0.1029 -0.1103 -0.4242
 7795W        W11846   3.983   4.501   0.306  0.4220  0.1870 -0.2096
 7796W        W11847   8.481   8.167   4.463 -0.2396 -0.0267  0.1162
 7797W        W11848   1.387   6.713  13.306 -0.1733  0.2703  0.3009
 7798W        W11849   3.162   9.240  13.217  0.2543  0.2860  0.0007
 7799W        W11850   9.299   3.430   3.468 -0.3648 -0.2117 -0.0851
 7800W        W11851   1.167   3.558  11.171 -0.1482 -0.1511  0.0445
 7801W        W11852   8.888   0.268   3.996 -0.0423 -0.0709  0.3181
 7802W        W11853   1.429   8.487   0.547 -0.1315 -0.0447  0.2299
 7803W        W11854   0.406   5.782   3.817 -0.1611  0.0609 -0.1212
 7804W        W11855   5.535   6.364   0.291 -0.0174  0.1109  0.1107
 7805W        W11856   6.129   6.109  11.851  0.1731  0.2344 -0.0457
 7806W        W11857   7.720   1.880  11.202  0.0206 -0.1373  0.1924
 7807W        W11858   5.594   8.874   4.632  0.2869 -0.0391 -0.2100
 7808W        W11859   8.079   5.468  12.096  0.1421  0.1375  0.0325
 7809W        W11860   3.937   7.213   9.403  0.1194 -0.1642 -0.2282
 7810W        W11861   1.278   5.073  12.505 -0.2554  0.2426 -0.3347
 7811W        W11862   8.015   8.437  10.510 -0.2131 -0.0048  0.0391
 7812W        W11863   7.762  10.195   2.235  0.0211 -0.0915  0.0474
 7813W        W11864   1.804   5.501   1.240  0.1300 -0.0295 -0.1775
 7814W        W11865   0.563   4.638   1.949  0.1085  0.0988 -0.2643
 7815W        W11866   8.978   1.692  13.734  0.2543  0.0459 -0.0513
 7816W        W11867   3.821   2.791   0.929 -0.6226  0.0477 -0.0017
 7817W        W11868   2.051   7.379   9.919 -0.1525 -0.2243  0.0128
 7818W        W11869   9.542   9.209   3.526 -0.5370 -0.4992 -0.0502
 7819W        W11870   3.403   1.971   2.884 -0.0078  0.1993 -0.0942
 7820W        W11871   4.305   6.154   1.915 -0.0281  0.0864 -0.2923
 7821W        W11872   4.099   9.706   1.111  0.0679 -0.0189 -0.1468
 7822W        W11873   6.571   6.835  13.483 -0.2184 -0.1702 -0.0860
 7823W        W11874   2.277   9.677  13.930 -0.0428  0.2725  0.2575
 7824W        W11875   1.070   1.651   4.280 -0.2751 -0.5149  0.3423
 7825W        W11876   3.008   7.329   1.800  0.1661 -0.0059 -0.1498
 7826W        W11877   7.997   0.280   4.620 -0.2099  0.0778  0.2557
 7827W        W11878   8.936   3.993   2.283 -0.0442  0.2257 -0.3337
 7828W        W11879   3.583   3.176   3.237 -0.3842  0.2548  0.3233
 7829W        W11880   9.100   8.639  12.951  0.0484  0.0548  0.1175
 7830W        W11881   1.086   8.800  10.543 -0.2503 -0.0268 -0.4223
 7831W        W11882   2.931   6.500   2.499 -0.1986 -0.1701  0.1627
 7832W        W11883   4.447   0.113   3.727 -0.0132  0.0523 -0.0827
 7833W        W11884   1.235   5.532  12.398  0.1759 -0.1417  0.1391
 7834W        W11885   8.301   5.689  12.641 -0.2008  0.1649  0.0043
 7835W        W11886   4.809   4.046  12.063 -0.0961  0.2203 -0.1072
 7836W        W11887   7.637   7.770   0.411  0.2790  0.2549  0.2291
 7837W        W11888   4.493   5.708  13.427 -0.1609 -0.0967 -0.2859
 7838W        W11889   5.578   2.603  11.309 -0.3925 -0.2339  0.0467
 7839W        W11890   7.051   7.709  11.292 -0.0967  0.1399  0.2577
 7840W        W11891   0.108   8.180   1.711 -0.3008  0.0689  0.0341
 7841W        W11892   7.272   4.314  13.892  0.0019 -0.1973 -0.3258
 7842W        W11893   5.250   3.050  13.603 -0.0463 -0.0635 -0.1778
 7843W        W11894   6.995   1.366  12.836 -0.0388 -0.0340  0.2121
 7844W        W11895   5.043   7.394  12.525 -0.0553 -0.2755  0.0407
 7845W        W11896   5.633   2.442   1.254 -0.0065 -0.0312 -0.0189
 7846W        W11897   4.962   8.407   3.011  0.0574 -0.0145 -0.0438
 7847W        W11898   3.669   7.969   3.812 -0.0746 -0.2359  0.0676
 7848W        W11899   3.571   9.877  12.193  0.2431 -0.0399 -0.0751
 7849W        W11900   0.120   7.652  11.790 -0.0506  0.0601 -0.1693
 7850W        W11901   5.966   5.424  13.496  0.0824 -0.0132 -0.0789
 7851W        W11902   6.261   3.588   4.776 -0.1449 -0.0604  0.1089
 7852W        W11903   1.730   9.300   9.479 -0.1254  0.3596 -0.1335
 7853W        W11904   4.684   9.161   1.149  0.3673  0.2037  0.3050
 7854W        W11905   5.316   6.409   3.906 -0.1932  0.0187  0.0858
 7855W        W11906   0.722   4.695   2.473  0.0101 -0.3646 -0.1051
 7856W        W11907   5.639   6.370  11.493  0.3196 -0.0552 -0.0245
 7857W        W11908   7.641   3.029  13.075 -0.1930 -0.1646 -0.4102
 7858W        W11909   8.055   9.919  13.885 -0.3459  0.1065 -0.2300
 7859W        W11910   9.319   8.962   0.412 -0.4362 -0.0211  0.1500
 7860W        W11911   1.865   4.555   1.372  0.1209 -0.0697  0.0179
 7861W        W11912   7.516   3.957  13.535 -0.2609  0.0050 -0.1913
 7862W        W11913   1.914   4.459  11.307  0.0963 -0.2787  0.0380
 7863W        W11914   7.624   2.013   2.209 -0.2600 -0.1837 -0.2092
 7864W        W11915   4.006   8.430   3.472 -0.2166 -0.0271  0.1499
 7865W        W11916   0.408   2.394  10.744  0.1734 -0.0257 -0.0563
 7866W        W11917   7.642   1.371  13.213 -0.1164 -0.1083  0.2313
 7867W        W11918   3.904   1.299   2.570  0.1706  0.1613  0.0526
 7868W        W11919   5.047   5.465   1.553 -0.0419 -0.1916 -0.0781
 7869W        W11920   6.532   9.353  12.085  0.0532  0.3395  0.0152
 7870W        W11921   0.929   6.997  11.156 -0.2399 -0.1083  0.1143
 7871W        W11922   5.227   5.251   9.782 -0.2832  0.2706 -0.2098
 7872W        W11923   7.709   7.815   1.314  0.0104  0.1779  0.3022
 7873W        W11924   1.474   6.138  10.057  0.5638  0.2050 -0.0726
 7874W        W11925   3.601   7.900  10.316  0.0908  0.1940 -0.0650
 7875W        W11926   4.558   7.582   4.439  0.2137  0.1023 -0.0318
 7876W        W11927   4.454   7.490  11.167 -0.1000 -0.0516 -0.0745
 7877W        W11928   3.366   0.664  13.483 -0.0094  0.3899  0.3370
 7878W        W11929   3.313   7.366   1.342  0.0957 -0.1481 -0.0809
 7879W        W11930   1.108   5.439   2.996 -0.0165 -0.2575 -0.1093
 7880W        W11931   5.154   0.661   0.932 -0.0951 -0.3086  0.0179
 7881W        W11932   7.826   4.584   1.630  0.0937  0.2739 -0.1647
 7882W        W11933   9.258   9.064  13.491 -0.0563  0.1877  0.1259
 7883W        W11934   1.226  10.100  13.279 -0.1991 -0.2303 -0.1932
 7884W        W11935   0.413   1.166  13.893 -0.2772 -0.0565 -0.0386
 7885W        W11936   0.462   5.383  10.991 -0.0351 -0.0628  0.6030
 7886W        W11937   4.205   8.271   0.917  0.1612 -0.0932  0.0109
 7887W        W11938   8.344   3.331  11.715 -0.0920  0.0378 -0.0333
 7888W        W11939   5.454  10.093  12.176 -0.2607 -0.0709  0.1631
 7889W        W11940   9.223   6.549   5.245  0.1606 -0.0435  0.4752
 7890W        W11941   0.336   4.832   0.428 -0.4669 -0.2491 -0.1580
 7891W        W11942   1.901   7.825  12.114 -0.1644  0.0330 -0.0020
 7892W        W11943   1.858   8.997   9.893  0.4021 -0.0481  0.0239
 7893W        W11944   2.982   0.559  13.116  0.3989 -0.1785 -0.1644
 7894W        W11945   8.443   0.284   0.211  0.0231 -0.1136  0.0737
 7895W        W11946   0.938   3.975   3.427 -0.0214  0.2534  0.1929
 7896W        W11947   4.626   5.666   0.024 -0.0893 -0.1139 -0.0752
 7897W        W11948   2.763   5.458   3.275 -0.0638  0.0993  0.0753
 7898W        W11949   4.115   0.526  10.520  0.0643 -0.0154 -0.3137
 7899W        W11950   5.927   4.550   3.012  0.0739  0.0744 -0.2423
 7900W        W11951   4.280   8.547   9.779  0.2862  0.1601 -0.2410
 7901W        W11952   1.204   6.475   2.748  0.2177  0.1136 -0.1709
 7902W        W11953   9.349   8.973   4.301 -0.3071  0.2876 -0.0960
 7903W        W11954   8.152   1.276   2.867  0.1929 -0.2006 -0.0407
 7904W        W11955   4.647   4.626   0.128 -0.0117  0.1115  0.0526
 7905W        W11956   8.514   7.643  13.670 -0.1482 -0.3192  0.0362
 7906W        W11957   9.424   9.734   2.238  0.1147  0.1861 -0.1880
 7907W        W11958   7.435   6.984   3.632  0.1768  0.2562 -0.0770
 7908W        W11959   5.777   0.136   1.044  0.0705 -0.0284  0.0089
 7909W        W11960   2.916   8.034   3.223  0.0087  0.0256  0.0300
 7910W        W11961   2.390   7.785  12.213  0.0673 -0.0836 -0.0383
 7911W        W11962   7.487   4.845   9.123  0.3586 -0.1677 -0.1832
 7912W        W11963   3.017   4.499  11.016  0.0004  0.1618  0.1299
 7913W        W11964   6.663   6.679   4.616  0.3258 -0.0705 -0.0313
 7914W        W11965   0.037   2.551   0.775 -0.0169  0.0719  0.0678
 7915W        W11966   9.665   9.905  11.421 -0.0043 -0.1367  0.2054
 7916W        W11967   0.054   6.514   1.863 -0.4527  0.2453  0.1784
 7917W        W11968   2.479  10.182   3.174  0.1790  0.0409  0.1166
 7918W        W11969   8.520   6.911   2.582 -0.0670  0.3033 -0.0314
 7919W        W11970   7.211   7.553   1.200  0.1086  0.2372 -0.0395
 7920W        W11971   6.758   8.285  10.831 -0.0828  0.0265  0.2673
 7921W        W11972   2.751   0.264   1.037 -0.2502 -0.0113 -0.0345
 7922W        W11973   7.943   9.832  10.584  0.0753 -0.0213  0.1457
 7923W        W11974   1.229   8.252   1.012  0.2426 -0.0823 -0.3394
 7924W        W11975   4.944   9.153   4.574  0.2905  0.0753 -0.1416
 7925W        W11976   2.470   9.498  11.170 -0.0420  0.2295  0.1269
 7926W        W11977   2.081   6.211  13.797 -0.1875  0.0313 -0.1662
 7927W        W11978   2.469   5.298   4.139 -0.1188  0.0120  0.2343
 7928W        W11979   8.615   6.696   0.163 -0.2571 -0.0049  0.2249
 7929W        W11980   0.453   0.307  12.706  0.0464 -0.0414 -0.0501
 7930W        W11981   9.825   1.748  12.269  0.0329 -0.1694 -0.0651
 7931W        W11982   1.637   5.038   1.052  0.1628  0.2374  0.1753
 7932W        W11983   5.194   5.172  12.043  0.0168 -0.0053 -0.1121
 7933W        W11984   0.686   9.317   1.872 -0.3137 -0.1094  0.0598
 7934W        W11985   4.374   1.939   2.908  0.0899 -0.2410 -0.0431
 7935W        W11986   0.565   8.326   0.117  0.1817 -0.2122 -0.2210
 7936W        W11987   0.152   3.679   3.023 -0.3781  0.0430  0.2094
 7937W        W11988   3.220   9.293   4.339  0.0699 -0.2459 -0.0591
 7938W        W11989   6.418   6.935   9.662  0.2942 -0.4175  0.2458
 7939W        W11990   7.160   6.543   1.400 -0.3434  0.1633  0.2082
 7940W        W11991   0.867   0.480   3.263 -0.1312  0.1414 -0.3747
 7941W        W11992   3.413   7.402  12.999  0.2735 -0.0069 -0.0066
 7942W        W11993   2.212   8.843   5.273 -0.2589  0.0824  0.3804
 7943W        W11994   6.832   6.365   9.541 -0.3380  0.3159  0.1944
 7944W        W11995   6.722   0.918  10.366  0.0167 -0.1967 -0.0271
 7945W        W11996   4.071  10.023   5.389  0.2070 -0.1484  0.0305
 7946W        W11997   1.928   3.979   3.584  0.1454 -0.0584  0.0277
 7947W        W11998   4.543   7.032  10.855 -0.1244  0.0675 -0.2471
 7948W        W11999   9.206   6.782  10.592  0.0985 -0.0734 -0.0197
 7949W        W12000   7.640   1.459   1.982  0.2115  0.2247  0.3590
 7950W        W12001   3.659   8.342   1.429  0.1572  0.0699 -0.1852
 7951W        W12002   1.952   3.190   3.254 -0.4297 -0.1115  0.0318
 7952W        W12003   3.418   5.380  12.518 -0.0462  0.1162 -0.3492
 7953W        W12004   8.609   5.349   5.409 -0.0786 -0.2057  0.0319
 7954W        W12005   4.684   9.632   4.744  0.0157  0.1330  0.2277
 7955W        W12006   7.415   5.797   0.849  0.2255  0.0671 -0.0866
 7956W        W12007   9.193   6.745  11.498  0.1667  0.0839  0.2374
 7957W        W12008   3.397   2.536  10.126  0.3124 -0.1209  0.1193
 7958W        W12009   8.522   7.538   3.739  0.1961  0.3654 -0.0212
 7959W        W12010   2.874   9.810   0.619  0.0173  0.1649 -0.0099
 7960W        W12011   3.689   4.989  11.920 -0.1800 -0.1836 -0.0701
 7961W        W12012   5.292   8.888   3.705 -0.0676 -0.0359  0.0144
 7962W        W12013   3.026   0.078  10.069 -0.0263 -0.3106  0.3070
 7963W        W12014   9.700  10.055   2.916  0.1274  0.1176  0.2534
 7964W        W12015   2.553   7.012  11.073  0.1500  0.0639 -0.0415
 7965W        W12016   7.618   0.624  11.435  0.2112  0.0889  0.0408
 7966W        W12017   6.528   6.599   0.690  0.1570 -0.1265  0.0695
 7967W        W12018   9.667   4.616  11.596  0.4810  0.1821  0.0077
 7968W        W12019   7.958   0.328   0.762  0.2172  0.1436 -0.1004
 7969W        W12020   5.900   4.782   9.788 -0.1535 -0.1549  0.0358
 7970W        W12021   3.196   9.319  11.671 -0.0645  0.2146 -0.1623
 7971W        W12022   6.520   7.063   5.638  0.2136  0.0390  0.0975
 7972W        W12023   9.673   1.409  10.202  0.0733  0.0108 -0.1814
 7973W        W12024   8.907   0.904  11.658 -0.1507  0.0664  0.0111
 7974W        W12025   2.328   6.950  11.535  0.1350 -0.0890  0.0906
 7975W        W12026   5.095   2.908   2.499  0.3114 -0.6577  0.1967
 7976W        W12027   7.897   9.487   2.748  0.0465 -0.0006  0.0590
 7977W        W12028   5.326   9.145   5.519  0.1953 -0.1611  0.1757
 7978W        W12029   2.534   7.840  11.721  0.1456  0.0814 -0.0085
 7979W        W12030   3.690   3.657  11.945 -0.1538 -0.1955  0.1436
 7980W        W12031   7.626   0.217   3.750 -0.0924 -0.1502  0.1064
 7981W        W12032   4.222   2.573   0.629 -0.1129  0.0988 -0.0953
 7982W        W12033   3.287   9.538  13.634  0.2125 -0.1978 -0.3230
 7983W        W12034   0.402   7.239  11.794 -0.1329  0.2210  0.1875
 7984W        W12035   2.839   8.299   0.430 -0.1627 -0.0731 -0.0500
 7985W        W12036   8.461   7.169  11.678 -0.3638 -0.1710  0.1623
 7986W        W12037   9.421   6.944   1.823  0.1002 -0.1468 -0.2090
 7987W        W12038   3.481   3.847   3.784  0.2863 -0.2292 -0.0753
 7988W        W12039   3.146   6.002   2.432  0.0311 -0.3605  0.2987
 7989W        W12040   9.533   8.274   9.566  0.0666  0.1450 -0.1926
 7990W        W12041   0.412   4.469   9.987 -0.1065 -0.4196 -0.1735
 7991W        W12042   5.382   5.521   0.843  0.4099 -0.0741  0.1677
 7992W        W12043   9.009   2.969   9.897  0.3353 -0.2398 -0.1827
 7993W        W12044   4.137   5.871  12.183 -0.0249 -0.1169 -0.1400
 7994W        W12045   2.919   6.416   8.996 -0.1910  0.0978  0.1306
 7995W        W12046   0.349   9.633   9.332  0.0705  0.0739 -0.2320
 7996W        W12047   0.882   0.287   9.884 -0.1749 -0.2148  0.1723
 7997W        W12048   6.587   3.219  11.892 -0.4680  0.0084 -0.2078
 7998W        W12049   8.955   0.239  12.187 -0.0336  0.3415  0.0761
 7999W        W12050   2.331   3.457  12.086 -0.5897  0.0756  0.1462
 8000W        W12051   0.144   6.012   1.429 -0.0788 -0.2882 -0.3138
 8001W        W12052   8.058   9.446   3.321 -0.2210 -0.0330 -0.1132
 8002W        W12053   0.381   9.359   3.270  0.2311 -0.2129 -0.2646
 8003W        W12054   8.565   7.727   4.744 -0.0411  0.3621 -0.2735
 8004W        W12055   4.872   7.149   2.497 -0.1031  0.0342  0.2297
 8005W        W12056   7.251   2.935  13.461 -0.0995 -0.2128  0.2802
 8006W        W12057   1.314   2.916   1.959 -0.0324 -0.2008  0.0627
 8007W        W12058   3.828   8.877   2.181  0.2674  0.1677 -0.3487
 8008W        W12059   7.971   8.569   5.143  0.1153  0.1878  0.0707
 8009W        W12060   0.421   8.545   2.055 -0.1789  0.2372 -0.0643
 8010W        W12061   6.834   3.811  10.157 -0.3196 -0.0583 -0.2119
 8011W        W12062   7.997   3.665  12.008 -0.0463  0.0731  0.1402
 8012W        W12063   7.732   2.195   0.123  0.0455  0.3376 -0.1356
 8013W        W12064   8.353   6.178   9.567 -0.0456  0.2440 -0.4675
 8014W        W12065   9.736   4.965   3.402  0.2429  0.0892 -0.2342
 8015W        W12066   0.438   3.325  10.873 -0.0266 -0.0879  0.4053
 8016W        W12067   9.921   2.954  13.320  0.2284  0.0985  0.1917
 8017W        W12068   8.293   9.923  11.576 -0.3510 -0.3514  0.2170
 8018W        W12069   7.793   2.097   4.046 -0.0690  0.0860 -0.1063
 8019W        W12070   1.959   9.545   4.046 -0.1480  0.1526 -0.2246
 8020W        W12071   2.716   8.380   1.067  0.0318  0.0626 -0.0220
 8021W        W12072   8.192   3.993   1.985  0.3039  0.3523  0.1920
 8022W        W12073   2.843   5.042  10.278  0.0908  0.1596  0.1628
 8023W        W12074   6.251   6.851   1.607  0.1534  0.0196 -0.0748
 8024W        W12075   6.235   5.444  11.567  0.0125  0.1934  0.2105
 8025W        W12076   3.937   4.908   2.406  0.0238  0.0070  0.0394
 8026W        W12077   4.227   5.866   2.440 -0.1262  0.3788  0.1370
 8027W        W12078   4.033   7.521  12.645 -0.3086  0.3902 -0.0545
 8028W        W12079   4.205   3.959  11.274  0.0410  0.1454 -0.2208
 8029W        W12080  10.198   6.000  11.339 -0.0734  0.1087  0.1426
 8030W        W12081   8.825   4.488  13.006 -0.1204  0.1507 -0.2899
 8031W        W12082   3.411   8.760   2.636 -0.1336  0.1165  0.1360
 8032W        W12083   8.344   8.639  10.161  0.0470 -0.1006  0.5208
 8033W        W12084   0.603   3.936  12.908  0.1408 -0.0932  0.1093
 8034W        W12085   1.336   8.293   2.728 -0.0970 -0.0026  0.0051
 8035W        W12086   7.714   3.547  11.247 -0.0904  0.1994  0.0155
 8036W        W12087   5.608   0.608   1.129  0.1304  0.0085  0.0777
 8037W        W12088   2.705   0.547  12.196  0.2565 -0.0711  0.0004
 8038W        W12089   7.316   0.361   8.614  0.1752 -0.0424  0.0924
 8039W        W12090   2.063   8.934   3.379  0.1225 -0.1003 -0.3197
 8040W        W12091   3.741   7.272   1.630 -0.1476  0.0909  0.3682
 8041W        W12092   6.412   5.642   5.265  0.2790  0.2204 -0.0736
 8042W        W12093   0.030   1.557   9.741 -0.0237  0.3453  0.1099
 8043W        W12094   1.382   1.974  11.245 -0.0824 -0.1811  0.0151
 8044W        W12095   0.127   0.559  11.842  0.2238  0.1647  0.0210
 8045W        W12096   9.443   1.100   2.183  0.0002  0.0767  0.2413
 8046W        W12097   0.606   1.758   4.151  0.0353 -0.0662 -0.0343
 8047W        W12098   4.661   7.021  13.392 -0.0156  0.3120 -0.1820
 8048W        W12099   0.193   3.622   1.338 -0.0573  0.2676 -0.2523
 8049W        W12100   9.224   6.669   3.508  0.2813 -0.2415  0.2658
 8050W        W12101   5.242   6.236  13.174  0.1603 -0.2633  0.0948
 8051W        W12102   5.750   0.882   1.517 -0.0115  0.1722  0.0754
 8052W        W12103   8.832   2.298  10.364 -0.1047  0.0161 -0.0089
 8053W        W12104   6.803   0.766   0.376 -0.0777 -0.1025 -0.1386
 8054W        W12105   9.623   7.000   2.293  0.3763  0.0877  0.0142
 8055W        W12106   2.184   4.867  10.462 -0.0570 -0.0533  0.1502
 8056W        W12107   9.257   7.338   2.106 -0.0717 -0.0066  0.1188
 8057W        W12108   3.799   7.527  10.671  0.1343  0.0826 -0.2057
 8058W        W12109   1.654   3.529  13.615  0.0514  0.0932 -0.4714
 8059W        W12110   3.236   8.268  13.494  0.0200 -0.2189  0.1993
 8060W        W12111   6.766   9.926   2.789 -0.0828  0.3188  0.1694
 8061W        W12112   5.794   0.271  12.224 -0.2606 -0.2063 -0.2339
 8062W        W12113   9.100   1.771   1.158 -0.1976  0.1886  0.3104
 8063W        W12114   5.630   9.866   4.287 -0.1847 -0.3655  0.1131
 8064W        W12115   0.046   8.624  10.157  0.1726 -0.4119 -0.1022
 8065W        W12116   9.054   0.335   0.515 -0.1626 -0.1043  0.0322
 8066W        W12117   4.895   5.991   2.664 -0.3415 -0.3452 -0.0669
 8067W        W12118   6.490   4.999   0.858 -0.1331  0.0851  0.2536
 8068W        W12119   4.017   7.197   2.631  0.0799  0.4335  0.0550
 8069W        W12120   2.888   2.589   3.532  0.3198  0.1121  0.0479
 8070W        W12121   4.434   6.723  12.484  0.2011  0.2082  0.1041
 8071W        W12122   9.754   9.207   9.891  0.0720  0.1575  0.0360
 8072W        W12123   1.151   4.823  13.677  0.2255  0.3666 -0.0222
 8073W        W12124   6.674   3.024  10.634 -0.3323  0.3955  0.0190
 8074W        W12125   5.610   2.003   4.366 -0.2009  0.0843  0.1826
 8075W        W12126   8.946   5.719  10.356 -0.0368 -0.1871 -0.0680
 8076W        W12127   9.619   9.356  10.414 -0.0263  0.1153  0.0838
 8077W        W12128   0.670   2.880  10.777 -0.1090 -0.2682  0.1024
 8078W        W12129   5.032  10.027   9.711  0.0193  0.4519  0.2242
 8079W        W12130   5.950   0.172   3.604 -0.1605  0.0563  0.1984
 8080W        W12131   2.738   3.589   0.687  0.1125  0.2720 -0.1680
 8081W        W12132   2.970   7.097   0.951 -0.0802  0.0623  0.1758
 8082W        W12133   1.646   0.896   4.975  0.1768 -0.1846 -0.0335
 8083W        W12134   8.860   3.561  11.418 -0.1473 -0.1174  0.0808
 8084W        W12135   5.090   2.186   0.719  0.1010  0.1294  0.1700
 8085W        W12136   0.320   0.191  10.835  0.3226  0.0140  0.1934
 8086W        W12137   2.567   9.380   0.833 -0.0022 -0.1320 -0.1330
 8087W        W12138   3.562   7.119  11.917  0.1395 -0.3400  0.3519
 8088W        W12139   2.611   1.695   0.926  0.2337 -0.1330 -0.0612
 8089W        W12140   7.974   8.632  11.025 -0.1066  0.1688  0.0691
 8090W        W12141   5.977   2.945   2.731 -0.2561  0.0892  0.0247
 8091W        W12142   5.199   3.917  10.042  0.1794  0.1196 -0.3045
 8092W        W12143   5.791   0.097   0.336 -0.0593 -0.0034 -0.0064
 8093W        W12144   5.262   9.801  10.072  0.0155  0.0124 -0.0853
 8094W        W12145   0.924   5.725  10.875 -0.0617  0.3107 -0.2338
 8095W        W12146   8.140   9.058   0.921 -0.0654 -0.1842  0.0148
 8096W        W12147   9.323   5.830  13.835 -0.3151  0.1402 -0.2157
 8097W        W12148   8.591   1.071   3.934 -0.1200  0.1280  0.3135
 8098W        W12149  10.038   3.922   2.679 -0.1407  0.1392  0.1499
 8099W        W12150  10.025   4.787  13.144 -0.1856 -0.3654  0.5306
 8100W        W12151   7.268   4.146  13.144 -0.0053  0.1492 -0.4077
 8101W        W12152   9.908   8.459  10.990  0.1890 -0.1506 -0.3228
 8102W        W12153   8.320   1.086   9.772 -0.0043 -0.3662  0.0840
 8103W        W12154   5.000   8.031  13.228 -0.0272 -0.0025  0.1218
 8104W        W12155   7.261  10.172   1.504  0.2411 -0.1934  0.2741
 8105W        W12156   2.768   3.835  13.290 -0.0830 -0.2037  0.1748
 8106W        W12157   8.585   7.044   4.087  0.1471  0.2099  0.2080
 8107W        W12158   6.674   2.138  12.063  0.0795  0.0597  0.1862
 8108W        W12159   5.584   3.971   0.963  0.1768 -0.1816 -0.0842
 8109W        W12160   2.576   6.609   3.482  0.0953 -0.0952 -0.2968
 8110W        W12161   7.637   4.303  10.812 -0.1520  0.1867  0.1440
 8111W        W12162   8.412   0.946  12.506  0.1429  0.1905  0.0841
 8112W        W12163   7.486   8.843   5.126 -0.2480 -0.0805  0.2181
 8113W        W12164   8.382   2.088  11.223  0.2238  0.0203  0.0368
 8114W        W12165   4.420   0.062  11.276  0.1473 -0.2334 -0.0327
 8115W        W12166   8.498   1.146  10.359  0.1155  0.3855 -0.1406
 8116W        W12167   1.991   9.872   1.995  0.0882  0.1121  0.0061
 8117W        W12168   8.382   1.401   1.635 -0.0202 -0.1193 -0.3101
 8118W        W12169   2.886   5.765   2.849 -0.1807 -0.0328 -0.2202
 8119W        W12170   9.108   6.286   4.223 -0.0953  0.0944  0.0072
 8120W        W12171   6.842   2.090   3.923 -0.0134  0.3064 -0.0222
 8121W        W12172   4.604   7.014   5.161 -0.1551 -0.1827 -0.1256
 8122W        W12173   7.099   9.122  12.187  0.2446 -0.1121  0.1816
 8123W        W12174   8.048   6.796  10.982 -0.0219  0.2590 -0.0314
 8124W        W12175   6.562   7.884   9.782 -0.3806 -0.3001 -0.1388
 8125W        W12176   7.702   1.592   3.064 -0.0850 -0.1101 -0.2192
 8126W        W12177   7.060   4.824   4.543 -0.2735 -0.1964 -0.1510
 8127W        W12178   5.323   4.952  12.496  0.1711  0.1061 -0.2131
 8128W        W12179   6.995   8.769  10.019 -0.0148  0.0201  0.0811
 8129W        W12180   2.190   7.267  13.321  0.2213 -0.0168  0.0994
 8130W        W12181   1.703   6.318   2.976  0.2759  0.0134 -0.0219
 8131W        W12182   9.784   4.341   2.921  0.1774  0.0758 -0.4698
 8132W        W12183   2.877   7.569  10.768  0.3442  0.0987  0.1138
 8133W        W12184  10.011   7.697  10.772  0.1027 -0.0791 -0.0380
 8134W        W12185   7.737   0.535   2.939 -0.0379  0.3873 -0.1215
 8135W        W12186   0.778   2.680   3.770 -0.0527  0.1004 -0.3578
 8136W        W12187   1.624   0.086  10.756 -0.0493 -0.2695 -0.0611
 8137W        W12188   6.366   1.686   3.269 -0.1704  0.1393 -0.0387
 8138W        W12189   6.014   0.645  10.513 -0.1012  0.1938  0.0361
 8139W        W12190   2.463   4.369  10.794  0.0742  0.1453  0.3404
 8140W        W12191   1.806   0.849   3.986  0.0859 -0.0283  0.2258
 8141W        W12192   2.641   1.622   4.164 -0.2341 -0.0797  0.1090
 8142W        W12193   9.433   6.664   2.696 -0.0263  0.2628  0.0463
 8143W        W12194   1.333   3.786  12.488 -0.0008 -0.2171 -0.1985
 8144W        W12195   3.362   2.743   3.462  0.1199  0.0848 -0.1501
 8145W        W12196   3.578   7.444  10.098  0.4035  0.2352 -0.2216
 8146W        W12197   1.066   8.404   3.799  0.1791  0.1756  0.3127
 8147W        W12198   2.900   6.153  12.923 -0.0632  0.2888 -0.0509
 8148W        W12199   6.087   1.238   3.187  0.2662 -0.1540  0.0172
 8149W        W12200   7.525   0.388   1.489  0.0918  0.1629  0.0719
 8150W        W12201   7.689   7.480   9.890  0.0854 -0.0480 -0.1235
 8151W        W12202  10.141   3.207   1.557 -0.1241  0.1006 -0.0592
 8152W        W12203   9.417   8.906   1.440 -0.1356  0.0119  0.2380
 8153W        W12204   3.755   4.196  13.919 -0.0133 -0.0650  0.3090
 8154W        W12205   7.758   0.930   0.734 -0.2667 -0.0264 -0.0734
 8155W        W12206   1.702   0.388   2.653  0.0919 -0.2768  0.1950
 8156W        W12207   9.828   8.098  12.966 -0.0267  0.1373  0.1933
 8157W        W12208   3.099   8.616   0.772  0.0068 -0.1263 -0.1609
 8158W        W12209   9.366   6.302   1.073  0.1300  0.1795  0.0662
 8159W        W12210   1.442   2.250  11.737 -0.2919 -0.2126 -0.0107
 8160W        W12211   7.511   3.130   1.091  0.0303  0.0298 -0.0382
 8161W        W12212   9.008   9.537   2.455 -0.0663  0.2245  0.5211
 8162W        W12213   4.329   8.359  13.543  0.5843 -0.1687  0.0523
 8163W        W12214   7.616   3.572  12.301  0.0509  0.1733 -0.1147
 8164W        W12215   2.632   1.004   2.004  0.1040 -0.0726  0.0840
 8165W        W12216   8.875   3.155   8.918 -0.3255 -0.1412  0.0558
 8166W        W12217   0.203   8.348   4.281  0.1423 -0.0761 -0.2549
 8167W        W12218   9.347   1.669   4.173  0.1797  0.0376  0.1230
 8168W        W12219   5.212   0.549   0.340  0.4441 -0.0506 -0.0238
 8169W        W12220   9.046   1.860   2.050 -0.1204  0.1053  0.0824
 8170W        W12221   1.833   8.214   3.967  0.0296 -0.4200  0.0536
 8171W        W12222   0.885   5.790  13.078 -0.1923 -0.3784  0.1030
 8172W        W12223   7.325   9.476  12.832 -0.4689  0.0769 -0.0818
 8173W        W12224   5.388   5.501   4.302 -0.2713  0.0555 -0.0555
 8174W        W12225   1.029   9.126   0.977 -0.0518 -0.2053  0.1517
 8175W        W12226   3.595   6.517   0.776 -0.3157  0.0922 -0.2767
 8176W        W12227   6.772   1.108   4.460 -0.2392  0.3842 -0.0028
 8177W        W12228   5.667   7.895   9.088 -0.2566  0.3399  0.1495
 8178W        W12229   4.682   5.324   1.945  0.0940  0.4983 -0.2342
 8179W        W12230   8.086   5.117  10.530 -0.0324  0.0275  0.0543
 8180W        W12231   6.554   9.158   2.169  0.1674 -0.0205 -0.2067
 8181W        W12232   0.085   0.846  13.677 -0.0888 -0.0793 -0.1422
 8182W        W12233   8.493   4.252  10.774  0.1822 -0.0450  0.0758
 8183W        W12234   2.498   2.889   3.410  0.2942  0.2387  0.0852
 8184W        W12235   7.756   0.925  11.795 -0.1752  0.0631 -0.1592
 8185W        W12236   0.727   5.559   2.728 -0.3441 -0.3343 -0.0314
 8186W        W12237   8.815   0.698   0.286 -0.3171  0.1476 -0.1514
 8187W        W12238  10.166   5.485  11.295 -0.1337  0.0051  0.2554
 8188W        W12239   4.065   7.870  11.445 -0.0087 -0.1258 -0.2602
 8189W        W12240   8.187   7.885  12.170 -0.2056  0.1793  0.1059
 8190W        W12241   4.747  10.097  13.240 -0.2384  0.3051 -0.0454
 8191W        W12242   8.438   3.824   3.642 -0.2339  0.0369 -0.3481
 8192W        W12243   7.193   4.746   3.047 -0.1460 -0.2397  0.0161
 8193W        W12244   7.202   1.380   4.476 -0.1989 -0.2893 -0.2709
 8194W        W12245   9.466   0.159   0.758 -0.0425 -0.0261 -0.1095
 8195W        W12246   9.867   8.344   2.488  0.0468  0.0948 -0.0412
 8196W        W12247   2.421   5.410   2.157  0.0852  0.0990 -0.1839
 8197W        W12248   1.376   4.283  13.865 -0.0017  0.3152 -0.1277
 8198W        W12249   4.222   4.002  13.574 -0.2254 -0.0056  0.0692
 8199W        W12250   8.987   2.286   3.591  0.0307  0.2414  0.1161
 8200W        W12251   5.580   7.318   4.823 -0.2070  0.0893 -0.0079
 8201W        W12252   1.443   3.864  13.223  0.5071 -0.0105 -0.1277
 8202W        W12253   6.838   5.955  11.179 -0.1106  0.1379 -0.1285
 8203W        W12254   5.330   7.990  12.049 -0.2448  0.1440 -0.0592
 8204W        W12255   5.367   2.681   3.646 -0.2306 -0.2737 -0.2704
 8205W        W12256   9.367   5.908  12.448 -0.4430  0.0094 -0.1541
 8206W        W12257   4.073   3.868  10.727  0.0195 -0.3930 -0.0455
 8207W        W12258   9.199   2.286   2.349  0.1437  0.4695  0.1662
 8208W        W12259   4.536   9.959  12.226  0.0213 -0.0427  0.1219
 8209W        W12260   7.215   5.727  11.429  0.2010 -0.3162 -0.1684
 8210W        W12261   5.561   8.301   4.407  0.0619  0.0475 -0.0491
 8211W        W12262   3.775   8.031   0.948  0.2202  0.0032 -0.0430
 8212W        W12263   0.111   8.004   3.825 -0.0096 -0.0559  0.2675
 8213W        W12264   9.155   1.717   0.617  0.0374  0.1861 -0.3108
 8214W        W12265   1.674   3.581   3.487  0.4600  0.1982 -0.1157
 8215W        W12266   8.755   6.591   3.380  0.2056  0.0001  0.0244
 8216W        W12267   6.606   1.668  12.481 -0.0349 -0.3197 -0.2404
 8217W        W12268   9.731   6.805  10.440  0.2265  0.2698  0.1738
 8218W        W12269   8.330   6.414  13.833 -0.1281 -0.2111 -0.2096
 8219W        W12270   0.033   6.256   4.882 -0.0974 -0.0873  0.2371
 8220W        W12271   2.179   3.727   0.502 -0.3457  0.1369  0.2020
 8221W        W12272   0.271   9.092   0.349  0.1208 -0.0589 -0.1631
 8222W        W12273   3.001   2.154  12.535  0.4072  0.2343  0.1914
 8223W        W12274   2.934   0.208   5.048  0.1314  0.0396  0.0791
 8224W        W12275   8.368   1.835   1.386  0.1333 -0.1861 -0.1722
 8225W        W12276   3.340   3.023  12.049  0.1320  0.3380  0.0638
 8226W        W12277   2.510   1.274  10.676  0.1231  0.0223 -0.0365
 8227W        W12278   7.748   0.444  11.951 -0.0583  0.4742  0.2900
 8228W        W12279   0.194   3.680  12.620 -0.1202  0.0043 -0.2210
 8229W        W12280   5.547   5.702  13.454 -0.1096  0.0405 -0.0350
 8230W        W12281   8.730   2.654   9.560  0.1524  0.2171  0.3232
 8231W        W12282   2.286   3.777  12.513 -0.1860 -0.0655 -0.2777
 8232W        W12283   3.613   4.579  11.609 -0.4146  0.2336 -0.1125
 8233W        W12284   8.755  10.146   0.316 -0.2945  0.1858  0.0768
 8234W        W12285   6.292   6.324  13.458 -0.2148  0.0611  0.0182
 8235W        W12286   0.492   1.188   1.950  0.1034 -0.1516  0.0073
 8236W        W12287   1.654   2.676   3.141  0.1120  0.2312 -0.1381
 8237W        W12288   8.442   2.163  10.726  0.0349 -0.0339 -0.0934
 8238W        W12289   1.373   8.581  13.908  0.0642 -0.0458  0.0088
 8239W        W12290   7.513   5.638   9.636  0.1667 -0.0703 -0.0112
 8240W        W12291   5.029   1.968   1.208  0.3908  0.2574 -0.0436
 8241W        W12292   4.854   5.591   9.740 -0.1669  0.0411 -0.0723
 8242W        W12293   6.815   8.747   0.803  0.1939  0.0338  0.1383
 8243W        W12294   7.402   9.186  13.406  0.1355 -0.0252  0.0035
 8244W        W12295   6.611   7.559   2.692  0.2683 -0.0126  0.1332
 8245W        W12296   7.546   0.828  13.161  0.0315  0.0810  0.2259
 8246W        W12297   0.809   5.869  13.552 -0.1604  0.0512  0.0836
 8247W        W12298   2.078   0.957  11.830 -0.0905  0.2292 -0.2034
 8248W        W12299   5.443   8.331   2.390 -0.2844 -0.0125  0.3921
 8249W        W12300   3.428   7.900  13.170  0.0167 -0.1426 -0.2297
 8250W        W12301   3.374   3.296  13.558  0.0828 -0.0709  0.1580
 8251W        W12302   5.468   8.470  11.683 -0.0277 -0.1044 -0.0705
 8252W        W12303   5.347   5.510  11.710  0.1739  0.0275 -0.1856
 8253W        W12304   7.689   5.746  11.146 -0.1932 -0.0881 -0.6683
 8254W        W12305   6.272   4.739  11.762  0.0540  0.1554  0.0533
 8255W        W12306   5.159   4.263   8.836 -0.1381 -0.0777  0.1527
 8256W        W12307   3.244   8.244   1.110 -0.1259  0.1638  0.2589
 8257W        W12308   6.227   6.280   4.455 -0.2761  0.1855 -0.0290
 8258W        W12309   5.763   2.795   4.491  0.1102  0.2275  0.0650
 8259W        W12310   9.351   0.447  13.584  0.2187 -0.0792  0.0648
 8260W        W12311   4.791   3.402   3.555  0.0851 -0.3727 -0.0507
 8261W        W12312   8.960   6.906  11.066  0.0682  0.2799  0.0943
 8262W        W12313   1.285   0.281   1.416 -0.4193  0.0201  0.2060
 8263W        W12314   0.365   0.250   1.372  0.0515 -0.2006  0.0474
 8264W        W12315   1.118   8.560   2.420  0.0888  0.2382  0.1481
 8265W        W12316   8.285   2.536  11.028 -0.2164  0.1109  0.0133
 8266W        W12317   7.075   5.797   4.424  0.3620  0.0193 -0.3159
 8267W        W12318   4.333   3.344   2.648 -0.1091  0.2883  0.3315
 8268W        W12319   1.423   9.544   4.780  0.1262  0.0221  0.0242
 8269W        W12320   0.399   8.887  10.995 -0.0531  0.5026  0.2038
 8270W        W12321   5.447   3.325  12.238  0.0406 -0.2536 -0.2920
 8271W        W12322   8.726   9.726   9.039 -0.3910 -0.1892 -0.0727
 8272W        W12323   4.107   3.189  13.244  0.0413 -0.0719 -0.3084
 8273W        W12324   5.749   3.240   2.218  0.1095  0.0785  0.0569
 8274W        W12325   1.804   2.116  11.425  0.0204 -0.1612 -0.1427
 8275W        W12326   7.967   2.254  11.425 -0.2222  0.0361  0.0842
 8276W        W12327   9.419   8.026   1.550  0.0498 -0.0546 -0.0114
 8277W        W12328   3.339   1.394  11.847 -0.2367  0.0749  0.0403
 8278W        W12329   2.318   5.072   2.597  0.1769 -0.0777  0.3693
 8279W        W12330   4.112   2.043   1.502 -0.0827 -0.3522  0.1465
 8280W        W12331   0.030   6.402  13.860 -0.0042  0.2228 -0.1863
 8281W        W12332   3.970   0.377   2.870 -0.4337  0.0088  0.2289
 8282W        W12333   7.904   5.001   0.171  0.2092 -0.0249  0.0133
 8283W        W12334   9.816   9.604   2.740 -0.4110 -0.0946 -0.2269
 8284W        W12335   4.717   1.508   3.502  0.2062  0.0875  0.0079
 8285W        W12336   0.627   9.384  12.983  0.0635 -0.0154  0.0693
 8286W        W12337   5.011  10.010  12.449  0.1918 -0.0954 -0.0159
 8287W        W12338  10.002   0.423   0.496  0.1771  0.0835  0.0471
 8288W        W12339   8.717   3.355   2.971  0.0204  0.1255 -0.0547
 8289W        W12340  10.130   3.401  12.977  0.0996  0.0477  0.2264
 8290W        W12341   3.620   1.510   1.574  0.0907 -0.1174 -0.2717
 8291W        W12342   8.738   1.453  11.532 -0.3587  0.0628 -0.3102
 8292W        W12343   3.074   1.742  13.428 -0.0249 -0.0936  0.0149
 8293W        W12344   4.132   6.311  10.083 -0.1845  0.0176 -0.1510
 8294W        W12345   8.077   9.312   1.904 -0.1113  0.0174 -0.1976
 8295W        W12346   9.876   1.355  12.616 -0.1040 -0.1819  0.0168
 8296W        W12347   9.941   3.339   0.040  0.0715  0.2653 -0.2702
 8297W        W12348   2.229   5.862   2.037  0.0598  0.3101 -0.0709
 8298W        W12349   3.444   7.718   4.309 -0.2197 -0.3173 -0.3474
 8299W        W12350   6.301   0.993  12.051  0.1610 -0.2309 -0.0313
 8300W        W12351   7.337   5.178   5.353  0.3235 -0.3098  0.1304
 8301W        W12352   4.957  10.082  11.870  0.2050  0.2202 -0.0972
 8302W        W12353   5.204   1.717   4.063 -0.1125  0.0192 -0.0441
 8303W        W12354   0.067   1.429  12.307  0.1137 -0.3816  0.1287
 8304W        W12355   3.615   7.523   2.864  0.1443 -0.3035 -0.2342
 8305W        W12356   2.149   6.490   3.699 -0.2383  0.1340 -0.4129
 8306W        W12357   3.415   3.477  12.781  0.3487 -0.0200  0.0862
 8307W        W12358   1.289   9.706   9.688  0.2023  0.2941 -0.1478
 8308W        W12359   0.775  10.048   3.564  0.2470  0.1251 -0.1670
 8309W        W12360   3.872   9.618  11.720  0.0461 -0.0380 -0.3352
 8310W        W12361   3.097   4.979  12.455  0.2844  0.2640  0.0253
 8311W        W12362   9.734   0.458  12.570 -0.1228 -0.0324  0.0977
 8312W        W12363   0.526   3.002  12.570 -0.1677 -0.1212 -0.2821
 8313W        W12364   9.714   0.569  13.127  0.1300  0.2391 -0.1016
 8314W        W12365  10.156   7.129  11.166 -0.0531  0.2596  0.0210
 8315W        W12366   8.140   4.029   9.065  0.0487  0.3530  0.3646
 8316W        W12367   7.929   0.156  12.857 -0.4035  0.1708 -0.0788
 8317W        W12368   8.458   6.009  10.873 -0.2030  0.2939 -0.0061
 8318W        W12369   8.576   3.690   5.070 -0.0258 -0.1397 -0.0089
 8319W        W12370   0.355   4.765  12.917  0.1649 -0.2085 -0.1544
 8320W        W12371   4.723   5.620   2.377  0.3216 -0.3645  0.1465
 8321W        W12372   9.119   3.384  10.411  0.2297 -0.2466  0.4116
 8322W        W12373   8.748   0.391   4.458 -0.1275 -0.2696  0.1582
 8323W        W12374   6.696   5.765   1.382  0.1437 -0.1171  0.1221
 8324W        W12375   0.890   6.843   2.647  0.0597 -0.0619 -0.1001
 8325W        W12376   2.829   4.555  12.368 -0.1018 -0.0512 -0.3610
 8326W        W12377   3.353   1.797  12.691 -0.0557  0.1371 -0.0263
 8327W        W12378   8.873   3.865   4.633 -0.0392 -0.1875 -0.2751
 8328W        W12379   3.542   2.408   3.087  0.0023  0.4703  0.1623
 8329W        W12380   2.737   3.614  11.757  0.2617 -0.0278 -0.1980
 8330W        W12381   5.636   4.710   0.340 -0.0457 -0.0466 -0.0951
 8331W        W12382   5.988   2.593   0.069 -0.1886 -0.0675  0.0578
 8332W        W12383   4.057   4.905   2.905 -0.2154 -0.2774  0.2929
 8333W        W12384   7.862   5.499   0.777 -0.2449 -0.0155 -0.2945
 8334W        W12385   9.915   7.535   5.424 -0.2087  0.1109 -0.1972
 8335W        W12386   7.383   1.597   9.702  0.1461 -0.0980  0.0027
 8336W        W12387   0.947   4.235   2.136  0.0410 -0.2055  0.1202
 8337W        W12388   0.021   3.960   0.153 -0.2096 -0.2664 -0.0547
 8338W        W12389   1.088   8.777   4.336 -0.2717  0.0175 -0.2360
 8339W        W12390   4.797   3.974   1.850 -0.1971  0.0796  0.0499
 8340W        W12391   2.762   3.466  11.289 -0.0972  0.1006  0.1624
 8341W        W12392   8.317   2.022  13.401  0.3347 -0.0669  0.0021
 8342W        W12393   3.326   6.813  13.226  0.2119  0.0823 -0.4121
 8343W        W12394   1.849   2.145   3.470 -0.0618 -0.2177  0.1190
 8344W        W12395   1.760   5.862   9.633  0.3651 -0.3871  0.0743
 8345W        W12396   5.649   1.323   2.860  0.1091 -0.1564 -0.0716
 8346W        W12397   8.829   8.867   3.164  0.2707 -0.2382 -0.2640
 8347W        W12398   0.285   8.863   4.194  0.0058 -0.0128 -0.0591
 8348W        W12399   6.251   2.850   2.324 -0.1536  0.1941  0.0244
 8349W        W12400   9.062   9.500  13.271  0.1720  0.1188  0.1671
 8350W        W12401   7.438   2.205  13.124 -0.0865 -0.0628 -0.0474
 8351W        W12402   7.748   9.187  12.678 -0.0566 -0.2631 -0.1090
 8352W        W12403   1.436   9.643   4.066  0.0432  0.1929  0.0004
 8353W        W12404   7.761   3.855   1.221 -0.1161  0.1596 -0.1605
 8354W        W12405   1.804   1.789  13.697 -0.1642 -0.0747 -0.2314
 8355W        W12406   8.442   5.090   2.980  0.0183  0.3787 -0.2677
 8356W        W12407   2.351   7.451  10.987 -0.2936  0.0338 -0.2484
 8357W        W12408   8.318   1.955   0.365  0.2359 -0.1330  0.0136
 8358W        W12409   0.281   4.070  11.489  0.1636  0.0062 -0.0938
 8359W        W12410   4.799   8.793   0.582  0.1222  0.0176  0.0628
 8360W        W12411   5.030   8.586   2.466  0.3973 -0.0912 -0.3291
 8361W        W12412   6.993   9.485  11.653 -0.0593 -0.0726 -0.2101
 8362W        W12413   6.363   7.426   2.224 -0.2555 -0.0320 -0.1607
 8363W        W12414   0.928   1.512  12.293  0.0250 -0.0723 -0.1297
 8364W        W12415   5.651   4.221   8.785  0.0917  0.2074 -0.1121
 8365W        W12416   9.950   2.706  12.501  0.0571  0.1673 -0.1283
 8366W        W12417   1.246   1.884   1.951 -0.2963 -0.2460  0.0953
 8367W        W12418   7.156   9.028  11.551  0.1867 -0.3013 -0.0106
 8368W        W12419   2.946   4.890  11.298 -0.1747  0.0458  0.2924
 8369W        W12420   4.246   9.304   8.584 -0.1598  0.0618  0.3085
 8370W        W12421   8.953   9.788   0.027  0.1466  0.0211  0.1711
 8371W        W12422   2.504   7.689  13.161  0.2109 -0.0674  0.0735
 8372W        W12423   4.397   1.744   1.867 -0.0382 -0.0403  0.1958
 8373W        W12424   0.886   8.672  13.016 -0.1964 -0.0027 -0.0119
 8374W        W12425   1.292   3.284  10.714  0.0375  0.1265 -0.2761
 8375W        W12426   6.673   1.283   3.929  0.4327 -0.0296 -0.1811
 8376W        W12427   5.199   3.599   9.444 -0.0955  0.1407  0.1600
 8377W        W12428   4.889   9.348  10.218 -0.1162  0.2641 -0.1722
 8378W        W12429   4.124   2.312   3.229  0.0415 -0.0646  0.1817
 8379W        W12430   8.805   0.963   1.224 -0.0154  0.2112  0.1072
 8380W        W12431   6.622   2.395   3.630  0.1923 -0.0109  0.0043
 8381W        W12432   1.429   0.773   1.335 -0.0327 -0.2709 -0.2996
 8382W        W12433   4.899   6.972   3.009 -0.2775  0.2036 -0.0633
 8383W        W12434   2.968   4.563   2.636  0.1618  0.0215 -0.2903
 8384W        W12435   4.297   1.394   9.647 -0.1327 -0.1030  0.0081
 8385W        W12436   2.977   0.637   2.605  0.2301  0.0487  0.0951
 8386W        W12437   0.657   7.533   0.629  0.0447  0.0633 -0.0476
 8387W        W12438   8.377   4.498  10.318  0.2810  0.1249  0.1084
 8388W        W12439   3.030   2.282   3.031 -0.0025 -0.0373  0.1993
 8389W        W12440   5.181   5.545   2.569  0.3138 -0.1188  0.3533
 8390W        W12441   5.162   7.907   3.039  0.1798 -0.1210 -0.1909
 8391W        W12442   4.795   8.354  13.582 -0.0705  0.0254  0.0748
 8392W        W12443   5.396   0.184  13.933 -0.1624 -0.1615  0.0716
 8393W        W12444   3.799   6.820   1.335 -0.3062 -0.2077  0.3438
 8394W        W12445   7.269   5.354  11.795 -0.3306 -0.1046 -0.1458
 8395W        W12446   6.893   4.297  12.026  0.1701 -0.0444 -0.1101
 8396W        W12447   9.443   5.789   3.443  0.4046 -0.2748  0.0259
 8397W        W12448   3.217   9.010   2.056  0.0219  0.0912 -0.0931
 8398W        W12449   8.053   9.898   2.538 -0.0314  0.1393  0.1556
 8399W        W12450   6.795   1.969   3.374  0.1319  0.1187 -0.0199
 8400W        W12451   6.960   0.431   5.423 -0.2492 -0.3758 -0.0354
 8401W        W12452   0.496   6.699   3.831 -0.0613  0.1197 -0.0484
 8402W        W12453   6.040   8.953  11.016 -0.5153  0.3410 -0.0587
 8403W        W12454   2.835   2.433   0.488 -0.1851  0.0619 -0.2369
 8404W        W12455   4.814   6.716   2.223 -0.1502  0.0078 -0.0619
 8405W        W12456   2.573   9.237   1.405  0.1040  0.0767 -0.1484
 8406W        W12457   5.664   7.783   3.274  0.1309  0.1027  0.3322
 8407W        W12458   9.235   1.000   9.420 -0.0889 -0.1477 -0.2428
 8408W        W12459   9.681   7.560   2.930  0.2056 -0.1287 -0.0131
 8409W        W12460   8.505   8.865   4.476 -0.2409  0.0788 -0.0613
 8410W        W12461   4.418   5.724  10.320  0.1421  0.1560 -0.2292
 8411W        W12462   2.809   6.090   1.001  0.1363 -0.0376  0.0424
 8412W        W12463   8.338   9.005  10.888  0.3003  0.1217 -0.3391
 8413W        W12464   1.251   2.750  13.179 -0.3773 -0.0991 -0.0054
 8414W        W12465   3.648   4.526   3.248 -0.0093  0.0943  0.1606
 8415W        W12466   5.255   5.304   3.011 -0.0831 -0.1831  0.0698
 8416W        W12467   2.059   6.061  13.238  0.1146 -0.1535 -0.1941
 8417W        W12468   8.497   8.084   3.425 -0.2447 -0.0499 -0.2756
 8418W        W12469   2.915   1.191  11.664 -0.0459  0.0831  0.0775
 8419W        W12470   1.001   8.273   3.272  0.0624 -0.0294  0.1256
 8420W        W12471   8.982   8.007  13.333 -0.3807  0.0871  0.0448
 8421W        W12472   1.851   9.948  13.358 -0.0732 -0.2291 -0.0895
 8422W        W12473   6.473   4.497  12.312 -0.1207  0.0124 -0.1073
 8423W        W12474   6.457   5.218  13.370  0.4004 -0.0909 -0.2353
 8424W        W12475   7.890   2.808   2.062 -0.0922 -0.0265  0.0101
 8425W        W12476   1.213   6.012   2.022  0.4533 -0.0340 -0.1006
 8426W        W12477   0.939   2.104  13.743 -0.0176 -0.1039  0.4166
 8427W        W12478   7.696   0.044  10.239 -0.0024 -0.3958  0.0284
 8428W        W12479   8.254   4.724  11.829  0.0890  0.2055 -0.0002
 8429W        W12480   5.765   9.624   3.035 -0.1907  0.2306  0.1538
 8430W        W12481   4.253   7.290   4.082 -0.0269 -0.1652  0.4366
 8431W        W12482   1.583   9.044   3.247  0.2133  0.0702 -0.1515
 8432W        W12483   4.895   5.139   2.646 -0.1207  0.4681 -0.1554
 8433W        W12484   2.152   1.781   3.340  0.2566 -0.0745 -0.2423
 8434W        W12485   7.105   7.055  11.226  0.1854  0.0956 -0.1593
 8435W        W12486   0.413   5.448  12.680  0.1244  0.1926  0.0871
 8436W        W12487  10.034   0.992   4.300 -0.3499  0.3130 -0.1491
 8437W        W12488   2.473   0.678  10.253  0.0426 -0.2313 -0.0499
 8438W        W12489   1.791   7.733   3.573 -0.1322 -0.2214 -0.0096
 8439W        W12490   6.365   5.964  11.107 -0.0880 -0.0353 -0.2842
 8440W        W12491   2.697   7.216   9.138 -0.2052 -0.0181  0.4228
 8441W        W12492   6.374   5.550   2.153  0.1806 -0.0096 -0.0812
 8442W        W12493   4.645   3.542   9.564  0.0635  0.3363 -0.0529
 8443W        W12494   0.321   1.164  13.353 -0.1302  0.1072  0.1003
 8444W        W12495   5.976   1.335  13.368  0.0938  0.2686  0.2703
 8445W        W12496   2.674   0.793  10.782  0.1144  0.0504  0.0917
 8446W        W12497   2.536   0.027  12.335  0.0053 -0.0520  0.0513
 8447W        W12498   5.775   4.324   1.424  0.0142  0.0798  0.0337
 8448ION    NA+12499   1.222   2.554   0.402  0.0552  0.0132  0.0644
 8449ION    NA+12500   6.087   2.586   3.097  0.2086  0.0835 -0.1167
 8450ION    NA+12501   8.346   4.236  13.124 -0.0333 -0.2103 -0.0360
 8451ION    NA+12502   6.067   4.587   0.108 -0.2508  0.2789  0.2429
 8452ION    NA+12503   9.924   2.709   0.173  0.1265  0.2333 -0.2350
 8453ION    NA+12504   3.094   2.780   0.233  0.0165  0.1117  0.1291
 8454ION    NA+12505   1.483   4.428   0.407  0.1053 -0.0340 -0.0473
 8455ION    NA+12506   8.373   6.933  10.649  0.0258  0.2233  0.1478
 8456ION    NA+12507   3.822   7.626   1.981  0.1819 -0.3874  0.1935
 8457ION    NA+12508   0.947   7.493   1.927  0.0099  0.2275  0.0729
 8458ION    NA+12509   3.372   6.513   9.689  0.2847  0.2290  0.0197
 8459ION    NA+12510   7.868  10.022   9.227  0.0494 -0.3830 -0.0550
 8460ION    NA+12511   4.252   3.675   9.818 -0.0776  0.0160 -0.1779
 8461ION    NA+12512   8.502   6.470   2.305 -0.1273 -0.2815  0.0485
 8462ION    NA+12513   5.907   9.317   5.418  0.1636 -0.1975  0.2256
 8463ION    NA+12514   6.114   6.548   5.477  0.0247 -0.1038 -0.4096
 8464ION    NA+12515   7.970   7.429   5.520  0.1884  0.0188  0.1243
 8465ION    NA+12516   8.186   5.587  10.718  0.1738  0.2099 -0.0219
 8466ION    NA+12517   7.829   0.070  11.575 -0.1400 -0.2699 -0.1322
 8467ION    NA+12518   2.471   8.055   5.209  0.2255  0.0961 -0.0144
 8468ION    NA+12519   1.478   8.978   0.663  0.0341 -0.1146  0.3245
 8469ION    NA+12520   6.068   9.715   8.858  0.1293  0.0390  0.2008
 8470ION    NA+12521   9.712   3.329   9.227  0.1963  0.1852 -0.2938
 8471ION    NA+12522   7.242   5.314   2.049  0.0357 -0.1945  0.1222
 8472ION    NA+12523   6.732   0.817   1.133 -0.2110  0.1726  0.3818
 8473ION    NA+12524  10.049   1.367   1.032 -0.1344 -0.1723 -0.1270
 8474ION    NA+12525   2.145   1.877   0.634  0.0809  0.1437 -0.1521
 8475ION    NA+12526   8.820   4.984  12.907  0.1136  0.1528 -0.0223
 8476ION    NA+12527   7.723   6.271   2.835 -0.1495 -0.0997  0.0355
 8477ION    NA+12528   9.609   7.533   9.007  0.1602 -0.0056  0.2490
 8478ION    NA+12529   4.817   0.288   5.176  0.0183 -0.1622 -0.0465
 8479ION    NA+12530   6.511   2.595   9.752  0.1531  0.1409  0.1917
 8480ION    NA+12531   8.917   7.056   0.322 -0.1042 -0.2691  0.0102
 8481ION    NA+12532   8.365   5.103  12.144 -0.4425 -0.0540  0.0334
 8482ION    NA+12533   7.842   6.301  11.163  0.0949 -0.0802  0.0281
 8483ION    NA+12534   5.782   4.443   0.938  0.2908 -0.1691 -0.0900
 8484ION    NA+12535   9.988   5.351   3.600 -0.0546  0.0807 -0.1816
 8485ION    NA+12536   1.710   7.993   4.481 -0.1084 -0.1087  0.4289
 8486ION    NA+12537   2.060   9.670   1.443 -0.4136  0.2201  0.0256
 8487ION    NA+12538   4.241   7.141  13.127 -0.2628  0.0581  0.3029
 8488ION    NA+12539   9.782   1.422   9.150  0.1347 -0.1219 -0.4335
 8489ION    NA+12540   0.788   4.234  10.197  0.1004  0.1386 -0.1056
 8490ION    NA+12541   6.176   5.257  12.391  0.0134  0.0763 -0.0835
 8491ION    NA+12542   8.363   7.405   4.382  0.2241 -0.0656 -0.1557
 8492ION    NA+12543   3.098   8.554   3.375 -0.1346 -0.1817 -0.1494
 8493ION    NA+12544   0.537   4.256  12.503  0.0898 -0.2953 -0.1677
 8494ION    NA+12545   6.848   9.502  12.548  0.2089 -0.1245  0.3064
 8495ION    NA+12546   3.624   1.410  10.902 -0.0300 -0.0578 -0.0248
 8496ION    NA+12547   6.852   5.081   5.060 -0.4321 -0.0654  0.0096
 8497ION    NA+12548   6.701   2.588   0.821 -0.3612  0.0534  0.0764
 8498ION    NA+12549   1.367   6.366   4.238  0.0075  0.0223 -0.1192
 8499ION    NA+12550   5.956   4.420   5.249 -0.2614  0.1056 -0.0359
 8500ION    NA+12551   3.839   6.681  10.628 -0.0271 -0.1325 -0.0597
 8501ION    NA+12552   0.203   9.020  12.208  0.0866  0.1054 -0.1347
 8502ION    NA+12553   6.216   2.188  13.533  0.1315  0.1337 -0.0434
 8503ION    NA+12554   3.279   2.882   3.961  0.0849 -0.0043 -0.0666
 8504ION    NA+12555   4.225   7.002   0.085  0.1984 -0.1159 -0.1352
 8505ION    NA+12556   0.010  10.119   2.845  0.0813 -0.0424 -0.1163
 8506ION    NA+12557   9.763   9.389   4.070 -0.0035  0.1426  0.3118
 8507ION    NA+12558   6.505   1.628   1.598 -0.0410  0.0708 -0.0075
 8508ION    NA+12559   3.859  10.144  10.465 -0.1333  0.2199 -0.1542
 8509ION    NA+12560   6.009   9.830  13.558  0.0430  0.0538 -0.0462
 8510ION    NA+12561   4.015   5.032  13.360  0.4049  0.2466 -0.0201
 8511ION    NA+12562   0.285   9.321  11.288 -0.2381 -0.2308  0.2059
 8512ION    NA+12563   6.450   5.170   5.446 -0.0426  0.3036 -0.2652
 8513ION    NA+12564   3.965   2.033  11.912 -0.1284  0.1085  0.0853
 8514ION    NA+12565   5.757   3.014  10.006  0.0129  0.1565  0.1572
 8515ION    NA+12566   0.206   8.170   0.653  0.0969  0.4195  0.1106
 8516ION    NA+12567   6.598   7.314   1.680  0.0451 -0.0814 -0.2800
 8517ION    NA+12568   7.436   3.557   3.898  0.0306 -0.2841  0.0763
 8518ION    NA+12569   2.987   7.018   2.457  0.2908  0.0472  0.0425
 8519ION    NA+12570   2.365   1.014   3.058 -0.0468 -0.0464 -0.2403
 8520ION    NA+12571   3.163   2.963  11.343  0.1417 -0.2770  0.1893
 8521ION    NA+12572   8.571   2.777   4.807  0.1623 -0.2624  0.0383
 8522ION    NA+12573   0.060   2.737   1.328  0.1156  0.0317  0.2497
 8523ION    NA+12574   0.074   6.201   4.378  0.1487 -0.0532  0.3790
 8524ION    NA+12575   4.292   4.721  10.064  0.3528 -0.3196  0.2444
 8525ION    NA+12576   5.228   2.471  12.005 -0.1633  0.1369  0.0343
 8526ION    NA+12577   8.282   5.807   0.591 -0.3072  0.2153 -0.2230
 8527ION    NA+12578   9.956   4.748   9.283  0.0128 -0.1545  0.1932
 8528ION    NA+12579   7.491   1.237   1.584 -0.0738 -0.1277 -0.1809
 8529ION    NA+12580   4.302   0.547  13.291 -0.0419 -0.1870 -0.3283
 8530ION    NA+12581   2.612   6.775   9.286  0.0778  0.2293 -0.1184
 8531ION    NA+12582   3.520   2.095   4.177 -0.2648  0.1381 -0.1708
 8532ION    NA+12583   4.090   2.827   9.771  0.0003 -0.1279  0.1223
 8533ION    NA+12584   4.316   1.845   9.527 -0.0288 -0.4221  0.1242
 8534ION    NA+12585   8.037   8.967  10.487  0.0799  0.1292  0.0812
 8535ION    NA+12586   9.941   1.769   8.769  0.0241  0.2418  0.0131
 8536ION    NA+12587   4.745   4.681   0.643 -0.2550  0.0274  0.3485
 8537ION    CL-12588   3.799   5.246   9.764 -0.1219 -0.2091  0.2210
 8538ION    CL-12589   8.196   6.416  10.608  0.2085 -0.2538 -0.2156
 8539ION    CL-12590   1.900   2.020   0.228  0.2297 -0.1578 -0.0713
 8540ION    CL-12591   7.598   9.849  12.837 -0.0018 -0.1192  0.1562
 8541ION    CL-12592   0.717   9.419  10.983 -0.1971  0.1320 -0.1521
 8542ION    CL-12593   7.090   4.678   5.164  0.0006  0.1512  0.0736
 8543ION    CL-12594   4.317   7.382  13.623  0.1432  0.0412  0.1806
 8544ION    CL-12595   5.298   4.596   0.750  0.0470 -0.2998  0.0541
 8545ION    CL-12596   3.654   5.367  13.283 -0.1446  0.2055  0.0639
 8546ION    CL-12597   2.013   6.601  10.418  0.1887  0.1228 -0.1545
 8547ION    CL-12598   2.696   2.975  11.559  0.0192 -0.0896  0.1785
 8548ION    CL-12599   9.420   4.878   0.611 -0.2480 -0.1439  0.1727
 8549ION    CL-12600   0.002   3.668  11.426 -0.0953 -0.1115 -0.0383
 8550ION    CL-12601   1.354   3.357  11.871 -0.0622 -0.0060  0.4001
 8551ION    CL-12602   2.909   2.737  13.285  0.0509  0.2085  0.0941
 8552ION    CL-12603   6.570   1.738  11.657 -0.0197  0.1002 -0.1080
 8553ION    CL-12604   7.943   8.843   9.958  0.0778 -0.0242  0.3821
 8554ION    CL-12605   3.327   7.393   2.241  0.0294 -0.0793 -0.1031
 8555ION    CL-12606   1.597   2.870   0.592 -0.4160  0.1299  0.1996
 8556ION    CL-12607   6.396   9.819  12.354  0.0013 -0.2769 -0.2858
 8557ION    CL-12608   4.488   0.616  13.910 -0.3286 -0.0417  0.0323
 8558ION    CL-12609   6.524   2.343   3.160 -0.1551  0.0297  0.1850
 8559ION    CL-12610   3.738   6.556  10.134  0.3381 -0.2589 -0.3424
 8560ION    CL-12611   5.981   6.707   0.466  0.0996 -0.2123  0.1429
 8561ION    CL-12612   3.284   7.872   3.533 -0.1437  0.2201  0.0845
 8562ION    CL-12613   0.675   3.805  12.431 -0.3882  0.0417  0.3031
 8563ION    CL-12614  10.193   1.258   2.071  0.2394  0.1225 -0.4837
 8564ION    CL-12615   6.459   9.780  13.304  0.0079  0.2928 -0.4352
 8565ION    CL-12616   8.559   5.548  12.179  0.2796 -0.2723  0.3459
 8566ION    CL-12617   8.315   9.103   2.888 -0.1745  0.1569 -0.0385
 8567ION    CL-12618   3.619   0.318   0.923  0.0744  0.2183  0.1095
 8568ION    CL-12619   9.941   2.142   0.057  0.0164 -0.0984 -0.3863
 8569ION    CL-12620   0.538   4.831   3.296  0.2347  0.2944 -0.0583
 8570ION    CL-12621   2.562   1.163   3.997 -0.0366 -0.1502 -0.1764
 8571ION    CL-12622   5.239  10.200   4.092 -0.1590  0.1658 -0.0342
 8572ION    CL-12623   4.015   1.318  13.014  0.3244  0.1659 -0.2932
 8573ION    CL-12624   9.057   5.486   9.488  0.1256 -0.2381 -0.3470
 8574ION    CL-12625   3.777   9.708   4.516 -0.1899  0.0488 -0.0257
 8575ION    CL-12626   1.647   8.764   4.152  0.2440  0.3501 -0.3151
 8576ION    CL-12627   6.815   2.285   1.170 -0.1325  0.0347  0.0398
 8577ION    CL-12628   6.246   2.152   0.132  0.1623 -0.2322 -0.1264
 8578ION    CL-12629   4.274  10.002  13.401 -0.0104  0.2286 -0.0485
 8579ION    CL-12630   5.013   4.706  12.113 -0.1669 -0.0095  0.0795
 8580ION    CL-12631   0.023   1.210   1.535 -0.1742  0.0843  0.2935
 8581ION    CL-12632   1.862   7.851  12.644 -0.1349 -0.1595  0.0569
 8582ION    CL-12633   6.510   0.330   4.726  0.2339 -0.2064 -0.0514
 8583ION    CL-12634   4.649   1.144  10.038 -0.1353 -0.0619  0.1114
 8584ION    CL-12635   6.987   8.600  11.698 -0.0004  0.0478  0.3821
 8585ION    CL-12636   3.412   1.269   3.860  0.3805  0.2374 -0.1425
 8586ION    CL-12637   0.221   8.475  12.247 -0.0704  0.3278  0.1334
 8587ION    CL-12638   8.338   3.756  13.102 -0.0112 -0.0883  0.2494
 8588ION    CL-12639   6.280   5.624   9.517 -0.1767 -0.0589  0.2109
 8589ION    CL-12640   7.993   3.080   3.996  0.0067 -0.2769  0.3489
 8590ION    CL-12641   4.344   2.044  10.036 -0.2934  0.0341 -0.0407
 8591ION    CL-12642   4.313   5.264   3.277 -0.0662  0.1403 -0.2062
 8592ION    CL-12643   1.090   2.664  13.836  0.0973  0.0613  0.1477
 8593ION    CL-12644   3.221   0.917   2.111 -0.2856 -0.3703 -0.3171
 8594ION    CL-12645   1.272   8.721   1.048 -0.1883 -0.0968 -0.1352
 8595ION    CL-12646   9.900   8.875   4.369  0.3742 -0.2382 -0.1975
 8596ION    CL-12647   8.881   6.989  11.799  0.0032 -0.2091  0.2439
 8597ION    CL-12648   7.928   6.926   4.810  0.1364 -0.1033 -0.1202
 8598ION    CL-12649   7.915   1.461   9.695 -0.3700  0.0083  0.2924
 8599ION    CL-12650   7.909   2.272  13.585 -0.0714 -0.0087  0.1735
 8600ION    CL-12651   1.659   0.998  10.865  0.1830 -0.0552  0.3890
 8601ION    CL-12652   0.128   4.497  12.320  0.1540  0.0713 -0.2730
 8602ION    CL-12653   2.389   9.954   1.704 -0.0057  0.2444  0.0282
 8603ION    CL-12654   1.143   7.914   2.061 -0.0009  0.0282 -0.0521
 8604ION    CL-12655   5.357   9.218   1.901 -0.3725 -0.3818  0.2348
 8605ION    CL-12656   0.855   2.401  10.542  0.1497  0.0544  0.0746
 8606ION    CL-12657   5.386   5.407  12.718  0.1396 -0.0047 -0.2415
 8607ION    CL-12658   3.891   0.996  10.748 -0.0228  0.2845  0.1379
 8608ION    CL-12659   6.583   1.283   1.252  0.0373 -0.2180  0.4489
 8609ION    CL-12660   4.582   8.951   9.439 -0.0475  0.2942 -0.1758
 8610ION    CL-12661   6.794   3.132   9.731  0.3875  0.1374  0.1608
 8611ION    CL-12662   3.978   2.745  13.058  0.3167  0.1023 -0.0537
 8612ION    CL-12663   7.654  10.135   4.896 -0.2610 -0.0620  0.2818
 8613ION    CL-12664   6.317   2.634  13.322  0.0875  0.0156 -0.0646
 8614ION    CL-12665   0.489   5.295  10.193  0.2195 -0.2395  0.1576
 8615ION    CL-12666   8.805   7.256   4.523 -0.4004  0.0285  0.0446
 8616ION    CL-12667   0.362   1.970   3.636 -0.1338  0.1612  0.0807
 8617ION    CL-12668   5.780   2.683   2.178 -0.0741 -0.1466 -0.0335
 8618ION    CL-12669   8.050   6.381   2.441  0.0538 -0.0088 -0.1487
 8619ION    CL-12670   4.222   1.476   0.984  0.0706  0.0294  0.0471
 8620ION    CL-12671   9.435   3.224  10.068 -0.2351 -0.0228 -0.1419
 8621ION    CL-12672   3.856   0.224   9.740  0.1414  0.0390  0.0215
 8622ION    CL-12673   6.773   5.403   1.823 -0.1639  0.1146 -0.1111
 8623ION    CL-12674   4.629   3.928  10.109 -0.0196 -0.1085  0.6273
 8624ION    CL-12675   7.989   9.897   9.972 -0.1962 -0.3578 -0.1410
 8625ION    CL-12676   0.794   6.368  12.799  0.2875  0.1319 -0.1385
  10.20451  10.20451  13.93489
