Protein in INSANE! Membrane UpperLeaflet>POPC=1.0 LowerLeaflet>POPC=1.0
12676
    1AU     AUC    1   1.349   9.022   6.794 -0.0509  0.0942 -0.0077
    1AU     AUC    2   1.593   9.187   6.839  0.0139  0.0634  0.0149
    1AU     AUC    3   1.437   9.096   7.067 -0.0974  0.0026 -0.0301
    1AU     AUC    4   1.261   8.947   6.533 -0.0209  0.0048 -0.0333
    1AU     AUC    5   1.093   8.871   6.763 -0.1206  0.0505 -0.0882
    1AU     AUC    6   1.094   9.180   6.694  0.0440 -0.0295 -0.0986
    1AU     AUC    7   1.322   9.321   6.852 -0.0463 -0.0133 -0.0178
    1AU     AUC    8   1.389   8.738   6.736 -0.0070 -0.0443  0.0219
    1AU     AUC    9   1.577   8.865   6.927  0.0260 -0.0096  0.0526
    1AU     AUC   10   1.283   8.834   7.020 -0.0912 -0.0053  0.0463
    1AU     AUC   11   1.142   9.104   7.005 -0.0150  0.0208 -0.0550
    1AU     AUC   12   1.579   8.968   6.611  0.0123  0.0063 -0.1036
    1AU     AUC   13   1.398   9.202   6.585  0.1204 -0.0614 -0.0203
    1AU     AUC   14   1.843   9.361   6.851  0.0070 -0.1235 -0.0196
    1AU     AUC   15   1.698   9.286   7.103 -0.0422 -0.0997 -0.0401
    1AU     AUC   16   1.520   9.177   7.354  0.0835 -0.0563  0.0532
    1AU     AUC   17   1.190   8.856   6.257  0.0526 -0.0576 -0.0007
    1AU     AUC   18   1.004   8.794   6.469  0.0084  0.0117 -0.0650
    1AU     AUC   19   0.827   8.712   6.748 -0.0659  0.1008 -0.0432
    1AU     AUC   20   0.866   9.327   6.597  0.0206  0.0707 -0.0272
    1AU     AUC   21   1.063   9.463   6.770 -0.0214 -0.1438 -0.0519
    1AU     AUC   22   1.264   9.616   6.943  0.0486  0.0088 -0.1114
    1AU     AUC   23   1.398   8.441   6.668  0.0452  0.0238 -0.0045
    1AU     AUC   24   1.632   8.581   6.828 -0.0189  0.0217  0.0503
    1AU     AUC   25   1.809   8.726   7.034  0.0032  0.0553 -0.0490
    1AU     AUC   26   1.241   8.616   7.216  0.0434 -0.0573  0.0419
    1AU     AUC   27   1.075   8.892   7.217  0.0225 -0.0688 -0.0047
    1AU     AUC   28   0.915   9.170   7.193  0.0125  0.0033  0.0409
    1AU     AUC   29   1.826   8.890   6.426 -0.1157 -0.0288 -0.0460
    1AU     AUC   30   1.630   9.158   6.388  0.0714 -0.0416 -0.0989
    1AU     AUC   31   1.440   9.412   6.341 -0.1042 -0.0647 -0.0417
    1AU     AUC   32   1.373   8.924   7.308 -0.0505  0.0568 -0.0650
    1AU     AUC   33   1.226   9.169   7.286  0.0212  0.0575 -0.0203
    1AU     AUC   34   1.839   9.145   6.634  0.0527  0.0445  0.0621
    1AU     AUC   35   1.663   9.396   6.583  0.0716 -0.0513 -0.0591
    1AU     AUC   36   1.035   8.672   6.978  0.0178 -0.0585  0.0042
    1AU     AUC   37   0.862   8.934   6.978 -0.0429 -0.1590 -0.0010
    1AU     AUC   38   1.503   8.876   6.320 -0.0034 -0.0624 -0.0857
    1AU     AUC   39   1.316   9.137   6.299 -0.0617 -0.0270 -0.0380
    1AU     AUC   40   1.567   9.510   6.891  0.0090 -0.0148  0.0084
    1AU     AUC   41   1.412   9.401   7.147 -0.0844 -0.0203 -0.0014
    1AU     AUC   42   1.000   9.082   6.433  0.0235 -0.0406  0.0500
    1AU     AUC   43   0.858   9.025   6.672  0.0342  0.1357  0.0070
    1AU     AUC   44   1.839   9.038   6.953 -0.0446  0.0750  0.0078
    1AU     AUC   45   1.677   8.958   7.200 -0.0478 -0.0146  0.0250
    1AU     AUC   46   1.296   8.656   6.441 -0.0148 -0.1166  0.1285
    1AU     AUC   47   1.119   8.594   6.705 -0.0836  0.0056 -0.0383
    1AU     AUC   48   0.879   9.230   6.905 -0.0680 -0.0834 -0.0197
    1AU     AUC   49   1.107   9.411   7.063 -0.0709  0.0491 -0.0974
    1AU     AUC   50   1.329   8.524   6.946  0.0050  0.0618 -0.0092
    1AU     AUC   51   1.534   8.665   7.140  0.1147  0.0089  0.0399
    1AU     AUC   52   1.154   9.370   6.468  0.0234 -0.0082 -0.0238
    1AU     AUC   53   1.369   9.518   6.642 -0.0234  0.0564 -0.0197
    1AU     AUC   54   1.603   8.656   6.530 -0.0984  0.0717  0.0315
    1AU     AUC   55   1.812   8.813   6.723 -0.0619  0.0141 -0.1218
    1AU    AUSL   56   1.264   8.982   7.485 -0.0330  0.0413 -0.0606
    1AU    AUSL   57   1.476   8.592   7.535 -0.0004  0.0568 -0.0631
    1AU     AUL   58   1.384   8.668   7.887  0.0840 -0.0567 -0.0369
    1AU       S   59   1.845   8.513   7.705 -0.0711 -0.0783  0.0754
    1AU     LIG   60   1.861   8.006   7.798  0.0944  0.0140 -0.1802
    1AU     LIG   61   1.528   7.743   7.905  0.0593  0.4098 -0.3209
    1AU     LIG   62   1.251   7.416   7.947 -0.0232  0.3016 -0.1131
    1AU     LIG   63   0.728   7.317   7.914 -0.1365 -0.0808 -0.4272
    1AU     LIG   64   0.310   7.204   8.001 -0.0025  0.0626  0.2013
    1AU     LIG   65   0.065   7.042   8.316  0.1621  0.2572  0.5189
    1AU       S   66   0.839   9.077   7.978 -0.1653  0.4764 -0.0036
    1AU     LIG   67   0.363   9.013   7.916 -0.1735  0.0534 -0.1258
    1AU     LIG   68   0.081   8.860   7.699 -0.0924  0.1681  0.0659
    1AU     LIG   69  -0.318   8.894   7.479  0.4420  0.2544  0.3073
    1AU     LIG   70  -0.472   9.089   7.255  0.1605 -0.0595 -0.0812
    1AU     LIG   71  -0.832   9.103   7.038  0.2622 -0.1611 -0.1645
    1AU     LIG   72  -1.219   9.368   7.123  0.4216  0.0626  0.0243
    1AU    AUSL   73   1.059   8.619   7.546 -0.0650  0.1413 -0.0351
    1AU    AUSL   74   0.825   8.944   7.378  0.1195  0.0014 -0.0405
    1AU     AUL   75   0.820   8.797   7.631 -0.0380  0.0397 -0.0055
    1AU       S   76   0.953   8.896   8.040 -0.0577 -0.0325 -0.4221
    1AU     LIG   77   0.540   8.801   8.347 -0.0629 -0.0643  0.5139
    1AU     LIG   78   0.214   8.541   8.122  0.0561  0.3953 -0.1553
    1AU     LIG   79   0.217   8.248   7.899 -0.1188  0.3374 -0.0852
    1AU     LIG   80   0.489   7.899   7.884 -0.1228 -0.2557 -0.4816
    1AU     LIG   81   0.938   7.835   7.919 -0.2089  0.2536  0.2240
    1AU     LIG   82   1.224   8.164   7.879 -0.3030  0.0444 -0.1922
    1AU       S   83   0.452   8.496   7.551  0.2380  0.2325  0.2544
    1AU     LIG   84   0.781   8.389   7.977  0.3587 -0.2758  0.0835
    1AU     LIG   85   1.113   8.465   8.244 -0.2622  0.1484 -0.4748
    1AU     LIG   86   1.578   8.370   8.227  0.0980  0.0209 -0.0407
    1AU     LIG   87   2.064   8.259   8.172 -0.4167  0.0658 -0.1032
    1AU     LIG   88   2.475   8.006   8.030  0.3390  0.0485 -0.1733
    1AU     LIG   89   2.374   7.668   8.250  0.0016 -0.3211  0.3170
    1AU    AUSL   90   0.970   9.257   7.587 -0.0777  0.0113 -0.0851
    1AU    AUSL   91   1.427   9.366   7.586 -0.0727 -0.0720 -0.0330
    1AU     AUL   92   1.274   9.109   7.780 -0.0640 -0.0591 -0.0504
    1AU       S   93   0.820   9.295   7.692 -0.0054  0.2276 -0.0152
    1AU     LIG   94   0.343   9.440   7.659 -0.2580 -0.4096  0.4028
    1AU     LIG   95   0.072   9.780   7.735  0.2408 -0.2518 -0.1074
    1AU     LIG   96  -0.139  10.174   7.932 -0.4235  0.0708 -0.3010
    1AU     LIG   97  -0.092  10.585   8.017 -0.1270  0.1401 -0.2621
    1AU     LIG   98  -0.359  10.838   8.281 -0.3243 -0.1193 -0.3746
    1AU     LIG   99  -0.463  10.967   8.611  0.1014 -0.3580  0.1938
    1AU       S  100   1.515   9.487   7.746 -0.4159 -0.3727  0.1501
    1AU     LIG  101   1.923   9.649   7.990  0.0554  0.1002 -0.1966
    1AU     LIG  102   2.387   9.651   7.804  0.0544 -0.1921  0.0992
    1AU     LIG  103   2.784   9.713   7.614  0.0151 -0.2267 -0.3052
    1AU     LIG  104   3.200   9.790   7.452 -0.2537 -0.1324  0.0749
    1AU     LIG  105   3.618   9.529   7.474  0.0302 -0.1595 -0.2384
    1AU     LIG  106   4.020   9.331   7.383  0.0047  0.0312 -0.4149
    1AU    AUSL  107   1.964   9.476   6.607 -0.0626  0.0097  0.0086
    1AU    AUSL  108   1.648   9.717   6.397 -0.0712 -0.0542 -0.0326
    1AU     AUL  109   2.006   9.772   6.313  0.0460 -0.0391 -0.0317
    1AU       S  110   2.353   9.491   6.171 -0.1993 -0.2050  0.0086
    1AU     LIG  111   2.526   9.843   6.344 -0.3053  0.2372  0.0066
    1AU     LIG  112   2.854  10.165   6.266  0.0654  0.3083  0.0389
    1AU     LIG  113   2.859  10.411   6.574 -0.1347 -0.3233 -0.1947
    1AU     LIG  114   2.661  10.552   7.027 -0.1971  0.0990  0.0571
    1AU     LIG  115   2.786  10.919   7.246 -0.0712 -0.0662 -0.0072
    1AU     LIG  116   2.928  11.398   7.278 -0.2004  0.0876  0.3202
    1AU       S  117   1.849  10.175   6.520  0.4042 -0.0754  0.2901
    1AU     LIG  118   1.910  10.499   6.582  0.0375  0.1016 -0.0688
    1AU     LIG  119   2.291  10.668   6.657 -0.1629 -0.2961  0.1842
    1AU     LIG  120   2.680  10.943   6.661  0.1655  0.0985 -0.0621
    1AU     LIG  121   3.082  11.175   6.894  0.1822 -0.4093 -0.2229
    1AU     LIG  122   3.380  11.517   7.080  0.2518 -0.2273 -0.2579
    1AU     LIG  123   3.297  11.786   7.421  0.2463  0.2155 -0.4599
    1AU    AUSL  124   2.095   9.148   6.321 -0.0618  0.0105  0.0099
    1AU    AUSL  125   2.213   9.190   6.778  0.0248  0.0688 -0.1497
    1AU     AUL  126   2.278   9.458   6.609  0.0072 -0.1145 -0.0405
    1AU       S  127   2.467   9.013   6.650  0.2255  0.0077  0.5282
    1AU     LIG  128   2.725   9.250   6.800 -0.0924  0.2522 -0.7749
    1AU     LIG  129   2.959   9.569   6.987 -0.3872  0.1645  0.0318
    1AU     LIG  130   3.427   9.649   7.004  0.0291  0.0454  0.2450
    1AU     LIG  131   3.955   9.726   7.098  0.0792  0.3158  0.4558
    1AU     LIG  132   4.381   9.595   7.098 -0.2769  0.5197  0.0370
    1AU     LIG  133   4.605   9.378   7.458  0.2962 -0.0722 -0.4550
    1AU       S  134   2.424   9.232   6.164  0.0698 -0.0485  0.0079
    1AU     LIG  135   2.849   9.429   6.304 -0.1449  0.2965  0.2784
    1AU     LIG  136   3.181   9.398   6.579 -0.1809 -0.0159  0.4670
    1AU     LIG  137   3.259   9.148   6.903 -0.2698 -0.2450  0.2348
    1AU     LIG  138   3.607   9.108   7.158 -0.2009 -0.1374 -0.0072
    1AU     LIG  139   3.983   8.860   7.244 -0.2089  0.1702 -0.2685
    1AU     LIG  140   4.507   8.867   7.369 -0.0052  0.3504 -0.0920
    1AU    AUSL  141   1.694   9.307   6.342 -0.0202 -0.0184  0.0491
    1AU    AUSL  142   1.800   9.032   6.042 -0.0048  0.0169  0.0410
    1AU     AUL  143   1.936   9.394   6.089  0.0344 -0.0787  0.0743
    1AU       S  144   1.857   9.135   5.713  0.1927  0.0372 -0.0668
    1AU     LIG  145   2.241   9.166   5.719  0.0302 -0.2388  0.2982
    1AU     LIG  146   2.731   9.262   5.723  0.6714 -0.1354  0.2862
    1AU     LIG  147   3.285   9.126   5.650  0.6424  0.0342  0.0285
    1AU     LIG  148   3.473   8.647   5.786  0.1851  0.3248 -0.1917
    1AU     LIG  149   3.810   8.410   6.074 -0.0204 -0.1776 -0.0878
    1AU     LIG  150   3.902   8.549   6.471 -0.1452 -0.0861  0.2583
    1AU       S  151   2.252   9.096   6.241  0.2967  0.1268  0.0340
    1AU     LIG  152   2.678   8.831   6.124  0.0349  0.4104 -0.0324
    1AU     LIG  153   2.994   8.833   6.080 -0.0664  0.0759  0.0892
    1AU     LIG  154   3.215   9.169   6.140  0.3102  0.2137 -0.2129
    1AU     LIG  155   3.317   9.635   5.840 -0.0532  0.1464  0.1275
    1AU     LIG  156   3.278   9.876   5.477  0.0759 -0.0631  0.2788
    1AU     LIG  157   3.182  10.107   5.113  0.1438 -0.0576  0.2638
    1AU    AUSL  158   0.655   8.656   7.122  0.0245  0.0712  0.0047
    1AU    AUSL  159   0.540   9.089   7.105  0.1136  0.0072 -0.0058
    1AU     AUL  160   0.484   9.027   7.419  0.0941  0.0272  0.0581
    1AU       S  161   0.447   8.569   7.455 -0.0697  0.0278  0.0526
    1AU     LIG  162  -0.051   8.383   7.488 -0.0322  0.0148  0.1239
    1AU     LIG  163  -0.428   8.141   7.402 -0.2090  0.0890  0.2155
    1AU     LIG  164  -0.606   7.718   7.247  0.1028  0.1287  0.1781
    1AU     LIG  165  -0.803   7.301   7.300  0.3577 -0.0337 -0.0323
    1AU     LIG  166  -0.612   6.835   7.371  0.2006 -0.2079 -0.1562
    1AU     LIG  167  -0.353   6.442   7.481  0.1624  0.2008  0.3304
    1AU       S  168   0.238   8.837   7.058  0.1223 -0.4620 -0.1324
    1AU     LIG  169  -0.159   8.626   7.074  0.3231 -0.3211 -0.0985
    1AU     LIG  170  -0.648   8.589   7.232  0.2809 -0.1459  0.2382
    1AU     LIG  171  -0.982   8.506   7.382  0.0469  0.0369  0.0524
    1AU     LIG  172  -1.296   8.301   7.289  0.1193  0.2747 -0.2977
    1AU     LIG  173  -1.723   8.382   7.295  0.0970 -0.1648 -0.0501
    1AU     LIG  174  -1.969   8.685   7.144  0.2834  0.0963 -0.1945
    1AU    AUSL  175   1.074   8.703   7.147  0.0343  0.0375 -0.0132
    1AU    AUSL  176   0.754   8.379   6.815 -0.0673  0.0532  0.0152
    1AU     AUL  177   0.600   8.428   7.046  0.0779 -0.0561 -0.0425
    1AU       S  178   0.692   7.975   6.980  0.1249  0.1260  0.0963
    1AU     LIG  179   0.552   7.526   7.050 -0.3839  0.0656 -0.3041
    1AU     LIG  180   0.478   6.986   7.150  0.2690 -0.1022 -0.1135
    1AU     LIG  181   0.765   6.656   7.235  0.1187 -0.0719  0.0286
    1AU     LIG  182   1.043   6.433   7.449 -0.4092 -0.1713  0.0216
    1AU     LIG  183   1.062   6.005   7.369 -0.1092  0.2077 -0.1908
    1AU     LIG  184   0.764   5.737   7.639 -0.0011  0.1046 -0.1432
    1AU       S  185   0.639   8.357   7.527 -0.1814 -0.4015  0.0735
    1AU     LIG  186   0.404   7.963   7.360 -0.1715  0.1973 -0.0709
    1AU     LIG  187  -0.007   7.886   7.606 -0.2677 -0.0409  0.1349
    1AU     LIG  188  -0.312   8.171   7.869  0.3492 -0.0507 -0.0691
    1AU     LIG  189  -0.542   8.516   7.766 -0.0048  0.0179 -0.1990
    1AU     LIG  190  -0.994   8.711   7.886  0.0967  0.1530  0.3066
    1AU     LIG  191  -1.414   8.726   7.727  0.1115 -0.3691  0.1490
    1AU    AUSL  192   1.398   8.942   6.144  0.0292 -0.0404  0.1103
    1AU    AUSL  193   1.748   8.690   6.255  0.0902  0.0839  0.0756
    1AU     AUL  194   1.718   8.751   5.894 -0.0183  0.0451  0.0714
    1AU       S  195   1.644   9.057   5.564 -0.2050  0.0105 -0.0975
    1AU     LIG  196   1.206   8.958   5.302  0.0212 -0.0763 -0.1020
    1AU     LIG  197   1.070   9.207   5.191  0.0945 -0.1321  0.1561
    1AU     LIG  198   0.872   9.566   5.297 -0.0652  0.1488  0.0039
    1AU     LIG  199   0.821   9.997   5.521  0.3703  0.0529 -0.0969
    1AU     LIG  200   0.664  10.387   5.718 -0.2004  0.1726  0.2084
    1AU     LIG  201   0.283  10.508   6.041  0.4234 -0.1018  0.3721
    1AU       S  202   1.717   8.263   5.841 -0.3622 -0.0729 -0.3017
    1AU     LIG  203   2.108   8.173   5.955 -0.0996 -0.0486  0.2768
    1AU     LIG  204   2.495   8.226   5.843 -0.0183 -0.1733  0.1509
    1AU     LIG  205   2.801   8.352   6.141 -0.0692  0.5920 -0.0590
    1AU     LIG  206   3.152   8.371   6.347 -0.1406  0.5493 -0.0730
    1AU     LIG  207   3.573   8.207   6.534  0.3934 -0.2832  0.0922
    1AU     LIG  208   3.841   8.059   6.787 -0.2470 -0.4023 -0.2126
    1AU    AUSL  209   1.488   9.326   5.972  0.0517 -0.0075  0.0844
    1AU    AUSL  210   1.059   9.111   5.974 -0.0144  0.0705 -0.0166
    1AU     AUL  211   1.283   8.947   5.821 -0.0206 -0.0416 -0.0221
    1AU       S  212   1.023   9.338   5.771 -0.0398  0.0700  0.1352
    1AU     LIG  213   0.760   9.046   5.583  0.0283 -0.0507  0.0059
    1AU     LIG  214   0.280   8.972   5.546  0.3142 -0.3676 -0.0650
    1AU     LIG  215  -0.206   8.687   5.397  0.2633  0.4227  0.1469
    1AU     LIG  216  -0.420   8.506   5.649  0.0989 -0.0701 -0.1322
    1AU     LIG  217  -0.518   8.556   6.054  0.0755 -0.2391 -0.0915
    1AU     LIG  218  -0.527   8.448   6.535  0.2818  0.1247  0.1730
    1AU       S  219   1.591   9.315   5.774 -0.0480  0.1623  0.0295
    1AU     LIG  220   1.445   9.511   5.426  0.2488  0.4925 -0.2130
    1AU     LIG  221   1.324   9.918   5.383  0.0855 -0.0241 -0.0648
    1AU     LIG  222   1.574  10.199   5.612  0.1030  0.3653  0.2785
    1AU     LIG  223   1.905  10.417   5.879  0.0612 -0.0147  0.0488
    1AU     LIG  224   2.135  10.709   5.991  0.1176  0.0550 -0.2567
    1AU     LIG  225   2.248  11.053   5.690 -0.2287 -0.2048  0.3195
    1AU    AUSL  226   1.485   9.845   7.080  0.0274 -0.0351  0.1811
    1AU    AUSL  227   1.790   9.807   6.786  0.0326  0.0384 -0.0737
    1AU     AUL  228   1.527  10.159   6.924 -0.0055 -0.0439 -0.0612
    1AU       S  229   2.008  10.011   6.751 -0.3587  0.1569 -0.4649
    1AU     LIG  230   2.522  10.129   6.757  0.2572 -0.0292  0.2716
    1AU     LIG  231   2.914   9.954   6.731 -0.2268  0.1286 -0.3611
    1AU     LIG  232   3.332  10.074   6.653  0.6951  0.1071 -0.0215
    1AU     LIG  233   3.734  10.217   6.870  0.0461 -0.3629  0.1629
    1AU     LIG  234   4.123  10.203   7.062  0.2305  0.0216 -0.1126
    1AU     LIG  235   4.494  10.145   7.197  0.1030  0.2758  0.3019
    1AU       S  236   1.815   9.998   7.290 -0.3908  0.1489 -0.1066
    1AU     LIG  237   1.650  10.368   7.397  0.0780 -0.0598 -0.0063
    1AU     LIG  238   1.812  10.733   7.427  0.0545 -0.2110  0.1018
    1AU     LIG  239   2.256  10.888   7.111  0.2176  0.1282  0.2576
    1AU     LIG  240   2.497  11.305   6.972 -0.1575  0.5342  0.4057
    1AU     LIG  241   2.714  11.487   6.703 -0.2135  0.1239 -0.1178
    1AU     LIG  242   3.024  11.589   6.532  0.0845  0.1096  0.0931
    1AU    AUSL  243   1.963   9.582   7.094 -0.0545  0.0603 -0.0051
    1AU    AUSL  244   1.874   9.287   7.430  0.0147 -0.0142  0.1298
    1AU     AUL  245   2.205   9.457   7.462  0.0372 -0.0415 -0.1105
    1AU       S  246   1.964   9.777   7.266  0.0955 -0.4090  0.2655
    1AU     LIG  247   2.369   9.955   7.446 -0.3880  0.0861  0.2170
    1AU     LIG  248   2.752  10.084   7.229 -0.0639 -0.0022  0.2481
    1AU     LIG  249   3.126  10.239   7.136  0.0847  0.1349 -0.2405
    1AU     LIG  250   3.299  10.585   7.026 -0.1610  0.1786 -0.0850
    1AU     LIG  251   3.650  10.933   6.827  0.3588  0.1391 -0.5540
    1AU     LIG  252   3.906  11.230   6.777  0.1840 -0.3546  0.1488
    1AU       S  253   2.324   9.020   7.626 -0.1711 -0.1835 -0.1138
    1AU     LIG  254   2.645   9.117   7.367 -0.0919 -0.5642  0.0993
    1AU     LIG  255   2.953   9.249   7.400  0.0750  0.1599  0.1033
    1AU     LIG  256   3.308   9.089   7.658 -0.2285  0.2917  0.1896
    1AU     LIG  257   3.555   9.163   7.969 -0.0917  0.3526  0.3541
    1AU     LIG  258   3.919   9.042   8.261  0.0093 -0.2831 -0.2076
    1AU     LIG  259   4.050   8.940   8.669 -0.1109  0.2675  0.0842
    1AU    AUSL  260   1.563   9.453   7.209  0.0160 -0.0275 -0.0287
    1AU    AUSL  261   1.209   9.661   7.346  0.0418  0.0593  0.0082
    1AU     AUL  262   1.432   9.791   7.387  0.0598 -0.0888 -0.0759
    1AU       S  263   1.186   9.638   7.764  0.0049 -0.1164 -0.1014
    1AU     LIG  264   0.889   9.959   7.816 -0.1124 -0.0072  0.0395
    1AU     LIG  265   0.679  10.060   7.555 -0.1450 -0.2021  0.1313
    1AU     LIG  266   0.627  10.436   7.553  0.1169 -0.0503  0.0683
    1AU     LIG  267   0.669  10.854   7.480 -0.0067  0.0739  0.1708
    1AU     LIG  268   0.303  11.000   7.642  0.1235  0.2195  0.1155
    1AU     LIG  269   0.094  11.467   7.656  0.3669 -0.0358  0.0290
    1AU       S  270   1.850   9.772   7.519 -0.0529  0.1596  0.0419
    1AU     LIG  271   1.990  10.138   7.738 -0.2930 -0.1054 -0.0094
    1AU     LIG  272   2.127  10.566   8.001  0.2179  0.1278  0.1258
    1AU     LIG  273   1.929  10.963   8.151 -0.2034 -0.0552 -0.0238
    1AU     LIG  274   1.916  11.313   8.057 -0.1611  0.3075  0.0260
    1AU     LIG  275   2.019  11.617   7.851 -0.0122 -0.1947  0.1149
    1AU     LIG  276   2.151  11.893   7.515 -0.1998  0.0379  0.0297
    1AU    AUSL  277   0.549   9.143   6.436 -0.0323  0.0067 -0.0692
    1AU    AUSL  278   0.593   8.844   6.762 -0.1160 -0.0687  0.0157
    1AU     AUL  279   0.344   9.228   6.660 -0.0411  0.0849  0.0037
    1AU       S  280   0.360   8.790   6.805  0.0025  0.0051 -0.6704
    1AU     LIG  281  -0.010   8.687   6.620  0.0704  0.2380 -0.0626
    1AU     LIG  282  -0.152   8.899   6.409 -0.3200 -0.2839  0.1536
    1AU     LIG  283  -0.490   9.083   6.385 -0.0096 -0.0618 -0.1695
    1AU     LIG  284  -0.490   9.543   6.638 -0.2246  0.2438  0.1586
    1AU     LIG  285  -0.445   9.935   6.804 -0.0296  0.2067 -0.0152
    1AU     LIG  286  -0.350  10.187   7.126 -0.0630  0.0794 -0.1371
    1AU       S  287   0.315   8.988   6.243  0.3514  0.0194  0.1287
    1AU     LIG  288  -0.034   9.311   6.182  0.0249 -0.0198 -0.0156
    1AU     LIG  289  -0.412   9.505   6.121 -0.1299 -0.4162 -0.0561
    1AU     LIG  290  -0.580   9.888   6.254 -0.0299 -0.1475  0.2237
    1AU     LIG  291  -0.881   9.896   6.546 -0.0592  0.0383  0.0216
    1AU     LIG  292  -0.907   9.788   6.972  0.4476  0.0670 -0.6070
    1AU     LIG  293  -0.657   9.599   7.150 -0.1711 -0.0163 -0.0851
    1AU    AUSL  294   0.923   8.973   6.334 -0.0437  0.0746  0.0073
    1AU    AUSL  295   0.833   9.392   6.223 -0.0667 -0.1240 -0.0549
    1AU     AUL  296   0.702   9.203   6.098 -0.0392  0.0358  0.0030
    1AU       S  297   0.324   8.929   6.060 -0.0238 -0.3663  0.1538
    1AU     LIG  298  -0.022   8.804   5.933 -0.3522 -0.1789  0.1533
    1AU     LIG  299  -0.396   9.022   5.866 -0.3047 -0.0174 -0.2454
    1AU     LIG  300  -0.817   9.110   5.858  0.0468 -0.0182 -0.1242
    1AU     LIG  301  -1.014   9.098   6.362 -0.0530  0.0947 -0.2009
    1AU     LIG  302  -1.244   8.949   6.729 -0.0927 -0.1589  0.1172
    1AU     LIG  303  -1.039   8.675   6.839  0.0885  0.1216  0.0220
    1AU       S  304   0.832   9.559   5.804  0.2349  0.0721  0.2244
    1AU     LIG  305   0.566   9.901   6.040 -0.1248 -0.2687  0.1472
    1AU     LIG  306   0.197  10.068   6.278 -0.6086 -0.0355 -0.0348
    1AU     LIG  307  -0.066   9.847   6.456 -0.0586 -0.2306  0.0717
    1AU     LIG  308   0.114   9.573   6.742  0.3854 -0.0825  0.1738
    1AU     LIG  309  -0.191   9.202   6.847  0.2878 -0.3095 -0.3306
    1AU     LIG  310  -0.531   8.833   6.817 -0.0247 -0.0862 -0.3888
    1AU    AUSL  311   0.630   8.679   6.376  0.0397  0.0246 -0.0029
    1AU    AUSL  312   0.995   8.605   6.159 -0.0582  0.0429  0.1048
    1AU     AUL  313   0.753   8.745   6.018 -0.0855 -0.1062 -0.0742
    1AU       S  314   0.791   8.257   5.942  0.2163 -0.0538 -0.0347
    1AU     LIG  315   1.175   8.092   5.668 -0.3459  0.2310  0.1377
    1AU     LIG  316   1.198   8.211   5.321 -0.0237  0.2836 -0.1393
    1AU     LIG  317   1.192   8.404   4.977  0.0222 -0.0043 -0.2576
    1AU     LIG  318   1.376   8.906   4.847  0.0776 -0.3926 -0.0265
    1AU     LIG  319   1.620   9.166   5.073 -0.0688  0.2800 -0.4362
    1AU     LIG  320   1.953   9.386   5.296  0.0091  0.1377 -0.0863
    1AU       S  321   0.352   8.710   6.295 -0.1592 -0.0656  0.4332
    1AU     LIG  322   0.376   8.322   6.552  0.0684  0.0145  0.2686
    1AU     LIG  323   0.131   8.233   6.963 -0.1952 -0.0828  0.0723
    1AU     LIG  324  -0.286   8.138   6.901 -0.0836 -0.3500 -0.1530
    1AU     LIG  325  -0.751   8.175   6.922  0.0314 -0.0923  0.0646
    1AU     LIG  326  -0.979   7.924   6.980  0.2373 -0.0886  0.1843
    1AU     LIG  327  -1.076   7.541   6.862  0.0914 -0.1766 -0.1682
    1AU    AUSL  328   2.046   8.910   7.305 -0.0394 -0.0469 -0.0230
    1AU    AUSL  329   1.670   8.967   7.559 -0.1158  0.0372  0.0436
    1AU     AUL  330   1.884   9.135   7.691  0.0151 -0.0030 -0.0351
    1AU       S  331   2.249   8.853   7.463 -0.3251  0.1901 -0.1155
    1AU     LIG  332   2.698   8.652   7.472  0.3784  0.2367 -0.0263
    1AU     LIG  333   3.139   8.658   7.475 -0.0603 -0.0592  0.1845
    1AU     LIG  334   3.528   8.349   7.367  0.1190  0.0444  0.2362
    1AU     LIG  335   3.910   7.991   7.244 -0.2497  0.1310 -0.1168
    1AU     LIG  336   4.324   7.814   7.181  0.0192  0.3508  0.2226
    1AU     LIG  337   4.468   7.362   7.137  0.0614 -0.0480 -0.1791
    1AU       S  338   1.771   8.701   7.643 -0.0707  0.1919 -0.0770
    1AU     LIG  339   1.776   8.892   8.086  0.3508  0.2773 -0.3526
    1AU     LIG  340   1.481   9.166   8.175  0.0756 -0.0631 -0.2704
    1AU     LIG  341   1.087   9.298   8.332  0.0054  0.1268  0.1688
    1AU     LIG  342   0.706   9.286   8.462  0.0356  0.0267  0.1239
    1AU     LIG  343   0.645   9.568   8.660  0.2406 -0.0574 -0.0814
    1AU     LIG  344   0.502   9.691   9.035  0.1659  0.3344 -0.0293
    1AU    AUSL  345   1.885   9.172   7.016  0.0207 -0.0625 -0.0949
    1AU    AUSL  346   2.150   8.796   6.916  0.0685  0.0366 -0.0331
    1AU     AUL  347   2.268   9.183   7.084  0.0487  0.1201  0.0579
    1AU       S  348   2.139   8.845   7.365 -0.2820  0.0202 -0.1481
    1AU     LIG  349   2.373   8.396   7.134  0.2227  0.2991  0.2355
    1AU     LIG  350   2.425   8.115   7.019  0.2078  0.2595  0.1389
    1AU     LIG  351   2.274   7.757   6.906  0.1408  0.0918  0.1117
    1AU     LIG  352   2.336   7.352   6.858  0.0167 -0.1509 -0.1065
    1AU     LIG  353   2.266   7.118   6.520  0.0179 -0.1942 -0.0834
    1AU     LIG  354   2.206   6.952   6.082  0.1870  0.2783  0.0278
    1AU       S  355   2.471   8.793   6.835  0.1961  0.0085  0.0014
    1AU     LIG  356   2.851   8.825   7.027 -0.0022  0.4012  0.1483
    1AU     LIG  357   3.331   8.667   6.996  0.2097  0.2989 -0.1124
    1AU     LIG  358   3.734   8.540   7.008 -0.0736  0.2135 -0.3559
    1AU     LIG  359   4.191   8.350   7.075 -0.1026 -0.4863 -0.0605
    1AU     LIG  360   4.622   8.277   7.149 -0.1698 -0.3860 -0.0225
    1AU     LIG  361   5.137   8.046   7.005  0.1855  0.0999 -0.1141
    1AU    AUSL  362   1.175   8.273   6.401  0.1415  0.1034  0.0809
    1AU    AUSL  363   1.397   8.530   6.086  0.0563  0.0151  0.0024
    1AU     AUL  364   1.224   8.400   6.007  0.0241  0.0597  0.0494
    1AU       S  365   1.581   8.079   5.975  0.1648 -0.1576  0.0684
    1AU     LIG  366   1.937   7.684   5.979 -0.2829 -0.3042 -0.3219
    1AU     LIG  367   2.350   7.604   6.207  0.1365 -0.1397 -0.0019
    1AU     LIG  368   2.682   7.502   6.460 -0.2029 -0.1207 -0.1273
    1AU     LIG  369   2.836   7.696   6.982  0.0843  0.0753 -0.5038
    1AU     LIG  370   3.064   7.432   7.274 -0.2045  0.1438 -0.1156
    1AU     LIG  371   3.210   7.843   7.414  0.1112  0.0003 -0.0472
    1AU       S  372   0.900   8.143   6.089  0.2310  0.2731 -0.2464
    1AU     LIG  373   0.970   7.820   6.324 -0.3068  0.2722  0.3245
    1AU     LIG  374   0.838   7.450   6.660 -0.0750 -0.1205  0.1694
    1AU     LIG  375   0.911   7.151   6.934  0.3988  0.3247  0.1366
    1AU     LIG  376   0.920   7.092   7.374 -0.2825 -0.1507  0.3313
    1AU     LIG  377   0.711   6.744   7.786 -0.1328  0.0119  0.2829
    1AU     LIG  378   0.425   6.681   8.102  0.0544  0.2949 -0.4098
    1AU    AUSL  379   0.986   8.623   6.584  0.0262  0.0860 -0.0415
    1AU    AUSL  380   1.178   8.302   6.817 -0.0049  0.0728  0.0029
    1AU     AUL  381   0.866   8.221   6.595 -0.0221  0.0608 -0.0593
    1AU       S  382   0.927   7.882   6.908  0.4002 -0.0994  0.0526
    1AU     LIG  383   1.229   7.526   7.050  0.1860 -0.0603 -0.1397
    1AU     LIG  384   1.472   7.257   7.310  0.0336 -0.2779  0.0836
    1AU     LIG  385   1.761   6.894   7.290  0.1457 -0.4254  0.2418
    1AU     LIG  386   1.991   6.433   7.496 -0.0457 -0.0165 -0.0229
    1AU     LIG  387   2.018   6.048   7.294 -0.3333  0.1950 -0.2490
    1AU     LIG  388   1.621   5.912   6.923  0.2322 -0.4086 -0.2958
    1AU       S  389   0.778   8.296   6.172  0.2945 -0.2678 -0.2050
    1AU     LIG  390   0.521   7.929   6.295 -0.2931  0.0208  0.1449
    1AU     LIG  391   0.285   7.608   6.628  0.2436  0.0282 -0.2785
    1AU     LIG  392  -0.173   7.633   6.869  0.0091 -0.1002  0.0272
    1AU     LIG  393  -0.589   7.802   6.706  0.2758 -0.2365  0.1323
    1AU     LIG  394  -0.730   8.073   6.283 -0.1835 -0.0809  0.0423
    1AU     LIG  395  -1.121   8.098   5.970  0.1042  0.2362  0.1022
    1AU    AUSL  396   0.710   9.466   7.204 -0.0090  0.0477  0.0730
    1AU    AUSL  397   0.785   9.210   6.779  0.0683  0.0726 -0.0062
    1AU     AUL  398   0.455   9.363   7.101  0.0080  0.0698  0.0190
    1AU       S  399   0.231   8.950   7.006 -0.0482 -0.3194 -0.0203
    1AU     LIG  400   0.027   9.248   7.318 -0.3455 -0.1109 -0.0940
    1AU     LIG  401  -0.154   9.646   7.358  0.4270  0.1169  0.1552
    1AU     LIG  402  -0.464   9.922   7.570 -0.0964 -0.0616  0.2521
    1AU     LIG  403  -0.810  10.150   7.438 -0.0169  0.1462  0.1900
    1AU     LIG  404  -1.162  10.209   7.156  0.0234 -0.0711 -0.2296
    1AU     LIG  405  -1.572  10.006   7.045  0.5644 -0.0310  0.1391
    1AU       S  406   0.560   9.883   7.140  0.2432 -0.0546 -0.2500
    1AU     LIG  407   0.211  10.086   7.319 -0.6253  0.0836 -0.0030
    1AU     LIG  408   0.052  10.420   7.502 -0.1088  0.1803  0.3251
    1AU     LIG  409  -0.359  10.535   7.510 -0.0383 -0.0553  0.1162
    1AU     LIG  410  -0.554  10.912   7.347  0.0911  0.1727  0.2646
    1AU     LIG  411  -0.814  11.272   7.302 -0.2782 -0.0372  0.7619
    1AU     LIG  412  -0.751  11.478   6.849  0.0044 -0.4996 -0.0208
    1AU    AUSL  413   0.639   9.597   6.759 -0.0139  0.0207  0.0724
    1AU    AUSL  414   1.173   9.909   6.691 -0.0242  0.0460  0.0649
    1AU     AUL  415   0.700   9.916   6.554  0.0675 -0.0081 -0.0094
    1AU       S  416   0.495   9.810   6.962  0.0959 -0.1249  0.1587
    1AU     LIG  417   0.288  10.169   6.771  0.1331  0.0840  0.1867
    1AU     LIG  418  -0.129  10.314   6.638  0.1001  0.1072 -0.2728
    1AU     LIG  419  -0.574  10.338   6.573 -0.3502 -0.3090  0.0631
    1AU     LIG  420  -0.914  10.405   6.768 -0.2492  0.0509 -0.1805
    1AU     LIG  421  -1.367  10.595   6.807  0.2282 -0.2696 -0.1191
    1AU     LIG  422  -1.666  10.493   6.465 -0.0096 -0.1603  0.4123
    1AU       S  423   1.075  10.175   6.605  0.2237  0.0975 -0.0820
    1AU     LIG  424   0.729  10.437   6.592 -0.0814  0.1891  0.4285
    1AU     LIG  425   0.414  10.731   6.646 -0.2607  0.0248 -0.0667
    1AU     LIG  426   0.048  10.905   6.570 -0.1807  0.3818 -0.0079
    1AU     LIG  427  -0.229  10.742   6.350 -0.3043  0.0183  0.1771
    1AU     LIG  428  -0.253  10.334   6.069  0.1281  0.0672 -0.0637
    1AU     LIG  429  -0.130   9.884   5.953  0.0597  0.0746  0.1056
    1AU    AUSL  430   1.011   9.680   6.990  0.0578  0.0177  0.0093
    1AU    AUSL  431   1.083   9.286   7.208 -0.0023  0.0745  0.0710
    1AU     AUL  432   0.887   9.685   7.376  0.0566  0.0964  0.0586
    1AU       S  433   1.314   9.561   7.801 -0.1378  0.4438  0.2579
    1AU     LIG  434   1.518   9.966   7.883 -0.1051  0.1008  0.2572
    1AU     LIG  435   1.254  10.341   7.791 -0.0199  0.0150  0.0364
    1AU     LIG  436   1.208  10.649   7.549  0.1618  0.3595  0.0674
    1AU     LIG  437   1.303  10.946   7.240  0.2300  0.3428 -0.1808
    1AU     LIG  438   1.261  11.180   6.817 -0.0384 -0.3770 -0.2970
    1AU     LIG  439   1.238  11.528   6.705 -0.0025 -0.1506 -0.2332
    1AU       S  440   0.809   9.928   7.011 -0.3374 -0.1193 -0.1706
    1AU     LIG  441   0.747  10.372   7.075  0.2805  0.1617 -0.0160
    1AU     LIG  442   0.363  10.512   7.082  0.2699 -0.1065 -0.0140
    1AU     LIG  443  -0.022  10.606   7.008 -0.2014 -0.0427 -0.2950
    1AU     LIG  444  -0.359  10.678   6.942  0.1641 -0.0224 -0.0188
    1AU     LIG  445  -0.676  10.997   6.839 -0.0890 -0.2128 -0.1117
    1AU     LIG  446  -1.067  11.063   6.810  0.0648 -0.1475  0.0801
    1AU    AUSL  447   1.416   8.406   7.168  0.0211  0.0282 -0.0285
    1AU    AUSL  448   1.687   8.749   7.196  0.0634  0.0284 -0.0769
    1AU     AUL  449   1.492   8.317   7.461 -0.0728  0.0712  0.0355
    1AU       S  450   1.657   7.905   7.322  0.3468 -0.5135 -0.0724
    1AU     LIG  451   1.840   7.562   7.555  0.1374  0.2420 -0.2944
    1AU     LIG  452   2.178   7.447   7.806 -0.2971 -0.2598  0.0960
    1AU     LIG  453   2.544   7.207   7.898  0.2003  0.3042  0.0119
    1AU     LIG  454   2.773   6.825   7.885  0.3237  0.3514 -0.1858
    1AU     LIG  455   2.939   6.461   7.599  0.0478 -0.0378  0.0508
    1AU     LIG  456   3.290   6.192   7.692 -0.0937 -0.3655  0.1912
    1AU       S  457   1.921   8.537   7.626 -0.4361 -0.2531  0.0665
    1AU     LIG  458   2.309   8.281   7.592  0.0178 -0.1289 -0.0934
    1AU     LIG  459   2.675   8.074   7.467  0.0687 -0.1887 -0.0909
    1AU     LIG  460   2.928   8.042   7.836 -0.2237  0.2035  0.3867
    1AU     LIG  461   3.390   8.132   7.928 -0.0835  0.0626 -0.0921
    1AU     LIG  462   3.719   7.856   7.736 -0.0118  0.1974 -0.1817
    1AU     LIG  463   4.214   7.910   7.763  0.2249  0.3056  0.0886
    1AU    AUSL  464   1.576   8.194   6.851 -0.0399 -0.0685  0.0021
    1AU    AUSL  465   1.007   8.310   7.207 -0.0400 -0.0491  0.0261
    1AU     AUL  466   1.288   8.090   7.039  0.0467  0.0820  0.0092
    1AU       S  467   1.687   7.859   7.136  0.1475 -0.3280  0.3863
    1AU     LIG  468   1.855   7.493   7.020  0.2293  0.2921  0.1698
    1AU     LIG  469   1.939   6.987   6.866 -0.1145 -0.0324  0.0811
    1AU     LIG  470   2.209   6.828   6.992 -0.0440 -0.0080 -0.1828
    1AU     LIG  471   2.480   6.493   7.364  0.3893  0.0951 -0.1494
    1AU     LIG  472   2.557   6.060   7.373  0.2367 -0.1361  0.1611
    1AU     LIG  473   2.970   5.937   7.428  0.1849 -0.1582 -0.1539
    1AU       S  474   0.865   8.081   7.151 -0.1139 -0.2093 -0.3904
    1AU     LIG  475   1.072   7.902   7.453 -0.1234 -0.0620 -0.0127
    1AU     LIG  476   0.708   7.587   7.536  0.0547  0.0689 -0.1613
    1AU     LIG  477   0.283   7.437   7.509  0.5499 -0.1515 -0.1080
    1AU     LIG  478  -0.025   7.235   7.149 -0.0361  0.0040  0.1620
    1AU     LIG  479  -0.122   6.797   7.198 -0.1079  0.2112 -0.0401
    1AU     LIG  480   0.257   6.499   7.143 -0.5209 -0.2477 -0.2650
    1AU    AUSL  481   1.865   8.383   7.159  0.0552  0.0981 -0.0843
    1AU    AUSL  482   1.779   8.289   6.482 -0.0495 -0.0170 -0.0744
    1AU     AUL  483   1.887   8.115   6.826  0.0225  0.0119  0.0349
    1AU       S  484   1.948   8.022   6.365  0.1073 -0.0719 -0.5107
    1AU     LIG  485   1.944   7.616   6.502 -0.2039  0.1439  0.2870
    1AU     LIG  486   1.769   7.205   6.454  0.0012  0.1370 -0.0790
    1AU     LIG  487   1.721   6.845   6.340  0.2031 -0.2127 -0.1563
    1AU     LIG  488   1.303   6.777   6.206 -0.2929 -0.2413  0.2059
    1AU     LIG  489   0.998   6.513   6.199 -0.2218  0.0452  0.0107
    1AU     LIG  490   1.052   6.263   6.533 -0.2942  0.2264 -0.0605
    1AU       S  491   1.852   8.090   7.285 -0.0744  0.0938  0.1866
    1AU     LIG  492   2.208   7.887   7.369  0.1190  0.2412 -0.2123
    1AU     LIG  493   2.579   7.558   7.422 -0.3464 -0.1606 -0.1750
    1AU     LIG  494   2.627   7.113   7.308 -0.1874 -0.1039  0.0310
    1AU     LIG  495   2.904   6.819   7.214 -0.0953  0.3617 -0.1891
    1AU     LIG  496   3.113   6.733   6.828 -0.1652  0.0567 -0.3616
    1AU     LIG  497   3.370   6.327   6.645 -0.0453 -0.0548 -0.1468
    1AU    AUSL  498   1.237   9.735   6.297 -0.0477  0.0842  0.0040
    1AU    AUSL  499   1.440   9.596   6.754  0.0160 -0.0250 -0.0042
    1AU     AUL  500   1.476   9.917   6.457  0.0114  0.0624 -0.1178
    1AU       S  501   1.077  10.175   6.301  0.0434  0.1319 -0.0307
    1AU     LIG  502   0.960  10.591   6.074 -0.0787 -0.0196  0.0188
    1AU     LIG  503   0.971  10.849   6.451 -0.0543 -0.1840  0.0046
    1AU     LIG  504   0.630  11.210   6.692  0.0336 -0.1436 -0.2843
    1AU     LIG  505   0.415  11.102   7.036  0.0826 -0.3493 -0.4289
    1AU     LIG  506  -0.112  11.068   7.144 -0.1699 -0.4044 -0.0898
    1AU     LIG  507  -0.346  11.359   7.183  0.1348  0.1216 -0.0763
    1AU       S  508   1.896   9.906   6.759 -0.2994  0.1779  0.1156
    1AU     LIG  509   2.027  10.388   7.048 -0.1802 -0.3768  0.0571
    1AU     LIG  510   2.312  10.467   7.394  0.0649 -0.1635  0.0711
    1AU     LIG  511   2.602  10.769   7.668  0.2054  0.0008 -0.2571
    1AU     LIG  512   2.822  11.113   7.709  0.3392 -0.0870  0.1481
    1AU     LIG  513   2.913  11.504   7.781  0.1822  0.2697 -0.1322
    1AU     LIG  514   2.730  11.853   7.500 -0.4216 -0.0567  0.2462
    1AU    AUSL  515   1.007   9.537   6.580  0.0727  0.0439  0.0366
    1AU    AUSL  516   1.251   9.320   6.305  0.0068 -0.0138 -0.0318
    1AU     AUL  517   0.923   9.693   6.223  0.0282  0.0259  0.0731
    1AU       S  518   1.104  10.062   6.672 -0.0725  0.1366  0.2849
    1AU     LIG  519   1.199  10.543   6.861 -0.0342  0.1037  0.3498
    1AU     LIG  520   0.862  10.864   6.960  0.0248 -0.3156 -0.1143
    1AU     LIG  521   0.907  11.336   7.133 -0.1771  0.2023  0.5004
    1AU     LIG  522   1.334  11.434   7.247 -0.1060 -0.1517  0.5821
    1AU     LIG  523   1.283  11.608   7.692  0.0263 -0.0832 -0.0514
    1AU     LIG  524   1.031  11.892   7.938 -0.0120 -0.0508  0.1296
    1AU       S  525   1.129   9.573   5.814  0.0364 -0.0656  0.2486
    1AU     LIG  526   1.151   9.991   5.869  0.0902 -0.2068 -0.0228
    1AU     LIG  527   1.442  10.347   6.070  0.2424 -0.1781 -0.2108
    1AU     LIG  528   1.409  10.640   6.397 -0.1716  0.1361  0.3094
    1AU     LIG  529   1.579  10.801   6.791 -0.0098 -0.0453  0.2385
    1AU     LIG  530   1.735  11.140   7.124  0.2028 -0.0685 -0.3811
    1AU     LIG  531   1.882  11.302   7.500 -0.0326 -0.0560 -0.2278
    1AU    AUSL  532   2.089   8.642   6.470 -0.0276 -0.0917 -0.0623
    1AU    AUSL  533   1.456   8.549   6.519  0.0726  0.0651  0.0352
    1AU     AUL  534   1.841   8.439   6.233  0.0597  0.0211 -0.0040
    1AU       S  535   1.539   8.064   6.158 -0.1111 -0.0595  0.2198
    1AU     LIG  536   1.466   7.613   6.153  0.2979  0.2700  0.1365
    1AU     LIG  537   1.289   7.329   6.507  0.0898  0.0451  0.0304
    1AU     LIG  538   1.473   7.003   6.872 -0.1800  0.0535  0.2331
    1AU     LIG  539   1.320   6.766   7.136 -0.3257 -0.1696  0.1885
    1AU     LIG  540   1.111   6.717   6.689  0.0446  0.0902  0.1221
    1AU     LIG  541   0.915   7.007   6.477 -0.1645 -0.2220  0.3784
    1AU       S  542   2.284   8.329   6.359  0.0837 -0.1766 -0.3615
    1AU     LIG  543   2.612   8.386   6.644 -0.1868  0.1332 -0.3675
    1AU     LIG  544   2.879   8.213   6.991 -0.3274 -0.0097 -0.4083
    1AU     LIG  545   3.318   8.056   7.000 -0.2146 -0.1442  0.2334
    1AU     LIG  546   3.566   7.639   7.054  0.0188  0.1548 -0.0049
    1AU     LIG  547   3.921   7.556   6.807 -0.2988  0.2936 -0.0961
    1AU     LIG  548   4.399   7.811   6.695  0.0318 -0.2503 -0.2776
    1AU    AUSL  549   1.818   8.574   6.798 -0.0757 -0.1327  0.0402
    1AU    AUSL  550   1.873   8.965   6.612  0.0872 -0.0237  0.0631
    1AU     AUL  551   2.144   8.522   6.748  0.0748  0.0136  0.0291
    1AU       S  552   2.140   8.166   6.453  0.2962  0.1850 -0.0797
    1AU     LIG  553   2.585   7.980   6.439 -0.0010 -0.5294  0.1515
    1AU     LIG  554   3.040   7.945   6.571  0.0836  0.1220 -0.2116
    1AU     LIG  555   3.447   7.640   6.507  0.0973 -0.2833 -0.3510
    1AU     LIG  556   3.922   7.618   6.304  0.0882  0.0959  0.0374
    1AU     LIG  557   4.326   7.418   6.293  0.2624  0.3174 -0.3855
    1AU     LIG  558   4.709   7.188   6.218 -0.0527  0.1764  0.2233
    1AU       S  559   2.498   8.840   6.570  0.1562 -0.2544 -0.1804
    1AU     LIG  560   2.965   8.909   6.563  0.1788  0.1144  0.2651
    1AU     LIG  561   3.458   8.855   6.517 -0.0476 -0.2866 -0.2054
    1AU     LIG  562   3.741   9.082   6.677  0.2826 -0.1092  0.0829
    1AU     LIG  563   4.043   9.273   6.854  0.1280 -0.1598 -0.3873
    1AU     LIG  564   4.420   9.152   6.933  0.4785 -0.2747 -0.3207
    1AU     LIG  565   4.896   9.243   7.021 -0.3817 -0.2982  0.0092
    2POPC   NC3  566   8.710   6.062   9.374 -0.4410 -0.3044  0.0200
    2POPC   PO4  567   8.441   5.958   9.030 -0.0900 -0.0487 -0.1916
    2POPC   GL1  568   8.477   5.803   8.617 -0.2295  0.2630 -0.0359
    2POPC   GL2  569   8.588   5.489   8.580 -0.1634 -0.0153 -0.0237
    2POPC   C1A  570   8.753   5.905   8.395 -0.0387  0.1340 -0.0206
    2POPC   D2A  571   8.893   6.000   7.888  0.1207 -0.0503 -0.2786
    2POPC   C3A  572   9.113   6.424   7.867 -0.3038  0.1445 -0.1545
    2POPC   C4A  573   9.130   6.786   7.701  0.1540  0.0930  0.1646
    2POPC   C1B  574   8.524   5.519   8.189  0.0778 -0.1476  0.1821
    2POPC   C2B  575   8.486   5.743   7.768  0.3002 -0.1578  0.0842
    2POPC   C3B  576   8.416   6.073   7.756  0.0027  0.2376  0.2422
    2POPC   C4B  577   8.091   6.372   7.697  0.2217  0.1630  0.0228
    3POPC   NC3  578   4.773   5.270   9.456  0.0172 -0.0241 -0.1330
    3POPC   PO4  579   4.990   5.196   9.137  0.3930 -0.2031 -0.4562
    3POPC   GL1  580   4.890   5.109   8.775  0.1017  0.0518 -0.0198
    3POPC   GL2  581   4.688   5.281   8.621 -0.0407  0.1279  0.1519
    3POPC   C1A  582   4.570   4.829   8.600  0.0879 -0.0619  0.0276
    3POPC   D2A  583   4.472   4.717   8.249 -0.1356  0.1910 -0.4070
    3POPC   C3A  584   4.338   4.917   7.910 -0.4839 -0.2660  0.0292
    3POPC   C4A  585   4.083   4.995   7.612 -0.2632 -0.2798  0.1287
    3POPC   C1B  586   4.616   5.513   8.201  0.3055 -0.2381  0.3109
    3POPC   C2B  587   4.573   5.863   7.916 -0.1093  0.3068 -0.0249
    3POPC   C3B  588   4.265   5.953   7.669  0.0587  0.2353 -0.1372
    3POPC   C4B  589   3.779   6.063   7.496  0.3332  0.1576  0.1983
    4POPC   NC3  590   3.101   8.061  10.002 -0.1951  0.2351 -0.0252
    4POPC   PO4  591   2.746   7.971   9.723 -0.3306 -0.0289  0.0028
    4POPC   GL1  592   2.711   7.626   9.419  0.0187  0.0352 -0.1636
    4POPC   GL2  593   2.638   7.882   9.188 -0.1081 -0.0324  0.2330
    4POPC   C1A  594   2.733   7.399   9.015  0.0412 -0.0954 -0.0070
    4POPC   D2A  595   3.014   7.355   8.763 -0.1481  0.0262  0.2295
    4POPC   C3A  596   3.210   7.681   8.433  0.3097 -0.2917 -0.1680
    4POPC   C4A  597   3.590   7.719   8.253 -0.3517  0.2715 -0.1527
    4POPC   C1B  598   2.379   7.680   8.994  0.3183 -0.2027  0.1193
    4POPC   C2B  599   2.337   7.341   8.622  0.0611 -0.0575  0.1254
    4POPC   C3B  600   1.972   7.345   8.308  0.3821 -0.0234 -0.0877
    4POPC   C4B  601   1.747   7.214   7.931 -0.1638 -0.0444  0.2587
    5POPC   NC3  602   7.310   6.509   9.642 -0.0787 -0.3308  0.0746
    5POPC   PO4  603   7.456   6.268   9.203  0.0053 -0.0329 -0.1627
    5POPC   GL1  604   7.607   5.999   8.879 -0.2631  0.0975  0.1255
    5POPC   GL2  605   7.530   5.745   8.826 -0.1499  0.1942 -0.2369
    5POPC   C1A  606   7.963   6.006   8.593 -0.1115  0.1276  0.2640
    5POPC   D2A  607   8.144   6.171   8.179 -0.1711 -0.4256  0.0948
    5POPC   C3A  608   8.228   6.586   8.081  0.1389 -0.0150 -0.1757
    5POPC   C4A  609   8.636   6.814   7.967  0.0868  0.2210 -0.0488
    5POPC   C1B  610   7.518   5.588   8.482  0.0116  0.3553  0.2612
    5POPC   C2B  611   7.459   5.570   8.069  0.4659  0.3768  0.0556
    5POPC   C3B  612   7.255   5.142   7.992 -0.3464 -0.0995  0.3122
    5POPC   C4B  613   7.239   4.833   8.195  0.3184 -0.2143  0.1066
    6POPC   NC3  614   5.039   8.642   9.079 -0.0255 -0.0643  0.0007
    6POPC   PO4  615   5.048   8.200   9.414 -0.5301  0.1336 -0.0228
    6POPC   GL1  616   4.812   8.109   8.965  0.0030 -0.2150 -0.1492
    6POPC   GL2  617   4.527   8.316   8.956 -0.1634 -0.1308 -0.2506
    6POPC   C1A  618   4.855   8.310   8.537 -0.1283  0.0956  0.0820
    6POPC   D2A  619   5.042   8.262   8.140 -0.1745 -0.1430  0.0905
    6POPC   C3A  620   5.254   7.937   7.778 -0.0319  0.0491  0.0956
    6POPC   C4A  621   5.270   7.705   7.476 -0.4530  0.1520 -0.2410
    6POPC   C1B  622   4.320   8.452   8.494 -0.2650 -0.1125  0.0613
    6POPC   C2B  623   4.180   8.611   8.130  0.0479 -0.1159 -0.1836
    6POPC   C3B  624   4.245   8.973   7.884  0.1037 -0.0644 -0.0236
    6POPC   C4B  625   3.985   9.344   7.925 -0.0144 -0.1994  0.2695
    7POPC   NC3  626   6.342   2.356   9.029  0.0350 -0.0716  0.1503
    7POPC   PO4  627   6.865   2.282   9.149  0.0401  0.0402 -0.2824
    7POPC   GL1  628   6.760   2.316   8.734 -0.1057  0.1241  0.0424
    7POPC   GL2  629   6.984   2.591   8.678  0.3812 -0.2236  0.2086
    7POPC   C1A  630   6.860   2.108   8.405  0.1862  0.2941 -0.0147
    7POPC   D2A  631   6.614   2.002   8.038 -0.2696  0.0838  0.0884
    7POPC   C3A  632   6.569   1.586   7.866 -0.1633 -0.2059 -0.1385
    7POPC   C4A  633   6.864   1.330   7.715  0.2364  0.2775 -0.2839
    7POPC   C1B  634   7.276   2.572   8.320  0.1134 -0.2595  0.1911
    7POPC   C2B  635   7.509   2.413   8.023 -0.0411 -0.2080 -0.1356
    7POPC   C3B  636   7.632   2.627   7.642  0.2329 -0.0635 -0.1443
    7POPC   C4B  637   7.890   2.768   7.446  0.2479 -0.1190 -0.0087
    8POPC   NC3  638   2.196  10.021  10.517 -0.0598 -0.2772 -0.1094
    8POPC   PO4  639   2.449  10.160  10.120 -0.0922 -0.1413  0.1464
    8POPC   GL1  640   2.361  10.035   9.668 -0.0762  0.2919  0.2963
    8POPC   GL2  641   2.128  10.024   9.454 -0.0526 -0.0480 -0.0437
    8POPC   C1A  642   2.585   9.977   9.293  0.3243  0.1079  0.1205
    8POPC   D2A  643   2.714   9.721   9.026 -0.0357  0.1058  0.0265
    8POPC   C3A  644   3.025   9.768   8.645 -0.2473 -0.1056 -0.1499
    8POPC   C4A  645   3.348   9.561   8.370  0.1633 -0.0386 -0.1255
    8POPC   C1B  646   2.004   9.940   8.929 -0.4172  0.1369  0.1831
    8POPC   C2B  647   1.843   9.998   8.513 -0.1801  0.0924  0.2422
    8POPC   C3B  648   1.794  10.293   8.269  0.1363 -0.2554  0.2370
    8POPC   C4B  649   1.645  10.598   7.973  0.1805 -0.1727  0.1251
    9POPC   NC3  650   3.832   1.039   9.555 -0.2248 -0.1773  0.3245
    9POPC   PO4  651   3.950   1.018   9.149 -0.1011 -0.1465 -0.0416
    9POPC   GL1  652   3.703   1.055   8.727  0.2473  0.0320  0.2179
    9POPC   GL2  653   3.575   1.371   8.882  0.1705 -0.1050  0.0274
    9POPC   C1A  654   3.488   1.051   8.391  0.0600 -0.0817 -0.2367
    9POPC   D2A  655   3.236   1.139   8.048  0.2625  0.1136 -0.2030
    9POPC   C3A  656   3.342   1.135   7.610 -0.0933 -0.1263 -0.2100
    9POPC   C4A  657   3.366   0.905   7.270  0.1730  0.2062 -0.1353
    9POPC   C1B  658   3.199   1.441   8.657 -0.0671 -0.1959 -0.2431
    9POPC   C2B  659   2.744   1.640   8.619  0.0329  0.2708  0.3330
    9POPC   C3B  660   2.322   1.496   8.341 -0.2031  0.0243 -0.0504
    9POPC   C4B  661   1.867   1.473   8.505  0.0320  0.1604  0.0154
   10POPC   NC3  662   8.226   8.361   9.184 -0.0075 -0.1289  0.2160
   10POPC   PO4  663   8.268   8.857   9.054 -0.0445  0.0354 -0.3342
   10POPC   GL1  664   8.581   8.750   8.704 -0.2693  0.2091  0.1854
   10POPC   GL2  665   8.627   8.368   8.706 -0.1171 -0.1798 -0.2235
   10POPC   C1A  666   8.914   8.705   8.416  0.4747  0.2097 -0.1481
   10POPC   D2A  667   9.250   8.769   8.459  0.0597  0.0883 -0.1880
   10POPC   C3A  668   9.507   9.041   8.764 -0.1770  0.0257 -0.4991
   10POPC   C4A  669   9.753   9.119   9.076 -0.1690  0.3041  0.1338
   10POPC   C1B  670   8.404   8.438   8.265  0.2639  0.3579 -0.0026
   10POPC   C2B  671   8.192   8.211   7.912 -0.2472  0.2024 -0.1565
   10POPC   C3B  672   7.966   8.356   7.512  0.5634 -0.1041  0.0266
   10POPC   C4B  673   7.965   8.121   7.191 -0.4749  0.0623 -0.0522
   11POPC   NC3  674   2.435   8.234  10.538 -0.0054 -0.0811 -0.1134
   11POPC   PO4  675   2.112   8.180  10.404 -0.2008 -0.1122 -0.3560
   11POPC   GL1  676   1.940   8.344  10.014  0.2149 -0.0683  0.3296
   11POPC   GL2  677   1.571   8.428   9.994 -0.2383 -0.2709 -0.1353
   11POPC   C1A  678   2.051   8.680   9.660 -0.1765  0.0154  0.0166
   11POPC   D2A  679   2.181   8.666   9.313 -0.1982 -0.1090  0.1446
   11POPC   C3A  680   2.048   8.865   8.965  0.0486 -0.1233  0.0576
   11POPC   C4A  681   1.836   9.262   8.943  0.1296 -0.4236  0.0706
   11POPC   C1B  682   1.661   8.182   9.618  0.3071  0.1560 -0.2156
   11POPC   C2B  683   1.663   7.972   9.264 -0.3174  0.3883  0.0571
   11POPC   C3B  684   1.418   7.749   8.968 -0.3172  0.0237 -0.0448
   11POPC   C4B  685   1.009   7.917   8.784  0.1000 -0.2035  0.0350
   12POPC   NC3  686   8.981   7.914   8.985  0.0736 -0.1421 -0.1545
   12POPC   PO4  687   8.629   8.081   9.271  0.2114 -0.0383  0.2198
   12POPC   GL1  688   8.517   7.907   8.813 -0.0628  0.1514  0.0447
   12POPC   GL2  689   8.488   7.589   8.758 -0.4783 -0.1408  0.0320
   12POPC   C1A  690   8.486   7.969   8.404 -0.0942  0.1130 -0.1427
   12POPC   D2A  691   8.374   7.742   7.972 -0.2954 -0.2440 -0.3120
   12POPC   C3A  692   7.996   7.785   7.757 -0.1604  0.0469 -0.0754
   12POPC   C4A  693   7.618   7.909   7.572  0.0969  0.2301 -0.2043
   12POPC   C1B  694   8.528   7.410   8.364  0.1207 -0.0183  0.0324
   12POPC   C2B  695   8.547   7.313   7.884 -0.1684  0.2071 -0.1818
   12POPC   C3B  696   8.391   7.443   7.450 -0.0217  0.2440  0.1383
   12POPC   C4B  697   8.235   7.715   6.950 -0.2191  0.1278 -0.2002
   13POPC   NC3  698   4.255   3.654   9.180  0.2154 -0.3727 -0.0898
   13POPC   PO4  699   4.721   3.559   9.029  0.0948  0.0261  0.1143
   13POPC   GL1  700   4.867   3.528   8.611  0.1423  0.0960 -0.0589
   13POPC   GL2  701   5.008   3.797   8.559  0.1532 -0.1533  0.0271
   13POPC   C1A  702   4.871   3.543   8.169  0.3692  0.1326 -0.3088
   13POPC   D2A  703   4.974   3.154   7.889 -0.1114 -0.0659  0.0879
   13POPC   C3A  704   4.930   3.391   7.493  0.6150  0.0937 -0.2934
   13POPC   C4A  705   4.739   3.663   7.257 -0.1282 -0.0103 -0.2220
   13POPC   C1B  706   5.193   4.209   8.409  0.1822 -0.1199  0.3893
   13POPC   C2B  707   5.514   4.301   7.999  0.1652  0.0007  0.2172
   13POPC   C3B  708   5.745   4.438   7.688 -0.0954 -0.0261 -0.1741
   13POPC   C4B  709   6.102   4.549   7.425 -0.1742 -0.0676  0.1772
   14POPC   NC3  710   9.912   7.428   9.515 -0.0536  0.2710  0.0190
   14POPC   PO4  711  10.259   7.770   9.476  0.0210  0.2594  0.3183
   14POPC   GL1  712  10.263   7.579   9.144  0.0792 -0.1061  0.1120
   14POPC   GL2  713   9.972   7.656   8.933  0.3568  0.1402 -0.0998
   14POPC   C1A  714  10.281   7.217   8.901 -0.1638  0.0535 -0.1488
   14POPC   D2A  715  10.598   7.013   8.688  0.1156  0.2400 -0.3002
   14POPC   C3A  716  10.840   7.057   8.379  0.4175  0.0794  0.2009
   14POPC   C4A  717  11.230   7.075   8.296  0.1375 -0.2745  0.0005
   14POPC   C1B  718  10.283   7.890   8.732  0.1390  0.1780  0.2201
   14POPC   C2B  719  10.630   8.118   8.420 -0.1567 -0.0973 -0.0154
   14POPC   C3B  720  11.055   8.045   8.346  0.1138 -0.2068  0.1017
   14POPC   C4B  721  11.464   7.942   8.351 -0.0026 -0.1880  0.0181
   15POPC   NC3  722   4.227   6.669  10.047 -0.0923  0.0394 -0.3217
   15POPC   PO4  723   4.299   6.694   9.553 -0.1730 -0.1326 -0.0582
   15POPC   GL1  724   4.083   6.716   9.149  0.0553  0.1120  0.2859
   15POPC   GL2  725   4.049   6.463   8.843 -0.0269 -0.0021 -0.0011
   15POPC   C1A  726   3.807   6.927   8.829 -0.2821 -0.2645 -0.1044
   15POPC   D2A  727   3.929   7.163   8.433 -0.1143 -0.2400  0.1343
   15POPC   C3A  728   4.315   7.196   8.136  0.6087  0.2860 -0.1675
   15POPC   C4A  729   4.716   7.282   8.264  0.2184  0.0293 -0.3408
   15POPC   C1B  730   4.042   6.682   8.401  0.0483 -0.1356 -0.0024
   15POPC   C2B  731   3.803   6.937   8.050  0.0632 -0.3380  0.1622
   15POPC   C3B  732   3.660   7.093   7.663  0.1770  0.3520  0.2605
   15POPC   C4B  733   3.443   7.459   7.565 -0.2858 -0.0927 -0.3204
   16POPC   NC3  734   5.760   6.900   8.990  0.2901 -0.0074  0.6132
   16POPC   PO4  735   5.720   6.415   8.934 -0.1229 -0.3345  0.0310
   16POPC   GL1  736   6.054   6.548   8.652  0.0442 -0.1296 -0.1179
   16POPC   GL2  737   6.151   6.897   8.593 -0.0447 -0.0109 -0.2402
   16POPC   C1A  738   6.231   6.412   8.188 -0.0394  0.1387  0.1306
   16POPC   D2A  739   6.261   6.180   7.793 -0.1406 -0.1202 -0.1125
   16POPC   C3A  740   6.196   5.792   7.673 -0.0857 -0.0507 -0.0437
   16POPC   C4A  741   5.879   5.484   7.827 -0.0808 -0.2902  0.0206
   16POPC   C1B  742   6.169   6.900   8.055 -0.1659  0.1007 -0.0699
   16POPC   C2B  743   5.996   7.194   7.769 -0.0525  0.4057 -0.0886
   16POPC   C3B  744   5.562   7.371   7.807 -0.0927  0.1591 -0.0330
   16POPC   C4B  745   5.393   7.595   8.135 -0.0062  0.3259  0.0271
   17POPC   NC3  746   2.804   2.495   9.362 -0.0968 -0.2195 -0.4731
   17POPC   PO4  747   3.169   2.483   9.216 -0.0620 -0.2971 -0.2403
   17POPC   GL1  748   3.301   2.285   8.864 -0.0674  0.0563 -0.1702
   17POPC   GL2  749   3.337   2.622   8.746  0.0752  0.1704 -0.0460
   17POPC   C1A  750   3.430   1.908   8.628 -0.0362 -0.0359  0.1466
   17POPC   D2A  751   3.602   1.526   8.399 -0.4155 -0.0281 -0.1413
   17POPC   C3A  752   3.528   1.654   7.933  0.3295 -0.1635 -0.0821
   17POPC   C4A  753   3.668   2.008   7.682  0.1404  0.2024 -0.0937
   17POPC   C1B  754   3.719   2.622   8.404  0.0896 -0.0296 -0.2086
   17POPC   C2B  755   3.951   2.568   8.005  0.1840 -0.1660  0.0606
   17POPC   C3B  756   3.935   2.450   7.646  0.1438 -0.0352  0.1158
   17POPC   C4B  757   3.958   2.145   7.230  0.0314  0.2713 -0.1358
   18POPC   NC3  758   3.178   7.727   9.584 -0.1133 -0.1690 -0.4858
   18POPC   PO4  759   3.520   8.052   9.676  0.1443 -0.3905  0.2348
   18POPC   GL1  760   3.538   8.426   9.345  0.1429 -0.1671  0.1052
   18POPC   GL2  761   3.309   8.693   9.341  0.2161  0.1241 -0.0676
   18POPC   C1A  762   3.511   8.303   8.920  0.2161  0.0851  0.0348
   18POPC   D2A  763   3.413   8.130   8.497 -0.0084 -0.3341  0.2138
   18POPC   C3A  764   3.009   8.179   8.389  0.4695 -0.2296 -0.0063
   18POPC   C4A  765   2.706   8.442   8.109  0.0276 -0.0655 -0.2497
   18POPC   C1B  766   3.134   8.703   8.882  0.0707 -0.5047 -0.1258
   18POPC   C2B  767   2.965   8.753   8.495 -0.1173  0.1886 -0.0724
   18POPC   C3B  768   2.533   8.845   8.195  0.4354 -0.1462 -0.0341
   18POPC   C4B  769   2.235   8.689   7.974  0.2540 -0.0841  0.4268
   19POPC   NC3  770   9.293   6.332   9.063 -0.0781  0.1544 -0.0655
   19POPC   PO4  771   9.689   6.576   9.141 -0.0346 -0.0865 -0.0658
   19POPC   GL1  772   9.584   6.678   8.771  0.1565 -0.2392 -0.2287
   19POPC   GL2  773   9.700   7.007   8.661  0.0219  0.4799 -0.3537
   19POPC   C1A  774   9.372   6.877   8.317 -0.1928 -0.1197  0.1600
   19POPC   D2A  775   9.657   6.737   7.861  0.0475  0.2887 -0.0221
   19POPC   C3A  776   9.987   6.860   7.722 -0.0585 -0.1497  0.3377
   19POPC   C4A  777  10.404   6.881   7.608 -0.2033 -0.0246  0.1277
   19POPC   C1B  778   9.880   6.671   8.334  0.0162 -0.3346 -0.0982
   19POPC   C2B  779  10.076   6.502   8.065 -0.0405 -0.1740 -0.1833
   19POPC   C3B  780  10.255   6.416   7.644  0.2773  0.0497  0.0528
   19POPC   C4B  781  10.329   6.082   7.442  0.1325  0.2853 -0.1667
   20POPC   NC3  782   7.293   8.819   9.106 -0.3388  0.1917 -0.2990
   20POPC   PO4  783   6.948   8.723   8.815 -0.1241 -0.1632  0.0212
   20POPC   GL1  784   6.828   8.826   8.404 -0.3749  0.0578 -0.1213
   20POPC   GL2  785   6.965   9.116   8.329 -0.1850  0.0805  0.0457
   20POPC   C1A  786   6.946   8.624   8.024  0.3437 -0.2483 -0.0160
   20POPC   D2A  787   6.841   8.549   7.581 -0.2024  0.0633  0.2023
   20POPC   C3A  788   6.626   8.360   7.231 -0.2032 -0.2477 -0.1751
   20POPC   C4A  789   6.460   8.194   6.831  0.0827 -0.2038 -0.0985
   20POPC   C1B  790   7.161   9.036   7.946 -0.4258  0.2913 -0.0137
   20POPC   C2B  791   7.406   9.014   7.397 -0.0371  0.0590  0.5108
   20POPC   C3B  792   7.197   9.045   6.959  0.1259 -0.1762 -0.2913
   20POPC   C4B  793   7.235   9.001   6.609 -0.0813  0.0715 -0.0357
   21POPC   NC3  794   7.334   9.184   8.656 -0.2066 -0.2475  0.2515
   21POPC   PO4  795   7.656   8.919   8.620 -0.0431 -0.0631 -0.0600
   21POPC   GL1  796   7.819   8.991   8.235  0.1060  0.0023  0.0364
   21POPC   GL2  797   7.866   9.340   8.240  0.0501 -0.0653 -0.1833
   21POPC   C1A  798   7.724   9.002   7.827 -0.1110  0.1009  0.0445
   21POPC   D2A  799   7.968   9.063   7.384 -0.2566  0.0842  0.3401
   21POPC   C3A  800   8.414   9.028   7.513 -0.0902  0.2723  0.0157
   21POPC   C4A  801   8.847   8.835   7.270 -0.1992 -0.1003  0.2071
   21POPC   C1B  802   8.252   9.326   7.973  0.0875 -0.1094 -0.0302
   21POPC   C2B  803   8.567   9.483   7.895  0.0245 -0.2604 -0.1596
   21POPC   C3B  804   8.951   9.274   7.691  0.0865  0.0890 -0.1487
   21POPC   C4B  805   9.217   9.022   7.498 -0.2028  0.1996 -0.0783
   22POPC   NC3  806   9.120   2.212   9.290  0.0627  0.0222  0.2856
   22POPC   PO4  807   8.754   2.427   9.412 -0.0553  0.1560 -0.0441
   22POPC   GL1  808   8.713   2.252   8.971  0.1005  0.1294 -0.1112
   22POPC   GL2  809   8.922   2.396   8.722 -0.1157 -0.3127 -0.2077
   22POPC   C1A  810   8.483   2.186   8.573 -0.1222  0.1371 -0.0462
   22POPC   D2A  811   8.427   2.137   8.077  0.1587  0.4970  0.0405
   22POPC   C3A  812   8.335   1.750   7.818 -0.0172 -0.1810  0.1994
   22POPC   C4A  813   8.423   1.545   7.524 -0.3330 -0.0411 -0.0466
   22POPC   C1B  814   8.927   2.046   8.408 -0.0160  0.3162  0.3370
   22POPC   C2B  815   9.049   2.101   7.955  0.2018 -0.0666 -0.0283
   22POPC   C3B  816   9.227   2.248   7.585  0.2745 -0.2768  0.0829
   22POPC   C4B  817   9.680   2.215   7.600  0.0644 -0.0400 -0.2315
   23POPC   NC3  818   8.104   9.208   9.372 -0.2374  0.1461  0.0167
   23POPC   PO4  819   8.144   9.603   8.958  0.2896  0.0678 -0.0436
   23POPC   GL1  820   8.260   9.805   8.650 -0.0937  0.4213  0.0784
   23POPC   GL2  821   8.579  10.107   8.671 -0.3120  0.2062  0.1170
   23POPC   C1A  822   8.071   9.829   8.229  0.1501  0.0286  0.2483
   23POPC   D2A  823   8.268   9.908   7.867 -0.0225 -0.0960 -0.2480
   23POPC   C3A  824   8.363  10.053   7.510 -0.0948 -0.0055 -0.0810
   23POPC   C4A  825   8.492  10.439   7.309  0.0060 -0.0885 -0.0049
   23POPC   C1B  826   8.575   9.885   8.299  0.0186  0.0040  0.1275
   23POPC   C2B  827   8.775   9.937   7.861  0.0582  0.1593 -0.2199
   23POPC   C3B  828   8.774   9.815   7.494  0.2399  0.1366 -0.0768
   23POPC   C4B  829   8.393   9.583   7.353 -0.0495  0.0125  0.1501
   24POPC   NC3  830   9.260   7.133   9.104  0.2620  0.1968  0.2287
   24POPC   PO4  831   8.948   7.375   9.051  0.4435  0.0805  0.0262
   24POPC   GL1  832   9.000   7.349   8.658  0.1379  0.1528  0.0116
   24POPC   GL2  833   8.947   7.662   8.482 -0.3137 -0.0998  0.2370
   24POPC   C1A  834   9.458   7.410   8.402 -0.0856  0.0560  0.0215
   24POPC   D2A  835   9.739   7.165   8.164 -0.0078 -0.2667 -0.1703
   24POPC   C3A  836   9.595   7.183   7.797 -0.1009  0.3887  0.3102
   24POPC   C4A  837   9.871   7.343   7.535  0.3325  0.1751 -0.0382
   24POPC   C1B  838   8.854   7.736   8.124 -0.1093  0.0998 -0.0320
   24POPC   C2B  839   8.789   7.695   7.709 -0.0679 -0.0546 -0.0562
   24POPC   C3B  840   8.835   7.706   7.267 -0.0536 -0.0839  0.1807
   24POPC   C4B  841   8.624   8.034   6.949  0.2838  0.1659  0.0865
   25POPC   NC3  842   5.988   5.079   9.037 -0.1199  0.0032  0.4478
   25POPC   PO4  843   5.915   5.444   8.986  0.0783  0.1857 -0.4007
   25POPC   GL1  844   5.787   5.315   8.666  0.2401 -0.4824 -0.1067
   25POPC   GL2  845   5.471   5.498   8.747 -0.2785 -0.0725  0.1389
   25POPC   C1A  846   5.712   5.443   8.281 -0.1773 -0.3708  0.2646
   25POPC   D2A  847   5.456   5.679   8.090  0.1080  0.0840 -0.0926
   25POPC   C3A  848   5.048   5.629   7.916 -0.2185 -0.2563  0.2808
   25POPC   C4A  849   4.906   5.566   7.538 -0.1939  0.0307  0.0282
   25POPC   C1B  850   5.177   5.462   8.508 -0.1324 -0.0516  0.2112
   25POPC   C2B  851   5.046   5.213   8.151 -0.2151  0.0310 -0.0748
   25POPC   C3B  852   4.854   5.017   7.835 -0.0111 -0.1009 -0.2686
   25POPC   C4B  853   4.784   4.675   7.567  0.0996 -0.2732  0.1830
   26POPC   NC3  854   9.182   8.446   9.684 -0.1960  0.0133  0.1001
   26POPC   PO4  855   9.136   8.333   9.291 -0.1768  0.3570  0.1880
   26POPC   GL1  856   9.468   8.059   8.930  0.1439 -0.0974  0.2322
   26POPC   GL2  857   9.379   7.917   8.560  0.1472  0.1233 -0.0522
   26POPC   C1A  858   9.860   8.094   8.611  0.1174 -0.3128  0.2079
   26POPC   D2A  859  10.102   8.195   8.321  0.1500  0.1491 -0.2026
   26POPC   C3A  860  10.223   7.890   8.172  0.1760  0.1537  0.4820
   26POPC   C4A  861  10.081   7.527   7.952  0.2294 -0.0204 -0.2124
   26POPC   C1B  862   9.042   8.203   8.390 -0.0566  0.1638 -0.0486
   26POPC   C2B  863   8.854   8.333   8.075 -0.0931  0.0805 -0.2878
   26POPC   C3B  864   8.694   8.200   7.722  0.0653 -0.1499 -0.3688
   26POPC   C4B  865   8.424   7.952   7.540  0.0797  0.0801  0.2180
   27POPC   NC3  866   3.092   3.283   9.678 -0.2613  0.1803  0.2738
   27POPC   PO4  867   2.790   3.005   9.518 -0.2269  0.0379  0.0895
   27POPC   GL1  868   2.819   2.909   9.084  0.1837  0.2436  0.1587
   27POPC   GL2  869   2.678   3.165   8.904  0.0966  0.1192 -0.1236
   27POPC   C1A  870   2.911   2.695   8.608  0.0447 -0.0978  0.2896
   27POPC   D2A  871   2.929   2.844   8.195  0.2591 -0.2266  0.2252
   27POPC   C3A  872   2.898   2.631   7.907 -0.2363  0.1829 -0.1970
   27POPC   C4A  873   2.750   2.556   7.509 -0.1974  0.1872  0.0424
   27POPC   C1B  874   2.840   3.229   8.507 -0.2085  0.3193  0.1718
   27POPC   C2B  875   3.030   3.410   8.175 -0.0397  0.0586 -0.1555
   27POPC   C3B  876   2.957   3.623   7.848  0.0625 -0.1949 -0.2321
   27POPC   C4B  877   2.789   3.506   7.498 -0.0407 -0.0721  0.0070
   28POPC   NC3  878   9.925   0.630   9.810 -0.0610  0.0610 -0.0285
   28POPC   PO4  879  10.270   0.265   9.905  0.0737  0.1151  0.0853
   28POPC   GL1  880  10.462   0.282   9.547  0.1482  0.0310  0.0859
   28POPC   GL2  881  10.258   0.522   9.409 -0.0285  0.3158 -0.1220
   28POPC   C1A  882  10.769   0.079   9.346  0.1182 -0.2831  0.0753
   28POPC   D2A  883  11.078   0.135   9.013 -0.0227 -0.1824 -0.1888
   28POPC   C3A  884  11.035  -0.050   8.635  0.1615 -0.1001  0.2654
   28POPC   C4A  885  11.124  -0.375   8.292  0.0370 -0.0759 -0.1231
   28POPC   C1B  886  10.261   0.153   9.136 -0.2677  0.2719  0.5918
   28POPC   C2B  887  10.586  -0.010   8.837 -0.0720 -0.0539 -0.0617
   28POPC   C3B  888  10.469  -0.321   8.533  0.1418 -0.0144  0.1848
   28POPC   C4B  889  10.260  -0.608   8.736 -0.2958 -0.0434 -0.2078
   29POPC   NC3  890   2.191   8.741  10.721  0.1662  0.1609  0.2383
   29POPC   PO4  891   1.881   8.735  10.449 -0.2137 -0.5613  0.0927
   29POPC   GL1  892   1.824   8.956  10.100  0.2505 -0.1963 -0.0829
   29POPC   GL2  893   1.472   9.067  10.082  0.1600  0.0552 -0.2871
   29POPC   C1A  894   1.870   9.171   9.710  0.0143  0.1837 -0.2205
   29POPC   D2A  895   1.948   9.152   9.394 -0.0254 -0.1366  0.0497
   29POPC   C3A  896   2.419   9.137   9.213  0.3164 -0.1011  0.0259
   29POPC   C4A  897   2.591   8.870   8.982  0.2355  0.1058  0.0823
   29POPC   C1B  898   1.440   9.281   9.637  0.0497 -0.0819 -0.0754
   29POPC   C2B  899   1.451   9.415   9.222  0.5054  0.0742  0.2446
   29POPC   C3B  900   1.491   9.712   8.731 -0.0559  0.1724  0.1323
   29POPC   C4B  901   1.518   9.611   8.308 -0.1258 -0.0647 -0.2035
   30POPC   NC3  902   0.095   2.748   9.312  0.1944 -0.0804 -0.2501
   30POPC   PO4  903   0.147   2.355   9.309  0.1167 -0.0871 -0.2789
   30POPC   GL1  904   0.456   2.384   9.142 -0.0949 -0.0622  0.1591
   30POPC   GL2  905   0.482   2.728   9.031  0.1043 -0.1438  0.1640
   30POPC   C1A  906   0.521   2.208   8.730 -0.0176  0.0639 -0.0426
   30POPC   D2A  907   0.754   1.974   8.442 -0.0575 -0.0761  0.0814
   30POPC   C3A  908   0.539   2.021   8.019 -0.0307  0.0668 -0.2813
   30POPC   C4A  909   0.618   1.988   7.612 -0.0621  0.3250  0.1607
   30POPC   C1B  910   0.561   2.725   8.578 -0.0200  0.0864 -0.0493
   30POPC   C2B  911   0.675   2.948   8.187  0.2050 -0.2176 -0.2741
   30POPC   C3B  912   0.661   2.836   7.746  0.2367  0.2010  0.0400
   30POPC   C4B  913   0.489   2.883   7.408  0.2941 -0.0737 -0.2702
   31POPC   NC3  914   5.720   2.651   9.026 -0.3026 -0.4765 -0.1052
   31POPC   PO4  915   6.021   2.882   8.850  0.1440  0.0322  0.0426
   31POPC   GL1  916   5.883   3.101   8.522 -0.0425  0.1065 -0.2220
   31POPC   GL2  917   6.270   3.231   8.425 -0.1591 -0.2308 -0.2877
   31POPC   C1A  918   5.934   3.064   8.123 -0.0014 -0.5134 -0.0482
   31POPC   D2A  919   5.940   3.066   7.736  0.1077 -0.0815  0.2185
   31POPC   C3A  920   6.218   2.828   7.463  0.4602 -0.1641  0.0103
   31POPC   C4A  921   6.618   2.903   7.329 -0.0397 -0.3487 -0.1252
   31POPC   C1B  922   6.208   3.519   8.239  0.1261 -0.1535  0.3397
   31POPC   C2B  923   5.928   3.546   7.809 -0.0699  0.1883 -0.4763
   31POPC   C3B  924   5.624   3.776   7.592  0.0022  0.0055 -0.1754
   31POPC   C4B  925   5.386   4.136   7.500 -0.2575  0.1619 -0.1694
   32POPC   NC3  926   8.643   6.749   9.579 -0.3665 -0.0344 -0.0901
   32POPC   PO4  927   8.974   6.732   9.297 -0.0847  0.0631 -0.0222
   32POPC   GL1  928   9.004   6.794   8.801 -0.0515  0.0358  0.2852
   32POPC   GL2  929   8.809   6.554   8.558 -0.1098 -0.1036 -0.1720
   32POPC   C1A  930   8.849   7.034   8.343 -0.2236 -0.1957  0.0392
   32POPC   D2A  931   9.058   7.187   8.014 -0.2344  0.0149  0.3476
   32POPC   C3A  932   9.317   7.584   7.968  0.3794 -0.0720  0.0535
   32POPC   C4A  933   9.617   7.777   7.742 -0.1851  0.0120  0.1808
   32POPC   C1B  934   9.163   6.413   8.393 -0.0070  0.0494  0.0960
   32POPC   C2B  935   9.528   6.404   8.228  0.0578 -0.0048  0.2636
   32POPC   C3B  936   9.739   6.172   7.883  0.2878  0.0843  0.0911
   32POPC   C4B  937   9.808   5.958   7.558  0.1676 -0.0233  0.0803
   33POPC   NC3  938   5.294   8.780   9.657 -0.3346 -0.0451 -0.0668
   33POPC   PO4  939   5.333   9.021   9.269 -0.3276 -0.2540  0.0891
   33POPC   GL1  940   5.261   9.415   9.001 -0.0790  0.2935  0.0800
   33POPC   GL2  941   5.422   9.469   8.635 -0.0575 -0.0391  0.0703
   33POPC   C1A  942   4.929   9.604   8.728  0.1792 -0.0704 -0.0089
   33POPC   D2A  943   4.748   9.727   8.365 -0.0526 -0.0583 -0.0016
   33POPC   C3A  944   5.053   9.910   8.190 -0.2086  0.0374  0.1018
   33POPC   C4A  945   5.309   9.902   7.860 -0.0033  0.0446  0.0645
   33POPC   C1B  946   5.541   9.514   8.207 -0.1835 -0.1474 -0.4562
   33POPC   C2B  947   5.505   9.368   7.730  0.0153  0.4488  0.0568
   33POPC   C3B  948   5.559   9.283   7.421  0.1707  0.0027 -0.0560
   33POPC   C4B  949   5.485   9.086   7.109  0.1735  0.0171 -0.2529
   34POPC   NC3  950   9.918   2.158   9.067  0.3773 -0.0079 -0.0603
   34POPC   PO4  951   9.719   2.617   9.193 -0.3995 -0.0391 -0.0297
   34POPC   GL1  952   9.952   2.588   8.806  0.0850 -0.1404  0.1684
   34POPC   GL2  953  10.226   2.502   8.841 -0.3259 -0.0473 -0.0189
   34POPC   C1A  954  10.117   2.922   8.585  0.0553  0.2944  0.0720
   34POPC   D2A  955  10.315   2.948   8.147  0.1000  0.3355  0.1271
   34POPC   C3A  956  10.270   2.916   7.724 -0.0008 -0.3309  0.0030
   34POPC   C4A  957  10.146   2.641   7.356 -0.0803 -0.1402 -0.2626
   34POPC   C1B  958  10.321   2.486   8.418 -0.1287 -0.0925 -0.0359
   34POPC   C2B  959  10.511   2.530   7.969  0.1435  0.3431 -0.0680
   34POPC   C3B  960  10.544   2.425   7.522 -0.2215 -0.1957  0.1340
   34POPC   C4B  961  10.504   2.390   7.063  0.0770  0.5257 -0.5310
   35POPC   NC3  962   3.840   2.921   9.049  0.3039 -0.1569  0.4078
   35POPC   PO4  963   3.863   3.344   9.145  0.0652  0.2253 -0.1226
   35POPC   GL1  964   3.991   3.314   8.773  0.0805  0.1951  0.0752
   35POPC   GL2  965   4.257   3.370   8.690 -0.0691  0.0848 -0.3721
   35POPC   C1A  966   3.984   3.115   8.412  0.1300  0.0172  0.2962
   35POPC   D2A  967   3.806   3.255   7.957 -0.2433 -0.3730 -0.0238
   35POPC   C3A  968   3.987   3.476   7.712 -0.0240  0.3518  0.0768
   35POPC   C4A  969   4.246   3.497   7.433 -0.0807 -0.0477 -0.1529
   35POPC   C1B  970   4.378   3.504   8.282  0.1675 -0.2290 -0.1006
   35POPC   C2B  971   4.397   3.334   7.880 -0.2033  0.1177 -0.2265
   35POPC   C3B  972   4.569   3.106   7.622  0.0567  0.2681  0.3425
   35POPC   C4B  973   4.577   2.796   7.388 -0.0353  0.4143  0.3592
   36POPC   NC3  974   3.189   5.174   9.762 -0.3033  0.0925 -0.0016
   36POPC   PO4  975   3.351   5.184   9.426  0.1650 -0.0800  0.0319
   36POPC   GL1  976   3.172   5.196   9.071  0.0321  0.2562  0.0473
   36POPC   GL2  977   3.357   5.363   8.926 -0.0164 -0.0299 -0.0252
   36POPC   C1A  978   2.771   5.073   8.735 -0.2515 -0.0417 -0.3220
   36POPC   D2A  979   2.320   5.170   8.508 -0.2444 -0.0219 -0.0738
   36POPC   C3A  980   2.099   5.558   8.394 -0.0649  0.1411 -0.0093
   36POPC   C4A  981   1.923   5.911   8.199 -0.1457 -0.1718 -0.0864
   36POPC   C1B  982   3.276   5.202   8.534  0.1091  0.3374 -0.0339
   36POPC   C2B  983   3.562   4.921   8.352 -0.1862  0.0404 -0.2425
   36POPC   C3B  984   3.478   4.580   8.011  0.0675  0.0104 -0.1848
   36POPC   C4B  985   3.415   4.512   7.581  0.4783 -0.1858  0.1235
   37POPC   NC3  986   7.214   7.779   9.063  0.2691 -0.1013  0.1495
   37POPC   PO4  987   7.415   7.882   8.800  0.2351 -0.0143  0.3229
   37POPC   GL1  988   7.833   7.872   8.677  0.2462  0.1207 -0.1532
   37POPC   GL2  989   8.109   8.117   8.643 -0.0776 -0.1781 -0.0020
   37POPC   C1A  990   8.066   7.639   8.353  0.0797 -0.4035 -0.0146
   37POPC   D2A  991   7.800   7.399   8.150 -0.2264  0.0047  0.1751
   37POPC   C3A  992   7.862   7.345   7.658 -0.1846 -0.1672 -0.1975
   37POPC   C4A  993   7.883   7.598   7.302  0.0413  0.0528  0.1188
   37POPC   C1B  994   7.863   8.324   8.288 -0.1929  0.2562  0.0471
   37POPC   C2B  995   7.565   8.035   8.066 -0.3952 -0.1344 -0.1665
   37POPC   C3B  996   7.327   7.645   8.041 -0.1639 -0.5126  0.0550
   37POPC   C4B  997   7.346   7.147   7.981 -0.3684 -0.1629 -0.0871
   38POPC   NC3  998   5.578   1.860   8.907  0.2368 -0.0660  0.0400
   38POPC   PO4  999   5.874   2.198   8.860  0.0417 -0.1047  0.1705
   38POPC   GL1 1000   5.624   2.124   8.483 -0.1008 -0.0354 -0.3549
   38POPC   GL2 1001   5.929   2.046   8.372 -0.0581 -0.0366  0.0703
   38POPC   C1A 1002   5.249   1.974   8.264 -0.0422 -0.2390 -0.0077
   38POPC   D2A 1003   5.056   1.927   7.860 -0.1353  0.0047  0.0122
   38POPC   C3A 1004   5.294   1.764   7.478  0.1989 -0.0159  0.0121
   38POPC   C4A 1005   5.488   1.999   7.153  0.1474  0.0331  0.5002
   38POPC   C1B 1006   6.083   2.022   7.923  0.0165 -0.0547 -0.1977
   38POPC   C2B 1007   6.247   2.012   7.550 -0.2023 -0.0066 -0.0700
   38POPC   C3B 1008   6.517   1.963   7.186 -0.1621 -0.2029  0.2663
   38POPC   C4B 1009   6.573   2.077   6.725 -0.7109 -0.5638  0.2897
   39POPC   NC3 1010   3.860   5.183   9.430  0.1554  0.1219 -0.0350
   39POPC   PO4 1011   4.281   5.369   9.430 -0.2183  0.0970 -0.1300
   39POPC   GL1 1012   4.092   5.422   8.954  0.0576 -0.0476 -0.0253
   39POPC   GL2 1013   4.225   5.170   8.759 -0.0372 -0.0632 -0.0173
   39POPC   C1A 1014   3.793   5.419   8.649 -0.0567  0.0519 -0.1127
   39POPC   D2A 1015   3.486   5.573   8.384  0.1202 -0.3784  0.1593
   39POPC   C3A 1016   3.333   5.251   8.020  0.0165 -0.1287  0.0169
   39POPC   C4A 1017   3.537   5.014   7.746  0.0435  0.2257  0.2721
   39POPC   C1B 1018   4.185   5.216   8.285 -0.2402  0.0562  0.3029
   39POPC   C2B 1019   3.904   5.285   7.991  0.4283 -0.0055 -0.2277
   39POPC   C3B 1020   3.914   5.594   7.476  0.1589 -0.3232 -0.1125
   39POPC   C4B 1021   3.911   5.793   7.053  0.2377 -0.1025  0.2101
   40POPC   NC3 1022   3.511   4.074   9.245  0.1121 -0.0024 -0.0870
   40POPC   PO4 1023   3.462   4.381   9.366  0.2858  0.3154 -0.0358
   40POPC   GL1 1024   3.439   4.733   9.067 -0.0414  0.2097 -0.1829
   40POPC   GL2 1025   3.210   4.664   8.803  0.1523 -0.1981 -0.4198
   40POPC   C1A 1026   3.748   4.929   8.798 -0.0261 -0.2681  0.2597
   40POPC   D2A 1027   4.020   4.768   8.439 -0.2408  0.0848 -0.0542
   40POPC   C3A 1028   3.941   4.764   8.051  0.3622 -0.0452 -0.0528
   40POPC   C4A 1029   3.871   4.529   7.580 -0.1379  0.1032  0.0099
   40POPC   C1B 1030   3.088   4.591   8.458 -0.0749 -0.2825 -0.2945
   40POPC   C2B 1031   2.935   4.965   8.154  0.0231  0.1519  0.3323
   40POPC   C3B 1032   3.024   5.065   7.712 -0.1483 -0.0473  0.0371
   40POPC   C4B 1033   3.070   4.862   7.334  0.3129  0.0465  0.2153
   41POPC   NC3 1034   0.939   6.659   9.724  0.1161  0.2001 -0.0474
   41POPC   PO4 1035   0.561   6.826   9.563  0.0562  0.0879 -0.1572
   41POPC   GL1 1036   0.580   7.145   9.171 -0.0266 -0.1403 -0.0305
   41POPC   GL2 1037   0.591   7.476   9.387  0.0084  0.2972 -0.0066
   41POPC   C1A 1038   0.607   7.444   8.829 -0.0443 -0.0902  0.1413
   41POPC   D2A 1039   0.367   7.554   8.466  0.1456  0.0974  0.1125
   41POPC   C3A 1040  -0.090   7.506   8.447 -0.0099  0.1749 -0.0047
   41POPC   C4A 1041  -0.440   7.764   8.245 -0.0122  0.0949 -0.0807
   41POPC   C1B 1042   0.597   7.864   9.062 -0.1174 -0.0727  0.0980
   41POPC   C2B 1043   0.863   8.215   9.154  0.3158 -0.2342  0.2009
   41POPC   C3B 1044   1.175   8.375   9.328 -0.0454  0.0437 -0.2677
   41POPC   C4B 1045   1.507   8.736   9.534 -0.0377  0.1553 -0.0203
   42POPC   NC3 1046   7.820   6.676   9.332  0.1277  0.1592 -0.3362
   42POPC   PO4 1047   7.320   6.751   9.155 -0.2380  0.0211 -0.1443
   42POPC   GL1 1048   7.156   6.595   8.888 -0.0063  0.2058  0.2032
   42POPC   GL2 1049   6.902   6.422   8.785  0.1584  0.2613 -0.1063
   42POPC   C1A 1050   7.316   6.318   8.552 -0.3769 -0.2875 -0.2332
   42POPC   D2A 1051   7.602   6.064   8.232  0.0361 -0.1082 -0.3822
   42POPC   C3A 1052   7.609   6.228   7.822 -0.2533  0.3342  0.1360
   42POPC   C4A 1053   7.701   6.229   7.400 -0.1953  0.1912  0.2311
   42POPC   C1B 1054   6.909   6.367   8.300 -0.3779  0.4688  0.1038
   42POPC   C2B 1055   6.655   6.446   7.935  0.1903  0.0157  0.2022
   42POPC   C3B 1056   6.692   6.598   7.557 -0.0572 -0.0910  0.1351
   42POPC   C4B 1057   7.006   6.617   7.292 -0.1302 -0.2501  0.0880
   43POPC   NC3 1058   9.356   3.115   9.265  0.0937 -0.1898 -0.3644
   43POPC   PO4 1059   9.003   3.250   9.071 -0.0782 -0.2696  0.1343
   43POPC   GL1 1060   9.071   3.547   8.782 -0.2802  0.0781  0.0629
   43POPC   GL2 1061   8.811   3.690   8.698 -0.0715  0.0905  0.1339
   43POPC   C1A 1062   9.419   3.717   8.598  0.0558 -0.2159 -0.0134
   43POPC   D2A 1063   9.789   3.555   8.451  0.2221 -0.0786 -0.0089
   43POPC   C3A 1064   9.853   3.193   8.177  0.2745  0.1555 -0.0986
   43POPC   C4A 1065   9.888   3.153   7.842  0.0659 -0.0751  0.2057
   43POPC   C1B 1066   9.014   3.825   8.273 -0.1278  0.0069  0.2437
   43POPC   C2B 1067   9.318   3.891   7.949  0.2096  0.0988 -0.0355
   43POPC   C3B 1068   9.216   4.039   7.483  0.1923 -0.2723 -0.0438
   43POPC   C4B 1069   9.465   4.190   7.138  0.0373 -0.0628  0.1228
   44POPC   NC3 1070   6.897   1.799   9.252  0.0344 -0.3304 -0.1442
   44POPC   PO4 1071   6.512   1.899   9.024  0.0739  0.0895 -0.0014
   44POPC   GL1 1072   6.413   1.959   8.626 -0.0585 -0.2036  0.4819
   44POPC   GL2 1073   6.310   1.674   8.313  0.1671 -0.0866  0.1067
   44POPC   C1A 1074   6.338   2.297   8.318 -0.3069 -0.1140 -0.0553
   44POPC   D2A 1075   6.365   2.443   7.920 -0.2234 -0.0045  0.2625
   44POPC   C3A 1076   6.674   2.420   7.563  0.1496  0.1373 -0.0103
   44POPC   C4A 1077   6.787   2.462   7.089  0.3281 -0.1984 -0.0876
   44POPC   C1B 1078   6.084   1.501   7.887  0.0321  0.1483  0.0242
   44POPC   C2B 1079   5.827   1.357   7.552  0.1438  0.2046 -0.0722
   44POPC   C3B 1080   5.557   1.407   7.185 -0.2809  0.1990 -0.0687
   44POPC   C4B 1081   5.375   1.433   6.634 -0.1700 -0.0512 -0.3048
   45POPC   NC3 1082   1.179   1.828   9.614 -0.0683 -0.0922  0.2844
   45POPC   PO4 1083   1.486   1.791   9.271 -0.4530 -0.1385 -0.2268
   45POPC   GL1 1084   1.655   1.845   8.907  0.1042 -0.0579 -0.1743
   45POPC   GL2 1085   1.642   2.174   8.844 -0.1264  0.0521  0.0493
   45POPC   C1A 1086   1.875   2.039   8.446 -0.2073 -0.3219  0.0502
   45POPC   D2A 1087   1.906   2.116   8.077 -0.1508  0.1258  0.0350
   45POPC   C3A 1088   2.247   1.956   7.971 -0.3278  0.1861 -0.0651
   45POPC   C4A 1089   2.514   1.577   7.888  0.0771 -0.0513 -0.1571
   45POPC   C1B 1090   1.421   2.331   8.527 -0.0617  0.0440  0.0537
   45POPC   C2B 1091   1.364   2.153   8.157  0.0690 -0.1738  0.2284
   45POPC   C3B 1092   1.412   2.059   7.801  0.0708 -0.0132 -0.1026
   45POPC   C4B 1093   1.219   2.042   7.412  0.1769  0.1666  0.0263
   46POPC   NC3 1094   1.397   1.286   9.425  0.2556  0.1575  0.1112
   46POPC   PO4 1095   1.006   1.483   9.330 -0.4326  0.1078  0.1894
   46POPC   GL1 1096   1.137   1.289   8.985  0.2388 -0.0489  0.0578
   46POPC   GL2 1097   1.346   1.435   8.893 -0.0742 -0.0967 -0.3287
   46POPC   C1A 1098   0.968   1.361   8.568 -0.1067 -0.0796  0.4511
   46POPC   D2A 1099   0.940   1.224   8.059  0.2208  0.3373  0.1233
   46POPC   C3A 1100   0.669   1.309   7.635 -0.0742 -0.2050  0.0096
   46POPC   C4A 1101   0.449   1.444   7.182 -0.3112  0.0890  0.0305
   46POPC   C1B 1102   1.359   1.644   8.394  0.1459  0.3422  0.0632
   46POPC   C2B 1103   1.591   1.661   8.040  0.0471  0.0249 -0.0289
   46POPC   C3B 1104   1.692   1.666   7.567  0.3034  0.0139  0.0632
   46POPC   C4B 1105   1.460   1.752   7.097 -0.0174  0.1426  0.0461
   47POPC   NC3 1106   4.195   9.995   9.324 -0.0555  0.1587 -0.0471
   47POPC   PO4 1107   4.613   9.965   9.504  0.0478 -0.0905  0.0016
   47POPC   GL1 1108   4.630  10.026   9.027  0.2387  0.0878 -0.1041
   47POPC   GL2 1109   4.384  10.006   8.893 -0.0015 -0.1964  0.2187
   47POPC   C1A 1110   4.904  10.155   8.709 -0.2137  0.0983 -0.1441
   47POPC   D2A 1111   4.754  10.288   8.386  0.2560  0.1194 -0.2456
   47POPC   C3A 1112   4.634  10.163   8.022 -0.0250  0.2580  0.2503
   47POPC   C4A 1113   4.402  10.245   7.655 -0.0861 -0.0830  0.0761
   47POPC   C1B 1114   4.263  10.099   8.425 -0.3151  0.1861  0.0519
   47POPC   C2B 1115   4.083  10.008   7.964  0.1926  0.1454 -0.1201
   47POPC   C3B 1116   3.858   9.966   7.569 -0.0851 -0.0316  0.2360
   47POPC   C4B 1117   3.561  10.096   7.382 -0.0638  0.0051 -0.0220
   48POPC   NC3 1118   5.175   9.767   9.394  0.2899  0.0604 -0.0243
   48POPC   PO4 1119   5.294  10.084   9.540  0.2347 -0.2799  0.0641
   48POPC   GL1 1120   5.343  10.205   9.113 -0.4662 -0.0865  0.2513
   48POPC   GL2 1121   5.389   9.909   8.861 -0.1391  0.0361  0.2546
   48POPC   C1A 1122   5.618  10.301   8.764 -0.1138  0.0723 -0.5233
   48POPC   D2A 1123   6.020  10.368   8.619  0.1276  0.0176  0.1289
   48POPC   C3A 1124   6.265  10.469   8.183 -0.1744  0.0814  0.0031
   48POPC   C4A 1125   6.370  10.813   7.908 -0.0355  0.1265  0.1103
   48POPC   C1B 1126   5.441   9.969   8.413 -0.1258  0.0912  0.0861
   48POPC   C2B 1127   5.717  10.186   8.071 -0.3288 -0.1161 -0.0283
   48POPC   C3B 1128   5.606  10.272   7.591 -0.3866 -0.4379  0.0289
   48POPC   C4B 1129   5.858  10.249   7.250 -0.5002 -0.1601  0.0046
   49POPC   NC3 1130   8.429   3.310   9.242 -0.0811  0.1886  0.0231
   49POPC   PO4 1131   8.295   3.156   8.928 -0.4149 -0.1628  0.1261
   49POPC   GL1 1132   8.650   3.215   8.674  0.2632  0.1457  0.0184
   49POPC   GL2 1133   8.944   3.069   8.612  0.0352  0.1271  0.1227
   49POPC   C1A 1134   8.556   3.197   8.279 -0.1250 -0.0848  0.2114
   49POPC   D2A 1135   8.584   3.098   7.860 -0.2700  0.2076  0.1575
   49POPC   C3A 1136   8.598   3.341   7.481 -0.0914  0.1157  0.2035
   49POPC   C4A 1137   8.221   3.653   7.406  0.1004  0.1049  0.0070
   49POPC   C1B 1138   9.027   3.113   8.133  0.0168 -0.1515 -0.2587
   49POPC   C2B 1139   9.046   3.050   7.633 -0.0073  0.4772 -0.0675
   49POPC   C3B 1140   8.791   2.711   7.370  0.0191  0.2918 -0.1300
   49POPC   C4B 1141   8.897   2.385   7.187 -0.0142  0.5518 -0.2940
   50POPC   NC3 1142   3.969   8.161   9.359 -0.0991 -0.2910  0.1818
   50POPC   PO4 1143   4.161   8.524   9.364 -0.0636 -0.0759  0.0943
   50POPC   GL1 1144   3.932   8.637   9.082  0.2008 -0.0436 -0.0160
   50POPC   GL2 1145   4.021   8.498   8.896 -0.1665 -0.3291  0.1387
   50POPC   C1A 1146   3.643   8.903   8.933  0.2323  0.3696  0.1287
   50POPC   D2A 1147   3.446   8.988   8.516 -0.1035 -0.2110 -0.1244
   50POPC   C3A 1148   3.118   9.130   8.168 -0.2993 -0.0999 -0.2226
   50POPC   C4A 1149   2.773   9.286   7.924 -0.0737  0.1695  0.0856
   50POPC   C1B 1150   3.839   8.554   8.478 -0.0306  0.0020  0.0011
   50POPC   C2B 1151   3.585   8.571   8.147 -0.0206 -0.0123 -0.0813
   50POPC   C3B 1152   3.163   8.557   8.067  0.0952  0.0142  0.0380
   50POPC   C4B 1153   2.912   8.831   7.866  0.3966  0.2356  0.0239
   51POPC   NC3 1154   6.645   9.375   9.164  0.1715 -0.0506  0.1129
   51POPC   PO4 1155   6.829   9.212   8.814 -0.1440 -0.4288 -0.1173
   51POPC   GL1 1156   6.668   9.439   8.562  0.1818 -0.0170 -0.2226
   51POPC   GL2 1157   6.452   9.171   8.481 -0.0202  0.1091 -0.1305
   51POPC   C1A 1158   6.535   9.554   8.118  0.0117 -0.2312  0.0474
   51POPC   D2A 1159   6.439   9.877   7.896  0.2296 -0.1786  0.2261
   51POPC   C3A 1160   6.173  10.253   7.734  0.1320 -0.0744 -0.1514
   51POPC   C4A 1161   5.941  10.591   7.781 -0.2841  0.0889 -0.1685
   51POPC   C1B 1162   6.666   9.009   8.012 -0.0513 -0.0254  0.2174
   51POPC   C2B 1163   6.861   9.175   7.567 -0.1336 -0.1761  0.1478
   51POPC   C3B 1164   6.946   9.434   7.160 -0.2570 -0.0726  0.0301
   51POPC   C4B 1165   7.165   9.595   6.837  0.2107 -0.0097  0.1396
   52POPC   NC3 1166   4.391   4.505   9.474 -0.3907  0.0119  0.2559
   52POPC   PO4 1167   4.593   4.087   9.361  0.1002 -0.0593 -0.2138
   52POPC   GL1 1168   4.381   4.094   8.915 -0.1325 -0.0900  0.3338
   52POPC   GL2 1169   4.547   3.865   8.669  0.0065 -0.0479  0.0581
   52POPC   C1A 1170   4.219   4.209   8.473  0.1846  0.5237  0.1993
   52POPC   D2A 1171   3.853   4.336   8.344 -0.4237  0.0513  0.0782
   52POPC   C3A 1172   3.384   4.165   8.277 -0.2528 -0.1506 -0.6776
   52POPC   C4A 1173   3.068   3.942   8.411  0.0556 -0.0471  0.0900
   52POPC   C1B 1174   4.661   4.006   8.332  0.0431  0.0586  0.1119
   52POPC   C2B 1175   4.957   4.151   7.997  0.0728  0.0286 -0.1251
   52POPC   C3B 1176   4.597   4.330   7.889  0.3337 -0.0320 -0.0956
   52POPC   C4B 1177   4.207   4.339   8.008  0.3288  0.1331  0.2622
   53POPC   NC3 1178   3.854   9.329   9.666  0.2011  0.1862  0.2229
   53POPC   PO4 1179   4.286   9.518   9.514  0.0826  0.2025  0.3989
   53POPC   GL1 1180   4.183   9.530   9.061 -0.1703  0.1386  0.2559
   53POPC   GL2 1181   3.959   9.232   9.086 -0.2532 -0.0512  0.0130
   53POPC   C1A 1182   4.229   9.542   8.602  0.0149 -0.3082  0.0950
   53POPC   D2A 1183   4.435   9.319   8.263 -0.1069 -0.1650  0.0050
   53POPC   C3A 1184   4.425   9.630   7.992 -0.1721 -0.2619  0.1248
   53POPC   C4A 1185   4.290   9.758   7.517 -0.0794  0.3757 -0.1736
   53POPC   C1B 1186   3.806   9.347   8.643  0.0798  0.0952 -0.0361
   53POPC   C2B 1187   3.846   9.651   8.280  0.2036 -0.2062 -0.4341
   53POPC   C3B 1188   3.504   9.775   7.917 -0.0978 -0.0704 -0.1967
   53POPC   C4B 1189   3.189   9.541   7.867  0.1475 -0.0910 -0.0380
   54POPC   NC3 1190   8.092   1.763   9.673  0.0600 -0.3506  0.0239
   54POPC   PO4 1191   8.068   1.878   9.233  0.1247 -0.0244  0.2086
   54POPC   GL1 1192   7.976   1.905   8.807  0.0711 -0.2892 -0.1592
   54POPC   GL2 1193   7.647   1.688   8.754 -0.0718 -0.1382  0.1912
   54POPC   C1A 1194   8.005   2.177   8.367  0.0157  0.0491  0.2681
   54POPC   D2A 1195   7.952   2.153   7.926  0.2687  0.0720  0.1301
   54POPC   C3A 1196   8.219   2.211   7.599  0.2581  0.3059  0.2918
   54POPC   C4A 1197   8.322   2.482   7.214  0.1413 -0.0494  0.1440
   54POPC   C1B 1198   7.922   1.662   8.338  0.2026 -0.6166 -0.1409
   54POPC   C2B 1199   8.230   1.339   8.111  0.1434 -0.3801 -0.0664
   54POPC   C3B 1200   8.408   1.063   7.829 -0.0998  0.0499  0.1732
   54POPC   C4B 1201   8.601   0.675   7.682 -0.0232 -0.0229 -0.0766
   55POPC   NC3 1202   2.739   9.296  10.028  0.2156  0.2991  0.2688
   55POPC   PO4 1203   3.194   9.458   9.892  0.2643 -0.0567  0.0942
   55POPC   GL1 1204   3.197   9.352   9.439  0.2187  0.0559  0.1414
   55POPC   GL2 1205   3.412   9.254   9.329  0.0333  0.1194  0.1372
   55POPC   C1A 1206   2.962   9.147   9.101  0.1694 -0.2785 -0.1073
   55POPC   D2A 1207   3.000   9.240   8.682 -0.4813 -0.0984 -0.1567
   55POPC   C3A 1208   2.679   9.386   8.454  0.2779  0.0534  0.1063
   55POPC   C4A 1209   2.228   9.225   8.149 -0.1062 -0.1208  0.2580
   55POPC   C1B 1210   3.386   9.531   8.951  0.0427  0.1339  0.1421
   55POPC   C2B 1211   3.637   9.861   8.730 -0.1816 -0.2548  0.0716
   55POPC   C3B 1212   3.644  10.095   8.329 -0.0904 -0.2290 -0.1600
   55POPC   C4B 1213   3.512  10.305   7.868 -0.3024  0.0295  0.0303
   56POPC   NC3 1214   7.044   1.059   9.622 -0.2207 -0.0518 -0.0844
   56POPC   PO4 1215   6.908   1.327   9.292 -0.0720  0.4212 -0.0938
   56POPC   GL1 1216   6.772   1.501   8.883  0.0629  0.2335  0.1591
   56POPC   GL2 1217   6.469   1.410   8.730 -0.0013  0.0196 -0.0378
   56POPC   C1A 1218   6.893   1.613   8.418 -0.1858  0.1355 -0.0955
   56POPC   D2A 1219   7.372   1.553   8.385  0.2093 -0.0517  0.0838
   56POPC   C3A 1220   7.581   1.481   8.046 -0.0546  0.2720 -0.0138
   56POPC   C4A 1221   7.854   1.659   7.725  0.0649 -0.3243  0.2505
   56POPC   C1B 1222   6.651   1.124   8.432  0.2178  0.0558 -0.0717
   56POPC   C2B 1223   6.529   1.124   8.056 -0.1653 -0.1547  0.2027
   56POPC   C3B 1224   6.297   1.111   7.697  0.0642 -0.1158 -0.1856
   56POPC   C4B 1225   6.021   0.945   7.612 -0.2175 -0.0114 -0.1236
   57POPC   NC3 1226   5.914   7.109   9.602 -0.1200  0.0048  0.0423
   57POPC   PO4 1227   6.132   7.229   9.119  0.0139  0.0458 -0.1160
   57POPC   GL1 1228   5.804   7.341   8.732 -0.0942 -0.0940  0.0211
   57POPC   GL2 1229   5.441   7.158   8.771 -0.0358 -0.0702 -0.1560
   57POPC   C1A 1230   5.754   7.232   8.308  0.3137  0.0194  0.1002
   57POPC   D2A 1231   5.569   6.873   7.996  0.1239 -0.2158 -0.2916
   57POPC   C3A 1232   5.604   6.912   7.500 -0.0293  0.1401 -0.0170
   57POPC   C4A 1233   5.735   6.837   7.116  0.0213  0.0055 -0.0575
   57POPC   C1B 1234   5.189   7.203   8.432 -0.1382  0.1919  0.0475
   57POPC   C2B 1235   5.084   7.145   7.946 -0.2237 -0.0011  0.1840
   57POPC   C3B 1236   5.041   7.246   7.565 -0.0448 -0.0255  0.2267
   57POPC   C4B 1237   5.242   7.176   7.165  0.0506  0.0426 -0.0059
   58POPC   NC3 1238   6.373   5.237   8.681  0.1034 -0.1349  0.2754
   58POPC   PO4 1239   6.252   4.688   8.801 -0.1395  0.2118  0.0756
   58POPC   GL1 1240   6.229   4.867   8.389  0.1490  0.0121 -0.1553
   58POPC   GL2 1241   6.255   5.158   8.171 -0.2462  0.0470 -0.0453
   58POPC   C1A 1242   5.970   4.692   8.045 -0.1440  0.1862 -0.2020
   58POPC   D2A 1243   5.968   4.946   7.754  0.0027 -0.2888  0.3206
   58POPC   C3A 1244   6.316   5.208   7.662 -0.1211 -0.1311  0.3359
   58POPC   C4A 1245   6.650   5.444   7.421  0.3707 -0.2370  0.0201
   58POPC   C1B 1246   6.701   5.030   8.123 -0.2396 -0.0867  0.2234
   58POPC   C2B 1247   6.863   5.011   7.751 -0.0269 -0.1600  0.1792
   58POPC   C3B 1248   7.119   5.268   7.435 -0.1301 -0.1961 -0.1550
   58POPC   C4B 1249   7.551   5.316   7.600  0.2067  0.0579  0.0709
   59POPC   NC3 1250   0.438   1.983   9.548 -0.2645 -0.2330 -0.1532
   59POPC   PO4 1251   0.629   1.667   9.665 -0.2343 -0.2000 -0.1328
   59POPC   GL1 1252   0.577   1.587   9.172  0.2026 -0.2327  0.0320
   59POPC   GL2 1253   0.723   1.631   8.896  0.1300  0.0047  0.0176
   59POPC   C1A 1254   0.269   1.438   8.918  0.1930  0.2189  0.3321
   59POPC   D2A 1255  -0.052   1.458   8.485  0.0242  0.1480 -0.1803
   59POPC   C3A 1256  -0.123   1.734   8.130  0.0764  0.2227 -0.0222
   59POPC   C4A 1257  -0.347   1.675   7.701  0.1248 -0.1896  0.0579
   59POPC   C1B 1258   0.381   1.709   8.537 -0.0364  0.1861  0.3587
   59POPC   C2B 1259   0.203   2.004   8.382  0.1082 -0.0481 -0.1960
   59POPC   C3B 1260  -0.029   2.233   7.976  0.1604 -0.0736  0.3340
   59POPC   C4B 1261  -0.253   2.603   7.977  0.2753 -0.1829  0.0485
   60POPC   NC3 1262   0.708   4.599   9.057 -0.2050 -0.2613  0.1262
   60POPC   PO4 1263   0.881   4.891   9.437 -0.1878 -0.0885  0.2692
   60POPC   GL1 1264   1.062   4.964   8.968 -0.0913 -0.0934 -0.1494
   60POPC   GL2 1265   1.239   4.752   8.733  0.1018 -0.0238  0.0055
   60POPC   C1A 1266   0.989   5.144   8.549  0.1942  0.0428  0.1361
   60POPC   D2A 1267   1.073   5.438   8.243  0.4602 -0.2931 -0.0698
   60POPC   C3A 1268   1.109   5.398   7.792 -0.1756 -0.0691 -0.4021
   60POPC   C4A 1269   1.228   5.260   7.507  0.1432 -0.2901 -0.0315
   60POPC   C1B 1270   1.411   4.935   8.279  0.2658  0.2945  0.0644
   60POPC   C2B 1271   1.599   5.131   7.835  0.2626  0.2971 -0.4648
   60POPC   C3B 1272   1.713   5.383   7.452  0.3223 -0.1432  0.1907
   60POPC   C4B 1273   1.510   5.781   7.398 -0.1716 -0.4374  0.0756
   61POPC   NC3 1274   8.289   2.255   9.467 -0.2537 -0.0133 -0.0552
   61POPC   PO4 1275   8.084   2.387   9.167  0.2256  0.0265  0.1979
   61POPC   GL1 1276   7.743   2.456   8.730  0.1187 -0.0886  0.0536
   61POPC   GL2 1277   7.549   2.179   8.650 -0.1116 -0.4389  0.0148
   61POPC   C1A 1278   7.781   2.644   8.314 -0.0820  0.4308  0.0616
   61POPC   D2A 1279   8.063   2.637   7.898 -0.0286 -0.1269  0.4817
   61POPC   C3A 1280   8.514   2.622   7.774 -0.0372  0.0027 -0.0856
   61POPC   C4A 1281   9.023   2.605   7.850 -0.0226 -0.3409  0.1627
   61POPC   C1B 1282   7.339   2.024   8.297 -0.0739 -0.1929  0.0168
   61POPC   C2B 1283   7.126   1.759   7.962 -0.0576  0.1206  0.1285
   61POPC   C3B 1284   6.911   1.835   7.616  0.0748 -0.0293 -0.3337
   61POPC   C4B 1285   6.838   1.542   7.249  0.1691  0.2467 -0.1750
   62POPC   NC3 1286   6.169   6.261   9.020  0.1479 -0.0338 -0.1821
   62POPC   PO4 1287   6.604   6.008   8.979 -0.0777 -0.2912 -0.1919
   62POPC   GL1 1288   6.816   5.910   8.678  0.2816  0.1954  0.1019
   62POPC   GL2 1289   6.650   5.703   8.577 -0.2267 -0.0237 -0.0927
   62POPC   C1A 1290   7.113   5.857   8.353  0.1063 -0.2279  0.0278
   62POPC   D2A 1291   7.175   6.028   7.991  0.1928 -0.0215 -0.0506
   62POPC   C3A 1292   7.496   5.794   7.666  0.1077 -0.1322 -0.1123
   62POPC   C4A 1293   7.512   5.736   7.210  0.1407 -0.1300 -0.2739
   62POPC   C1B 1294   6.611   5.977   8.176 -0.1988  0.3927  0.2169
   62POPC   C2B 1295   6.718   5.931   7.724  0.1397 -0.0998 -0.2418
   62POPC   C3B 1296   6.603   6.091   7.373  0.1657 -0.5544  0.0028
   62POPC   C4B 1297   6.587   5.951   7.002  0.1631  0.0001  0.0730
   63POPC   NC3 1298   9.952   4.535   9.250 -0.0880 -0.0754  0.0536
   63POPC   PO4 1299  10.365   4.553   9.048 -0.3760 -0.0945  0.0667
   63POPC   GL1 1300  10.189   4.678   8.704  0.0699 -0.0019  0.1620
   63POPC   GL2 1301   9.918   4.494   8.685 -0.1540 -0.1567  0.2424
   63POPC   C1A 1302  10.211   4.615   8.260  0.2052 -0.1944 -0.0324
   63POPC   D2A 1303  10.272   4.476   7.832  0.3484 -0.3299 -0.1515
   63POPC   C3A 1304  10.553   4.685   7.521  0.1719 -0.1371 -0.3061
   63POPC   C4A 1305  10.561   4.526   7.171 -0.1138  0.0115 -0.2592
   63POPC   C1B 1306   9.678   4.537   8.335 -0.4307  0.1182 -0.0465
   63POPC   C2B 1307   9.577   4.451   7.888  0.1439  0.0506  0.1531
   63POPC   C3B 1308   9.720   4.413   7.508 -0.0469  0.1209 -0.0194
   63POPC   C4B 1309  10.122   4.368   7.368 -0.4771  0.2513  0.0657
   64POPC   NC3 1310   3.444   2.076   9.334  0.1274 -0.0618  0.1969
   64POPC   PO4 1311   3.531   1.673   9.227  0.0844 -0.3880 -0.0166
   64POPC   GL1 1312   3.814   1.921   8.954 -0.1684  0.0161  0.3502
   64POPC   GL2 1313   4.053   1.675   8.813 -0.2003  0.0961 -0.0557
   64POPC   C1A 1314   3.863   2.185   8.625  0.0329 -0.0491  0.1127
   64POPC   D2A 1315   3.865   2.083   8.220 -0.0556 -0.2037 -0.0180
   64POPC   C3A 1316   4.090   1.734   8.151  0.3282 -0.0091  0.3455
   64POPC   C4A 1317   4.304   1.454   7.936  0.5904 -0.1394 -0.1330
   64POPC   C1B 1318   4.377   1.933   8.491  0.0250  0.5206  0.2081
   64POPC   C2B 1319   4.380   2.196   8.147 -0.0767  0.1898 -0.1211
   64POPC   C3B 1320   4.399   2.516   7.743 -0.1381 -0.0345 -0.1785
   64POPC   C4B 1321   4.340   2.396   7.321 -0.1244  0.1105 -0.1788
   65POPC   NC3 1322   1.329   9.532  10.295  0.0140 -0.1390  0.1656
   65POPC   PO4 1323   1.273   9.967  10.058 -0.0114  0.3726 -0.3247
   65POPC   GL1 1324   1.133   9.698   9.670 -0.3392  0.3426 -0.2482
   65POPC   GL2 1325   1.028   9.887   9.429  0.0884  0.1957 -0.0854
   65POPC   C1A 1326   0.899   9.409   9.394 -0.0516  0.3620  0.0032
   65POPC   D2A 1327   0.537   9.092   9.143 -0.0330 -0.0592 -0.2974
   65POPC   C3A 1328   0.653   8.865   8.853 -0.3379 -0.0717  0.2507
   65POPC   C4A 1329   0.952   8.895   8.617  0.1157 -0.1244 -0.0082
   65POPC   C1B 1330   1.017   9.779   8.958  0.2137  0.2762  0.1695
   65POPC   C2B 1331   1.026   9.318   8.860 -0.1785  0.0549 -0.0038
   65POPC   C3B 1332   1.424   9.184   8.658  0.2305 -0.0303  0.0782
   65POPC   C4B 1333   1.550   8.762   8.520 -0.2904  0.1778 -0.1417
   66POPC   NC3 1334   1.069   5.693   9.335  0.1705  0.1463 -0.0931
   66POPC   PO4 1335   0.664   5.910   9.333 -0.1791  0.1433 -0.3662
   66POPC   GL1 1336   0.765   5.857   8.927  0.3153  0.0701  0.2742
   66POPC   GL2 1337   0.522   6.135   8.806 -0.1429 -0.1881 -0.0847
   66POPC   C1A 1338   0.721   5.889   8.436 -0.2642  0.0863 -0.1292
   66POPC   D2A 1339   0.456   5.790   8.084  0.3471 -0.0781 -0.2166
   66POPC   C3A 1340   0.476   6.193   7.826 -0.3567 -0.0647 -0.0309
   66POPC   C4A 1341   0.595   6.302   7.490 -0.0796 -0.2042  0.0645
   66POPC   C1B 1342   0.710   6.483   8.547  0.0445  0.2174  0.1721
   66POPC   C2B 1343   1.103   6.558   8.379  0.0298 -0.3033  0.3138
   66POPC   C3B 1344   1.226   6.651   7.957 -0.2581 -0.2259 -0.0108
   66POPC   C4B 1345   1.345   6.940   7.629 -0.3333 -0.4742  0.0834
   67POPC   NC3 1346   6.650   8.420   9.079 -0.1409 -0.0797  0.1098
   67POPC   PO4 1347   7.123   8.318   9.113  0.0058 -0.1074  0.1071
   67POPC   GL1 1348   7.109   8.270   8.704  0.1478  0.1566 -0.2330
   67POPC   GL2 1349   7.226   8.468   8.412 -0.2311  0.2042  0.1315
   67POPC   C1A 1350   7.065   8.051   8.177  0.0159  0.1186 -0.1656
   67POPC   D2A 1351   7.171   8.091   7.732  0.0001  0.0894  0.3659
   67POPC   C3A 1352   6.898   7.804   7.667 -0.1486 -0.1280 -0.0551
   67POPC   C4A 1353   6.866   7.433   7.558 -0.1603 -0.1724  0.3137
   67POPC   C1B 1354   7.431   8.566   8.022  0.1053  0.1788  0.1544
   67POPC   C2B 1355   7.465   8.516   7.553 -0.0837 -0.2903 -0.3423
   67POPC   C3B 1356   7.510   8.219   7.135  0.2444  0.0653  0.0200
   67POPC   C4B 1357   7.653   8.016   6.814 -0.1869  0.2692 -0.1365
   68POPC   NC3 1358   3.368   6.457   9.767  0.0974 -0.1273 -0.6180
   68POPC   PO4 1359   2.876   6.589   9.709  0.1176  0.3277 -0.1145
   68POPC   GL1 1360   2.732   6.631   9.344  0.1681 -0.3014 -0.3275
   68POPC   GL2 1361   2.837   6.907   9.176 -0.0763  0.2288 -0.0502
   68POPC   C1A 1362   2.352   6.539   9.176  0.0327  0.2520 -0.0519
   68POPC   D2A 1363   2.051   6.433   8.896 -0.0859 -0.1191  0.0709
   68POPC   C3A 1364   2.054   6.429   8.369  0.1091 -0.2375 -0.0495
   68POPC   C4A 1365   2.264   6.506   7.945 -0.0876 -0.3706  0.0587
   68POPC   C1B 1366   2.507   6.898   8.921  0.2735 -0.0428  0.1467
   68POPC   C2B 1367   2.442   6.882   8.462 -0.0936  0.0588 -0.1589
   68POPC   C3B 1368   2.168   6.963   8.122 -0.0678  0.2170 -0.0394
   68POPC   C4B 1369   2.171   6.984   7.665 -0.0432 -0.1490 -0.1744
   69POPC   NC3 1370   2.133   4.129   9.395 -0.1420 -0.0481 -0.2373
   69POPC   PO4 1371   2.564   4.069   9.290 -0.0100 -0.0023  0.2392
   69POPC   GL1 1372   2.579   4.225   8.806  0.0321 -0.1856 -0.1637
   69POPC   GL2 1373   2.722   4.523   8.786  0.1864  0.0964  0.0769
   69POPC   C1A 1374   2.744   4.268   8.297 -0.0414  0.0865 -0.1351
   69POPC   D2A 1375   2.897   4.466   7.967 -0.2006 -0.0956 -0.0877
   69POPC   C3A 1376   2.619   4.694   7.703  0.0761  0.0019 -0.2377
   69POPC   C4A 1377   2.380   4.776   7.343  0.1665  0.2736  0.3056
   69POPC   C1B 1378   2.557   4.712   8.346  0.0663 -0.1494  0.0078
   69POPC   C2B 1379   2.340   4.963   8.089  0.0828  0.0941  0.3178
   69POPC   C3B 1380   2.565   5.219   7.747 -0.4426 -0.1609  0.0089
   69POPC   C4B 1381   2.505   5.591   7.535  0.3283 -0.1302 -0.0667
   70POPC   NC3 1382   6.860   6.782   9.202  0.1364 -0.0934 -0.0178
   70POPC   PO4 1383   6.515   6.711   8.834  0.0942 -0.2717  0.0100
   70POPC   GL1 1384   6.621   6.717   8.433 -0.1191  0.3046 -0.0096
   70POPC   GL2 1385   6.567   7.091   8.373 -0.3034 -0.0380  0.0268
   70POPC   C1A 1386   6.977   6.790   8.125 -0.0048 -0.0170  0.0305
   70POPC   D2A 1387   6.936   7.012   7.730 -0.1041 -0.1342 -0.1846
   70POPC   C3A 1388   7.247   7.054   7.470  0.0191  0.0267 -0.1129
   70POPC   C4A 1389   7.581   7.160   7.224 -0.0778 -0.1069 -0.0526
   70POPC   C1B 1390   6.177   7.412   8.223 -0.0068  0.1424 -0.0513
   70POPC   C2B 1391   5.945   7.662   7.994  0.1660 -0.1016 -0.0813
   70POPC   C3B 1392   5.795   7.946   7.733 -0.1299  0.1225  0.1123
   70POPC   C4B 1393   5.857   8.018   7.220  0.0885 -0.0706  0.5304
   71POPC   NC3 1394   6.457   0.558   9.222  0.1184  0.1990  0.0542
   71POPC   PO4 1395   6.846   0.542   9.360  0.0606 -0.0202  0.2862
   71POPC   GL1 1396   6.937   0.518   8.824  0.0063 -0.1731 -0.0739
   71POPC   GL2 1397   6.976   0.674   8.568 -0.1827  0.3009 -0.1049
   71POPC   C1A 1398   6.767   0.235   8.385 -0.4971 -0.0485  0.1495
   71POPC   D2A 1399   6.797   0.272   7.872 -0.2489 -0.3486  0.0050
   71POPC   C3A 1400   6.615   0.452   7.529  0.0919  0.0337 -0.2201
   71POPC   C4A 1401   6.189   0.585   7.378  0.0391 -0.0760  0.0344
   71POPC   C1B 1402   6.860   0.675   8.226 -0.0031 -0.0344 -0.1642
   71POPC   C2B 1403   6.851   0.805   7.796  0.0361  0.0379 -0.2667
   71POPC   C3B 1404   6.956   0.818   7.355 -0.0693 -0.2033 -0.2579
   71POPC   C4B 1405   7.377   0.653   7.118  0.1932  0.0534  0.0058
   72POPC   NC3 1406   5.648   8.008   9.373 -0.1566  0.4818  0.1650
   72POPC   PO4 1407   5.892   7.659   9.427  0.0754 -0.3882 -0.0388
   72POPC   GL1 1408   5.972   7.722   8.988 -0.0173 -0.2100  0.1465
   72POPC   GL2 1409   5.729   7.812   8.973 -0.1250 -0.1001  0.1210
   72POPC   C1A 1410   6.010   7.751   8.537  0.0708  0.3651  0.2049
   72POPC   D2A 1411   6.188   8.058   8.347  0.0824 -0.1391 -0.0960
   72POPC   C3A 1412   6.012   8.298   8.013 -0.2532  0.1192 -0.2495
   72POPC   C4A 1413   5.876   8.611   8.191 -0.2207  0.3329  0.2907
   72POPC   C1B 1414   5.431   7.703   8.668  0.2759  0.1987 -0.2440
   72POPC   C2B 1415   5.030   7.770   8.408  0.3069  0.2104  0.3805
   72POPC   C3B 1416   4.747   7.697   8.016 -0.3133 -0.4203 -0.1685
   72POPC   C4B 1417   4.586   7.383   7.729 -0.2368  0.1584 -0.0912
   73POPC   NC3 1418   5.704   9.178   9.019 -0.1127  0.0376  0.1703
   73POPC   PO4 1419   5.984   8.798   9.110  0.0957  0.2235  0.1661
   73POPC   GL1 1420   5.591   8.674   8.789 -0.2027  0.2912 -0.0080
   73POPC   GL2 1421   5.333   8.877   8.762  0.2572 -0.1179 -0.1434
   73POPC   C1A 1422   5.395   8.487   8.407 -0.0566  0.0225  0.3095
   73POPC   D2A 1423   5.023   8.750   8.167 -0.0137 -0.1342 -0.2261
   73POPC   C3A 1424   4.607   8.572   7.889  0.0203 -0.1216  0.1492
   73POPC   C4A 1425   4.369   8.400   7.545 -0.0497 -0.3779  0.1549
   73POPC   C1B 1426   5.472   9.062   8.403 -0.1176 -0.1428 -0.0293
   73POPC   C2B 1427   5.535   8.956   7.968 -0.1072 -0.1342  0.3371
   73POPC   C3B 1428   5.375   8.794   7.550 -0.2903  0.0430  0.0879
   73POPC   C4B 1429   5.039   8.614   7.284 -0.0693  0.0720  0.0232
   74POPC   NC3 1430   5.438   5.642   9.316 -0.1753 -0.1221  0.0550
   74POPC   PO4 1431   5.057   5.677   9.226  0.1953 -0.2236 -0.0675
   74POPC   GL1 1432   5.126   5.863   8.829 -0.2072 -0.0371  0.0743
   74POPC   GL2 1433   4.883   5.797   8.760  0.1026  0.0057 -0.0511
   74POPC   C1A 1434   5.393   5.920   8.514 -0.5075 -0.0497 -0.3579
   74POPC   D2A 1435   5.704   6.118   8.486 -0.0544  0.6485 -0.3050
   74POPC   C3A 1436   5.812   6.161   8.127 -0.2532 -0.2215  0.0368
   74POPC   C4A 1437   5.733   5.997   7.767  0.2863  0.5108 -0.1981
   74POPC   C1B 1438   4.922   5.911   8.356  0.0575  0.1825 -0.1087
   74POPC   C2B 1439   4.708   6.252   8.161 -0.3223  0.3119 -0.2024
   74POPC   C3B 1440   4.658   6.368   7.751  0.1656  0.1489  0.0899
   74POPC   C4B 1441   4.312   6.370   7.453 -0.0567  0.0392  0.1001
   75POPC   NC3 1442   7.613   5.337   9.161  0.2269 -0.1432  0.2407
   75POPC   PO4 1443   7.569   4.852   9.071 -0.0137 -0.1337  0.0849
   75POPC   GL1 1444   7.747   4.632   8.743 -0.3757 -0.0689  0.0417
   75POPC   GL2 1445   8.139   4.628   8.630 -0.0491  0.1838 -0.0362
   75POPC   C1A 1446   7.641   4.578   8.253  0.1826 -0.2363  0.1304
   75POPC   D2A 1447   7.367   4.467   7.846  0.2878 -0.1000  0.1060
   75POPC   C3A 1448   6.989   4.548   7.800  0.0678 -0.2864 -0.1275
   75POPC   C4A 1449   6.708   4.457   7.424  0.0898 -0.0122  0.1460
   75POPC   C1B 1450   8.096   4.479   8.184 -0.0159  0.0550  0.1497
   75POPC   C2B 1451   7.901   4.535   7.761  0.0405  0.1863 -0.1545
   75POPC   C3B 1452   7.929   4.571   7.363 -0.1484 -0.0444 -0.0244
   75POPC   C4B 1453   7.748   4.831   7.139 -0.0494  0.1752  0.1480
   76POPC   NC3 1454   7.704   9.585   8.668  0.1904 -0.2253 -0.4093
   76POPC   PO4 1455   7.234   9.623   8.832  0.1752 -0.3052 -0.2846
   76POPC   GL1 1456   7.128   9.725   8.436 -0.1050  0.1481  0.4217
   76POPC   GL2 1457   7.455   9.614   8.220  0.1034  0.2529  0.0252
   76POPC   C1A 1458   7.019   9.499   8.000 -0.1566 -0.0115 -0.1362
   76POPC   D2A 1459   6.936   9.693   7.629  0.1783 -0.1230  0.0960
   76POPC   C3A 1460   6.549   9.587   7.539  0.0422  0.2199  0.1168
   76POPC   C4A 1461   6.215   9.843   7.419 -0.2458 -0.0134  0.2473
   76POPC   C1B 1462   7.481   9.499   7.774 -0.2027 -0.1483 -0.2546
   76POPC   C2B 1463   7.841   9.656   7.555  0.1788  0.2319  0.2760
   76POPC   C3B 1464   7.944   9.825   7.143 -0.3074 -0.0953  0.2671
   76POPC   C4B 1465   8.091  10.232   6.981 -0.1493  0.0561  0.0602
   77POPC   NC3 1466   4.788   9.437   9.627 -0.0888  0.0741 -0.0339
   77POPC   PO4 1467   4.883   9.075   9.235 -0.0309  0.4785 -0.0140
   77POPC   GL1 1468   4.900   9.127   8.829  0.0993 -0.3104 -0.1476
   77POPC   GL2 1469   4.807   8.781   8.669  0.0188  0.3317 -0.0366
   77POPC   C1A 1470   4.953   9.211   8.391 -0.1688  0.2221  0.1489
   77POPC   D2A 1471   5.161   9.291   8.030 -0.0077 -0.1765 -0.1935
   77POPC   C3A 1472   4.906   9.573   7.887  0.1407 -0.0220 -0.0892
   77POPC   C4A 1473   4.891   9.902   7.589  0.2848 -0.2180  0.1072
   77POPC   C1B 1474   4.541   8.886   8.401  0.0532  0.1508  0.0825
   77POPC   C2B 1475   4.751   9.056   7.905 -0.2234 -0.1368  0.3018
   77POPC   C3B 1476   5.042   9.160   7.513  0.3180 -0.0499  0.0112
   77POPC   C4B 1477   5.165   9.591   7.374 -0.0119 -0.0503  0.2544
   78POPC   NC3 1478   8.854   1.009   9.179  0.2264  0.0167 -0.2471
   78POPC   PO4 1479   9.264   0.846   9.260  0.0785  0.1238 -0.3489
   78POPC   GL1 1480   9.051   0.820   8.778 -0.0819  0.2437  0.1500
   78POPC   GL2 1481   9.058   1.136   8.602 -0.1664  0.0350 -0.2836
   78POPC   C1A 1482   8.868   0.687   8.393 -0.2127 -0.3416 -0.1856
   78POPC   D2A 1483   9.002   0.616   7.976 -0.0281  0.1941  0.0718
   78POPC   C3A 1484   9.269   0.187   7.944  0.0050 -0.0601 -0.0567
   78POPC   C4A 1485   9.646   0.267   7.956  0.3154 -0.1025  0.0773
   78POPC   C1B 1486   9.387   1.037   8.267 -0.0756  0.4536  0.1322
   78POPC   C2B 1487   9.474   0.759   7.966  0.1908 -0.0338 -0.0446
   78POPC   C3B 1488   9.260   0.524   7.572 -0.1370  0.1629 -0.2776
   78POPC   C4B 1489   8.982   0.721   7.314  0.0031 -0.4016  0.0578
   79POPC   NC3 1490   1.369   6.628   9.994 -0.1935 -0.5420 -0.2164
   79POPC   PO4 1491   1.486   6.655   9.592 -0.0026 -0.0265 -0.1340
   79POPC   GL1 1492   1.510   6.404   9.237  0.0045  0.0385  0.3054
   79POPC   GL2 1493   1.504   6.575   8.955 -0.0217  0.0556 -0.2929
   79POPC   C1A 1494   1.280   6.124   8.899 -0.1834 -0.0674  0.3739
   79POPC   D2A 1495   1.106   5.609   8.709 -0.0277 -0.0843  0.1542
   79POPC   C3A 1496   1.430   5.251   8.674  0.0033 -0.1303 -0.3286
   79POPC   C4A 1497   1.758   5.355   8.747  0.1759 -0.1040  0.1361
   79POPC   C1B 1498   1.577   6.405   8.592  0.0386  0.1047  0.1205
   79POPC   C2B 1499   1.516   6.291   8.183 -0.5093  0.0780 -0.2361
   79POPC   C3B 1500   1.411   6.273   7.718 -0.1302  0.0450 -0.2399
   79POPC   C4B 1501   1.498   6.303   7.290  0.0609  0.2018  0.0087
   80POPC   NC3 1502   9.483   5.360   9.086  0.1644 -0.4279 -0.0615
   80POPC   PO4 1503   9.957   5.558   9.075  0.0875  0.1044 -0.1490
   80POPC   GL1 1504   9.969   5.454   8.599 -0.1055  0.5213  0.2112
   80POPC   GL2 1505  10.219   5.149   8.656 -0.2165 -0.4061  0.1097
   80POPC   C1A 1506  10.368   5.425   8.288  0.0740  0.0628 -0.1681
   80POPC   D2A 1507  10.714   5.320   8.087  0.0507 -0.1003  0.1113
   80POPC   C3A 1508  10.786   5.079   7.692 -0.1574 -0.0767 -0.1750
   80POPC   C4A 1509  11.091   4.953   7.381 -0.1788  0.2350 -0.3872
   80POPC   C1B 1510   9.937   5.022   8.340  0.0402  0.1381  0.1155
   80POPC   C2B 1511   9.891   4.837   7.934 -0.0941  0.2123 -0.2120
   80POPC   C3B 1512  10.043   4.818   7.531  0.3037 -0.2108  0.2293
   80POPC   C4B 1513   9.839   4.670   7.081 -0.2850  0.0987 -0.3586
   81POPC   NC3 1514  10.037   3.546   9.332  0.4483 -0.0875 -0.1347
   81POPC   PO4 1515   9.973   3.609   8.903  0.2062 -0.1885 -0.3218
   81POPC   GL1 1516  10.294   3.749   8.657  0.3271 -0.1875 -0.2729
   81POPC   GL2 1517  10.196   4.022   8.599 -0.0941  0.1742 -0.5811
   81POPC   C1A 1518  10.611   3.717   8.440 -0.1098 -0.1046  0.3579
   81POPC   D2A 1519  10.829   3.422   8.121 -0.1282  0.2200  0.1919
   81POPC   C3A 1520  10.513   3.321   7.816 -0.0318 -0.0108  0.1768
   81POPC   C4A 1521  10.378   3.370   7.380  0.0539 -0.2266 -0.0018
   81POPC   C1B 1522  10.254   4.082   8.203  0.0695 -0.2438 -0.2152
   81POPC   C2B 1523   9.941   4.092   7.860  0.2007 -0.1055 -0.2802
   81POPC   C3B 1524   9.706   3.966   7.559  0.1438 -0.1794  0.0703
   81POPC   C4B 1525   9.973   3.775   7.205  0.2378  0.2264  0.1719
   82POPC   NC3 1526   3.015   8.448   9.720  0.1174 -0.2500  0.1027
   82POPC   PO4 1527   2.763   8.782   9.999 -0.2851 -0.3146 -0.0401
   82POPC   GL1 1528   2.487   8.503   9.662  0.0611 -0.0277  0.2932
   82POPC   GL2 1529   2.689   8.454   9.330  0.2451  0.0440  0.0500
   82POPC   C1A 1530   2.168   8.169   9.522 -0.0353  0.0623 -0.0476
   82POPC   D2A 1531   2.186   8.206   9.094  0.1756 -0.1252  0.1093
   82POPC   C3A 1532   1.962   7.921   8.807 -0.1216 -0.0171  0.0183
   82POPC   C4A 1533   1.792   7.824   8.387 -0.0617 -0.0554 -0.1916
   82POPC   C1B 1534   2.777   8.350   8.853  0.1283 -0.0285  0.0939
   82POPC   C2B 1535   2.438   8.584   8.614 -0.1858  0.3758 -0.0895
   82POPC   C3B 1536   2.123   8.866   8.475  0.2397  0.1117  0.3778
   82POPC   C4B 1537   1.903   9.337   8.484 -0.1799  0.0853  0.1121
   83POPC   NC3 1538   7.183   0.128   9.207 -0.3559  0.2958 -0.1735
   83POPC   PO4 1539   7.549   0.337   9.191 -0.1279  0.0281 -0.0839
   83POPC   GL1 1540   7.537   0.177   8.848 -0.1464  0.2392 -0.2061
   83POPC   GL2 1541   7.515  -0.129   8.656  0.3230  0.3369  0.0723
   83POPC   C1A 1542   7.353   0.341   8.400  0.0665  0.0474 -0.0045
   83POPC   D2A 1543   7.330   0.744   8.055  0.0983  0.1416 -0.1392
   83POPC   C3A 1544   7.558   0.709   7.612 -0.1156  0.0232  0.1320
   83POPC   C4A 1545   7.863   0.911   7.145 -0.1581  0.1264 -0.4889
   83POPC   C1B 1546   7.563  -0.076   8.252  0.2319 -0.1335  0.2171
   83POPC   C2B 1547   7.779  -0.098   7.845 -0.2462 -0.1652  0.0410
   83POPC   C3B 1548   7.953   0.265   7.649  0.1591 -0.0983  0.3305
   83POPC   C4B 1549   7.966   0.453   7.222 -0.0504  0.0827 -0.0368
   84POPC   NC3 1550   8.994   4.487   9.224 -0.0638 -0.2100  0.0673
   84POPC   PO4 1551   9.323   4.060   9.195  0.5291 -0.0051 -0.2740
   84POPC   GL1 1552   9.108   4.170   8.895  0.1901  0.3302  0.2277
   84POPC   GL2 1553   9.097   4.565   8.703 -0.1352  0.1957 -0.1320
   84POPC   C1A 1554   9.372   4.165   8.496 -0.2295 -0.0597  0.3484
   84POPC   D2A 1555   9.713   4.034   8.269  0.0555 -0.0806 -0.1828
   84POPC   C3A 1556   9.853   3.636   7.955 -0.3261  0.0988 -0.2062
   84POPC   C4A 1557  10.089   3.616   7.681  0.1100 -0.1849 -0.2730
   84POPC   C1B 1558   9.197   4.666   8.226  0.1064 -0.1075  0.0695
   84POPC   C2B 1559   8.929   4.818   7.905  0.0072 -0.0866 -0.0277
   84POPC   C3B 1560   8.665   5.115   7.853 -0.2232  0.4257  0.1124
   84POPC   C4B 1561   8.564   5.341   7.500 -0.1406  0.1600 -0.1381
   85POPC   NC3 1562   0.912   7.524  10.220 -0.0870 -0.0939  0.1075
   85POPC   PO4 1563   1.248   7.833  10.399 -0.1492 -0.0803  0.3509
   85POPC   GL1 1564   1.222   7.919  10.007  0.0978 -0.0853 -0.1657
   85POPC   GL2 1565   1.166   8.110   9.790  0.0860 -0.2553  0.2532
   85POPC   C1A 1566   1.498   7.682   9.764  0.1543 -0.0331 -0.1230
   85POPC   D2A 1567   1.660   7.488   9.456  0.2945  0.2407  0.4087
   85POPC   C3A 1568   1.457   7.256   9.131  0.0150 -0.3030  0.0849
   85POPC   C4A 1569   1.483   6.999   8.694  0.2121  0.0215  0.2896
   85POPC   C1B 1570   1.166   7.875   9.373  0.0967  0.1092 -0.0937
   85POPC   C2B 1571   1.033   7.465   9.083 -0.0621 -0.0204  0.1206
   85POPC   C3B 1572   1.019   7.142   8.825 -0.0982  0.0426  0.2860
   85POPC   C4B 1573   1.047   6.723   8.875  0.0783  0.1083  0.2393
   86POPC   NC3 1574   3.968   1.518   9.292 -0.0191  0.2129  0.2703
   86POPC   PO4 1575   4.382   1.426   9.095  0.0634 -0.0548  0.0014
   86POPC   GL1 1576   4.307   1.190   8.786 -0.3350  0.1120 -0.0531
   86POPC   GL2 1577   4.469   0.871   8.700 -0.0426 -0.3616 -0.1940
   86POPC   C1A 1578   4.053   1.263   8.398  0.0198  0.1446 -0.0352
   86POPC   D2A 1579   3.751   1.234   8.021 -0.1342  0.1960  0.0898
   86POPC   C3A 1580   3.861   1.234   7.636 -0.1233 -0.2304  0.0530
   86POPC   C4A 1581   3.882   0.923   7.311  0.0871  0.1618  0.0196
   86POPC   C1B 1582   4.523   1.033   8.227  0.3354  0.2386 -0.0633
   86POPC   C2B 1583   4.514   1.012   7.805  0.0842  0.1165 -0.2421
   86POPC   C3B 1584   4.370   1.099   7.431 -0.3070 -0.1348  0.0659
   86POPC   C4B 1585   4.365   0.970   7.024  0.1282  0.2919 -0.1572
   87POPC   NC3 1586   2.691   5.675   9.518 -0.2234  0.0693  0.2724
   87POPC   PO4 1587   2.237   5.578   9.333  0.3025  0.1421  0.2071
   87POPC   GL1 1588   2.427   5.623   9.012 -0.0886  0.1319  0.3677
   87POPC   GL2 1589   2.102   5.702   8.881 -0.0338 -0.0000 -0.1032
   87POPC   C1A 1590   2.536   5.727   8.696  0.0141 -0.0310  0.0136
   87POPC   D2A 1591   2.734   5.975   8.371  0.1184  0.0172  0.1589
   87POPC   C3A 1592   2.651   6.099   7.913  0.0668  0.1075  0.2765
   87POPC   C4A 1593   2.225   5.915   7.798 -0.0521  0.3673 -0.3798
   87POPC   C1B 1594   1.669   5.876   8.763 -0.1039  0.0044  0.0137
   87POPC   C2B 1595   1.374   5.883   8.409  0.0313  0.0553  0.2928
   87POPC   C3B 1596   1.146   5.951   8.054  0.3662 -0.0529 -0.2716
   87POPC   C4B 1597   0.949   6.290   7.878  0.3086  0.3343 -0.3902
   88POPC   NC3 1598   0.643   1.195   9.564 -0.3721 -0.2577 -0.0377
   88POPC   PO4 1599   0.221   0.971   9.386 -0.1651 -0.5547  0.0923
   88POPC   GL1 1600   0.346   0.970   9.090 -0.0541  0.5322 -0.3225
   88POPC   GL2 1601   0.633   1.099   8.917 -0.2483  0.0833  0.0296
   88POPC   C1A 1602   0.563   0.594   8.987  0.2041  0.0944  0.1338
   88POPC   D2A 1603   0.663   0.400   8.594 -0.3200 -0.2768 -0.2549
   88POPC   C3A 1604   0.449   0.120   8.347 -0.0708  0.1299  0.3007
   88POPC   C4A 1605   0.367  -0.002   7.908 -0.2307 -0.0704 -0.0089
   88POPC   C1B 1606   0.410   1.255   8.455  0.5036  0.2790 -0.2370
   88POPC   C2B 1607   0.388   1.540   8.013  0.0523  0.1513 -0.1271
   88POPC   C3B 1608   0.132   1.824   7.718 -0.2733 -0.4029 -0.1283
   88POPC   C4B 1609   0.007   2.154   7.360  0.4978 -0.1326 -0.3561
   89POPC   NC3 1610   0.392   9.074  10.248 -0.2038  0.0933 -0.0202
   89POPC   PO4 1611   0.221   9.081   9.902  0.2916 -0.0540  0.3175
   89POPC   GL1 1612   0.258   8.897   9.485 -0.1179  0.0671  0.1795
   89POPC   GL2 1613   0.436   8.625   9.395  0.0965 -0.0113 -0.0065
   89POPC   C1A 1614   0.198   8.712   8.969  0.1898 -0.2953 -0.0153
   89POPC   D2A 1615   0.126   8.609   8.597 -0.3746 -0.1906  0.4379
   89POPC   C3A 1616  -0.233   8.735   8.355 -0.2748 -0.0961 -0.1863
   89POPC   C4A 1617  -0.562   8.892   8.172 -0.4464 -0.0737 -0.2319
   89POPC   C1B 1618   0.926   8.826   9.220  0.0360 -0.1951 -0.1721
   89POPC   C2B 1619   1.258   8.844   8.968 -0.2157  0.1138 -0.0284
   89POPC   C3B 1620   1.550   8.829   9.051 -0.0639 -0.1017  0.0386
   89POPC   C4B 1621   1.773   8.437   9.194  0.3123  0.0914  0.2900
   90POPC   NC3 1622   3.914   7.301   9.830  0.4094  0.1030 -0.0233
   90POPC   PO4 1623   3.691   7.536   9.491  0.2754  0.0672 -0.2358
   90POPC   GL1 1624   3.488   7.782   9.110 -0.2045  0.1961 -0.0783
   90POPC   GL2 1625   3.688   7.750   8.803  0.1144  0.3024  0.0648
   90POPC   C1A 1626   3.112   7.820   8.895  0.0459 -0.0567 -0.2917
   90POPC   D2A 1627   2.740   7.785   8.702  0.0736 -0.1286  0.1341
   90POPC   C3A 1628   2.417   8.059   8.665  0.1833 -0.0348  0.1419
   90POPC   C4A 1629   1.963   8.393   8.679 -0.1976 -0.0000  0.1436
   90POPC   C1B 1630   3.564   7.422   8.731  0.1662  0.3568  0.1901
   90POPC   C2B 1631   3.403   7.234   8.436  0.3993 -0.0237  0.1253
   90POPC   C3B 1632   3.337   7.358   8.039 -0.0074 -0.1568 -0.1336
   90POPC   C4B 1633   3.010   7.496   7.800 -0.0670 -0.1629  0.3545
   91POPC   NC3 1634   4.662   0.339   9.726 -0.1488 -0.1132  0.0377
   91POPC   PO4 1635   4.437   0.317   9.325 -0.1959 -0.1252 -0.2780
   91POPC   GL1 1636   4.148   0.327   8.955 -0.0139  0.0485 -0.0549
   91POPC   GL2 1637   4.045   0.619   8.866  0.0868  0.2204  0.2689
   91POPC   C1A 1638   3.940   0.238   8.588 -0.2525 -0.1137  0.1084
   91POPC   D2A 1639   3.995   0.303   8.119  0.0689  0.2984 -0.0398
   91POPC   C3A 1640   3.936   0.292   7.678  0.1479  0.1668 -0.1471
   91POPC   C4A 1641   3.734   0.451   7.268  0.0606  0.3859 -0.0116
   91POPC   C1B 1642   3.915   0.739   8.446  0.1763 -0.2414  0.1024
   91POPC   C2B 1643   4.081   0.883   8.075  0.0463 -0.0622 -0.1337
   91POPC   C3B 1644   4.102   0.783   7.759 -0.4339 -0.1425  0.0483
   91POPC   C4B 1645   4.253   0.568   7.335  0.2565  0.2820  0.2389
   92POPC   NC3 1646   6.374   7.645   9.264  0.0092  0.3778  0.0044
   92POPC   PO4 1647   6.275   8.184   9.298 -0.0295  0.2127 -0.0726
   92POPC   GL1 1648   6.003   8.285   9.075  0.0679  0.0283 -0.1014
   92POPC   GL2 1649   6.176   8.427   8.808 -0.4505 -0.4634  0.4025
   92POPC   C1A 1650   5.715   8.198   8.662  0.2094 -0.0703 -0.0347
   92POPC   D2A 1651   5.574   8.057   8.222  0.0743 -0.1736  0.1278
   92POPC   C3A 1652   5.509   8.426   7.882  0.1862  0.2738 -0.0187
   92POPC   C4A 1653   5.441   8.284   7.394  0.0636 -0.0340  0.1512
   92POPC   C1B 1654   6.629   8.296   8.460 -0.0404  0.1692  0.0190
   92POPC   C2B 1655   6.545   8.272   8.113 -0.2182 -0.4081  0.2223
   92POPC   C3B 1656   6.405   8.392   7.685  0.3260  0.1568  0.0572
   92POPC   C4B 1657   6.368   8.815   7.470  0.0141  0.3157  0.4448
   93POPC   NC3 1658   8.786   3.853   9.177  0.3772 -0.2174 -0.1026
   93POPC   PO4 1659   8.294   3.839   9.085  0.1205  0.2734  0.0699
   93POPC   GL1 1660   8.333   3.658   8.738  0.0020  0.1036 -0.0686
   93POPC   GL2 1661   8.087   3.462   8.539 -0.2113  0.2957 -0.0939
   93POPC   C1A 1662   8.561   3.686   8.256 -0.2892 -0.2862 -0.2646
   93POPC   D2A 1663   8.703   3.567   7.947 -0.0178 -0.1212 -0.0020
   93POPC   C3A 1664   8.992   3.573   7.708  0.1426 -0.2608  0.2288
   93POPC   C4A 1665   9.090   3.567   7.345  0.0743  0.0910 -0.4398
   93POPC   C1B 1666   8.179   3.400   8.079  0.1981  0.3085  0.0836
   93POPC   C2B 1667   8.133   3.181   7.669 -0.3097  0.0852 -0.0453
   93POPC   C3B 1668   8.317   3.034   7.190  0.0700  0.0322  0.0359
   93POPC   C4B 1669   8.343   3.148   6.787 -0.1728  0.0353  0.0974
   94POPC   NC3 1670   7.483   4.277   8.959  0.2827 -0.1702 -0.0417
   94POPC   PO4 1671   7.295   3.800   8.902 -0.0600  0.0087 -0.1666
   94POPC   GL1 1672   7.397   3.732   8.421 -0.0455  0.0940 -0.0667
   94POPC   GL2 1673   7.073   3.758   8.265  0.0390  0.1873 -0.2895
   94POPC   C1A 1674   7.655   3.456   8.154  0.2334  0.1229 -0.1333
   94POPC   D2A 1675   7.685   3.036   7.979 -0.0242  0.1881 -0.0818
   94POPC   C3A 1676   7.199   2.825   7.914  0.0026 -0.0059 -0.1625
   94POPC   C4A 1677   6.841   2.938   7.823 -0.4652  0.0833  0.1377
   94POPC   C1B 1678   7.265   3.841   7.913 -0.1865 -0.0595  0.2229
   94POPC   C2B 1679   7.341   3.647   7.470  0.2159 -0.2648  0.0962
   94POPC   C3B 1680   7.381   3.441   7.096  0.1128  0.1274 -0.2046
   94POPC   C4B 1681   7.595   3.540   6.798 -0.2896  0.1509 -0.2352
   95POPC   NC3 1682   0.709   2.950   9.404  0.0036  0.0114 -0.0237
   95POPC   PO4 1683   1.005   2.667   9.529  0.1762  0.1766  0.5860
   95POPC   GL1 1684   0.982   2.728   9.090 -0.2778  0.2066  0.1276
   95POPC   GL2 1685   0.911   3.032   8.945  0.1252  0.6945  0.1751
   95POPC   C1A 1686   0.954   2.504   8.770 -0.0833 -0.3784 -0.0947
   95POPC   D2A 1687   0.928   2.395   8.357 -0.1293 -0.0928 -0.0041
   95POPC   C3A 1688   1.005   2.597   8.049  0.3431  0.1664 -0.0218
   95POPC   C4A 1689   0.832   2.404   7.753  0.1530  0.1610 -0.0591
   95POPC   C1B 1690   1.105   2.922   8.587  0.1211  0.2500 -0.1578
   95POPC   C2B 1691   1.134   3.084   8.162  0.0467 -0.1950  0.3003
   95POPC   C3B 1692   1.167   3.502   8.056 -0.3624 -0.1508 -0.1411
   95POPC   C4B 1693   1.313   3.863   8.340  0.3684  0.2962  0.0957
   96POPC   NC3 1694   0.406   4.196   9.438 -0.1912  0.2140 -0.1218
   96POPC   PO4 1695   0.438   3.712   9.284  0.1933  0.3797 -0.0947
   96POPC   GL1 1696   0.634   3.877   8.868 -0.1797 -0.0431 -0.2776
   96POPC   GL2 1697   0.515   4.175   8.899 -0.1368 -0.0740  0.1786
   96POPC   C1A 1698   0.903   4.026   8.516  0.0816  0.1362 -0.1347
   96POPC   D2A 1699   0.798   3.920   8.103  0.1366 -0.1449 -0.1151
   96POPC   C3A 1700   0.457   3.840   7.896 -0.0589 -0.2120 -0.1852
   96POPC   C4A 1701   0.260   3.961   7.745 -0.0575  0.5322 -0.0731
   96POPC   C1B 1702   0.400   4.322   8.496  0.0424  0.2137  0.1583
   96POPC   C2B 1703   0.504   4.323   8.091  0.0024 -0.2044  0.1308
   96POPC   C3B 1704   0.758   4.576   7.824 -0.0606  0.1045 -0.0498
   96POPC   C4B 1705   1.038   4.496   7.468 -0.1958  0.2272  0.1792
   97POPC   NC3 1706   7.761   7.586   9.077 -0.2704 -0.2260  0.0717
   97POPC   PO4 1707   8.140   7.270   9.025 -0.3154 -0.1581  0.0275
   97POPC   GL1 1708   8.024   7.227   8.618  0.2622 -0.0106  0.2388
   97POPC   GL2 1709   7.847   6.999   8.541 -0.0043 -0.3196 -0.0854
   97POPC   C1A 1710   8.194   7.078   8.208 -0.0071  0.0099  0.1536
   97POPC   D2A 1711   8.191   6.935   7.696  0.0173 -0.0287 -0.1975
   97POPC   C3A 1712   8.560   6.898   7.481  0.1347 -0.4588  0.3868
   97POPC   C4A 1713   8.902   6.704   7.233  0.0190  0.0059 -0.0791
   97POPC   C1B 1714   7.798   6.911   8.062 -0.2305  0.0295 -0.2966
   97POPC   C2B 1715   7.695   6.722   7.589  0.0437 -0.2274  0.0231
   97POPC   C3B 1716   7.489   6.610   7.153 -0.2259  0.1158 -0.0734
   97POPC   C4B 1717   7.358   6.999   6.838  0.0537  0.0931  0.4534
   98POPC   NC3 1718   8.779   5.137   8.991  0.1336  0.2017  0.3885
   98POPC   PO4 1719   8.613   4.731   8.950  0.1375 -0.1808 -0.2405
   98POPC   GL1 1720   8.592   4.694   8.545 -0.2819 -0.1242 -0.1177
   98POPC   GL2 1721   8.720   4.965   8.496  0.0403  0.1488 -0.2337
   98POPC   C1A 1722   8.563   4.657   8.167 -0.1984 -0.1662 -0.1668
   98POPC   D2A 1723   8.355   4.697   7.708  0.0428 -0.1278 -0.0957
   98POPC   C3A 1724   8.638   4.856   7.415 -0.0333  0.0609 -0.0934
   98POPC   C4A 1725   9.002   5.074   7.349  0.0613  0.0379 -0.0596
   98POPC   C1B 1726   9.011   5.232   8.197  0.2030 -0.3145  0.0301
   98POPC   C2B 1727   9.014   5.482   7.832 -0.2011 -0.0629  0.1652
   98POPC   C3B 1728   9.275   5.448   7.458 -0.0742 -0.1927 -0.1204
   98POPC   C4B 1729   9.713   5.532   7.354  0.1429 -0.1629 -0.0068
   99POPC   NC3 1730   2.298   1.696   9.707  0.5046  0.0175  0.0598
   99POPC   PO4 1731   2.112   1.820   9.377 -0.0802 -0.0110 -0.5828
   99POPC   GL1 1732   2.220   2.080   8.969  0.2254 -0.1549  0.1796
   99POPC   GL2 1733   2.177   1.732   8.833 -0.0935  0.1997 -0.1799
   99POPC   C1A 1734   2.408   2.036   8.538  0.0659  0.2497  0.0074
   99POPC   D2A 1735   2.740   1.897   8.191  0.1809 -0.6852 -0.0129
   99POPC   C3A 1736   2.756   2.137   7.793  0.1899 -0.0039  0.0451
   99POPC   C4A 1737   2.981   2.091   7.360 -0.0188 -0.1669  0.1069
   99POPC   C1B 1738   2.367   1.332   8.861 -0.2604  0.3615 -0.2682
   99POPC   C2B 1739   2.072   1.006   8.636  0.1310 -0.3057 -0.0032
   99POPC   C3B 1740   1.877   0.637   8.615 -0.0154  0.0336  0.1462
   99POPC   C4B 1741   1.405   0.632   8.568  0.0337 -0.0573 -0.0038
  100POPC   NC3 1742   8.669   5.526   9.288 -0.0441 -0.0916  0.0719
  100POPC   PO4 1743   9.066   5.541   8.967  0.1217 -0.1485  0.3131
  100POPC   GL1 1744   9.131   5.585   8.565  0.0924 -0.1609  0.0569
  100POPC   GL2 1745   9.455   5.483   8.497  0.2074  0.2890  0.1817
  100POPC   C1A 1746   9.262   5.898   8.288 -0.1657 -0.0851  0.1262
  100POPC   D2A 1747   9.399   5.793   7.930  0.0441  0.0158 -0.2073
  100POPC   C3A 1748   9.268   5.976   7.557 -0.2677  0.1358  0.1216
  100POPC   C4A 1749   9.313   6.366   7.427 -0.2471  0.0524 -0.1070
  100POPC   C1B 1750   9.515   5.253   8.185  0.0062  0.1913  0.3633
  100POPC   C2B 1751   9.387   5.022   7.848  0.4096  0.0236 -0.0029
  100POPC   C3B 1752   9.521   5.047   7.387 -0.1061  0.0590 -0.0843
  100POPC   C4B 1753   9.480   5.255   6.953  0.0045 -0.0087 -0.4928
  101POPC   NC3 1754   4.806   1.679   9.215 -0.2022 -0.1320  0.1585
  101POPC   PO4 1755   5.143   1.854   9.166 -0.2038 -0.0267  0.0223
  101POPC   GL1 1756   5.041   1.574   8.745 -0.0969 -0.0488  0.1926
  101POPC   GL2 1757   4.687   1.554   8.585 -0.0853 -0.0296 -0.2072
  101POPC   C1A 1758   5.319   1.489   8.316 -0.0516  0.1301  0.1750
  101POPC   D2A 1759   5.443   1.222   7.965 -0.0391 -0.1200  0.1045
  101POPC   C3A 1760   5.837   0.991   8.025 -0.1163  0.0707 -0.0215
  101POPC   C4A 1761   6.184   0.795   8.360  0.2608  0.0570 -0.1155
  101POPC   C1B 1762   4.645   1.747   8.083  0.1109  0.1088 -0.1053
  101POPC   C2B 1763   4.511   2.010   7.748  0.1385  0.2106  0.0621
  101POPC   C3B 1764   4.170   2.008   7.681  0.1365  0.1196  0.3639
  101POPC   C4B 1765   4.173   1.625   7.354 -0.0827  0.2198 -0.1237
  102POPC   NC3 1766   4.582   6.694   9.100  0.4141 -0.0101  0.3140
  102POPC   PO4 1767   4.597   7.068   9.372 -0.1119  0.0768  0.1954
  102POPC   GL1 1768   4.397   7.186   9.048  0.4342 -0.1003 -0.2032
  102POPC   GL2 1769   4.120   7.321   8.947 -0.5163  0.1403 -0.1734
  102POPC   C1A 1770   4.371   7.027   8.665  0.0948 -0.2719  0.4029
  102POPC   D2A 1771   4.551   6.793   8.308  0.1911  0.0611  0.0586
  102POPC   C3A 1772   4.654   6.906   7.830  0.2805  0.1799  0.1418
  102POPC   C4A 1773   4.695   6.903   7.468 -0.3826  0.2226 -0.1370
  102POPC   C1B 1774   4.153   7.557   8.591  0.1386  0.0979 -0.0256
  102POPC   C2B 1775   4.127   7.701   8.228  0.1486 -0.0825 -0.2485
  102POPC   C3B 1776   3.923   7.506   7.943 -0.2679  0.1111  0.1040
  102POPC   C4B 1777   4.057   7.473   7.476  0.1054  0.0671 -0.0360
  103POPC   NC3 1778   4.290   6.290   9.270 -0.1320 -0.0377  0.1180
  103POPC   PO4 1779   4.218   5.829   9.201 -0.2315  0.1080 -0.0380
  103POPC   GL1 1780   4.292   5.951   8.846 -0.1991 -0.1559 -0.2635
  103POPC   GL2 1781   4.403   5.696   8.632 -0.1574 -0.1310 -0.4646
  103POPC   C1A 1782   4.240   6.225   8.409 -0.0502  0.1772 -0.0427
  103POPC   D2A 1783   4.247   6.257   8.026 -0.3108  0.0127  0.0338
  103POPC   C3A 1784   4.228   6.677   7.912  0.0786 -0.0835 -0.1038
  103POPC   C4A 1785   4.202   7.020   7.660  0.1499 -0.0560  0.0699
  103POPC   C1B 1786   4.086   5.732   8.239  0.1793 -0.0160 -0.1926
  103POPC   C2B 1787   3.767   5.788   7.938  0.0903  0.2193 -0.0352
  103POPC   C3B 1788   3.470   5.625   7.709 -0.2639  0.2391  0.1844
  103POPC   C4B 1789   3.365   5.322   7.369 -0.1978  0.0123 -0.4446
  104POPC   NC3 1790   1.671   3.641   9.719 -0.3100  0.0787 -0.0762
  104POPC   PO4 1791   1.778   3.754   9.294 -0.2437 -0.2079 -0.3251
  104POPC   GL1 1792   1.847   3.762   8.842 -0.0319  0.2655  0.0599
  104POPC   GL2 1793   2.038   4.076   8.866  0.1030 -0.0885  0.0543
  104POPC   C1A 1794   1.801   3.789   8.324  0.1092  0.1505  0.5003
  104POPC   D2A 1795   1.547   3.776   7.903 -0.0694  0.0094 -0.0984
  104POPC   C3A 1796   1.503   3.560   7.475 -0.0796 -0.0346  0.0184
  104POPC   C4A 1797   1.874   3.694   7.174 -0.0056  0.1841  0.2437
  104POPC   C1B 1798   2.233   3.938   8.539  0.1900  0.1416  0.0051
  104POPC   C2B 1799   2.260   3.964   8.115 -0.1723 -0.3620 -0.0862
  104POPC   C3B 1800   1.999   4.008   7.767  0.3138  0.1735 -0.0682
  104POPC   C4B 1801   1.537   4.057   7.423  0.0089 -0.2017 -0.2529
  105POPC   NC3 1802   7.690   7.058   9.007 -0.0720 -0.0201 -0.4659
  105POPC   PO4 1803   7.459   7.356   8.768 -0.0074 -0.2104  0.2574
  105POPC   GL1 1804   7.184   7.468   8.501  0.0314 -0.1884 -0.1733
  105POPC   GL2 1805   6.921   7.722   8.658  0.0464 -0.1846 -0.0429
  105POPC   C1A 1806   6.939   7.397   8.134  0.1078 -0.0777  0.1003
  105POPC   D2A 1807   6.506   7.260   7.900  0.0622 -0.1401 -0.0483
  105POPC   C3A 1808   6.447   7.021   7.465  0.1416  0.1100  0.0158
  105POPC   C4A 1809   6.558   6.834   7.012  0.1972  0.0343 -0.4293
  105POPC   C1B 1810   6.552   7.741   8.304 -0.2242 -0.0477 -0.1223
  105POPC   C2B 1811   6.403   7.861   7.881  0.0717  0.2077  0.2198
  105POPC   C3B 1812   6.324   7.565   7.585 -0.0697 -0.0087  0.1452
  105POPC   C4B 1813   5.944   7.582   7.425 -0.2685  0.1664 -0.1506
  106POPC   NC3 1814   9.909   9.158   9.742 -0.1141 -0.5415  0.2825
  106POPC   PO4 1815  10.149   9.500   9.728  0.0252 -0.2448  0.1148
  106POPC   GL1 1816  10.130   9.515   9.281  0.2181 -0.2591  0.0704
  106POPC   GL2 1817  10.106   9.843   9.240  0.1856  0.0007 -0.1079
  106POPC   C1A 1818  10.254   9.183   9.037  0.1760  0.2835  0.1109
  106POPC   D2A 1819  10.456   9.138   8.644  0.0545  0.2748  0.2122
  106POPC   C3A 1820  10.506   9.438   8.196  0.0192 -0.0290  0.1555
  106POPC   C4A 1821  10.648   9.731   8.004 -0.0223  0.1099 -0.1616
  106POPC   C1B 1822   9.960  10.018   8.847  0.0592 -0.2759  0.0781
  106POPC   C2B 1823   9.683   9.944   8.528  0.2118  0.1690  0.1847
  106POPC   C3B 1824   9.615  10.019   8.155  0.1808  0.0637 -0.0934
  106POPC   C4B 1825   9.279   9.874   7.863 -0.3323 -0.2599  0.0502
  107POPC   NC3 1826   5.974   4.260   8.741 -0.2425 -0.0941 -0.1540
  107POPC   PO4 1827   5.777   3.914   8.976  0.1117  0.1504 -0.2091
  107POPC   GL1 1828   5.592   3.968   8.508 -0.0048 -0.0720  0.3012
  107POPC   GL2 1829   5.847   3.992   8.280  0.1240  0.0337  0.1838
  107POPC   C1A 1830   5.353   3.840   8.188 -0.0530 -0.3413 -0.0466
  107POPC   D2A 1831   5.107   3.714   7.802 -0.1396  0.2029  0.0568
  107POPC   C3A 1832   4.554   3.807   7.741 -0.3662  0.0490  0.3666
  107POPC   C4A 1833   4.271   3.995   7.489 -0.3355 -0.0819 -0.1695
  107POPC   C1B 1834   5.930   4.036   7.949  0.1695 -0.1702 -0.2576
  107POPC   C2B 1835   6.007   4.082   7.434 -0.0350  0.0295 -0.1746
  107POPC   C3B 1836   6.277   4.162   7.120 -0.3109 -0.1131  0.0754
  107POPC   C4B 1837   6.718   3.948   7.099 -0.2291 -0.0492  0.1844
  108POPC   NC3 1838   2.244   9.144  10.296 -0.0739 -0.1257  0.0845
  108POPC   PO4 1839   2.247   9.662  10.141  0.1123  0.1399  0.2282
  108POPC   GL1 1840   2.128   9.579   9.723  0.0228 -0.2437  0.2851
  108POPC   GL2 1841   1.809   9.714   9.661  0.0807  0.2539 -0.2563
  108POPC   C1A 1842   2.216   9.594   9.234 -0.1869  0.0219 -0.0110
  108POPC   D2A 1843   2.285   9.395   8.784  0.2051 -0.1456  0.3464
  108POPC   C3A 1844   2.248   9.667   8.339  0.2300 -0.0989 -0.1620
  108POPC   C4A 1845   2.239  10.074   8.156  0.2755 -0.0763 -0.0251
  108POPC   C1B 1846   1.639   9.834   9.427 -0.0711  0.1201  0.0600
  108POPC   C2B 1847   1.651  10.161   9.176  0.0384 -0.1087 -0.0455
  108POPC   C3B 1848   1.855  10.390   8.810  0.1037  0.0008 -0.0733
  108POPC   C4B 1849   2.209  10.440   8.504 -0.2868  0.1916  0.0375
  109POPC   NC3 1850   0.934   3.988   9.268  0.2641  0.0368 -0.1582
  109POPC   PO4 1851   1.266   3.632   9.364  0.0326  0.1097 -0.1729
  109POPC   GL1 1852   1.403   3.466   9.006  0.1337  0.1607  0.0153
  109POPC   GL2 1853   1.402   3.074   8.938 -0.3509  0.0280  0.3010
  109POPC   C1A 1854   1.570   3.438   8.608  0.1903  0.0606  0.2190
  109POPC   D2A 1855   1.871   3.262   8.324 -0.1783  0.1161  0.0851
  109POPC   C3A 1856   1.942   3.501   7.925  0.0804  0.0520  0.0085
  109POPC   C4A 1857   1.953   3.350   7.537 -0.3166  0.0373  0.1630
  109POPC   C1B 1858   1.631   2.899   8.527  0.3702  0.3505 -0.0597
  109POPC   C2B 1859   1.480   2.705   8.158  0.0159 -0.0680 -0.1086
  109POPC   C3B 1860   1.664   2.497   7.780  0.0457 -0.1848  0.2688
  109POPC   C4B 1861   1.808   2.133   7.542  0.2863 -0.0418  0.0161
  110POPC   NC3 1862   8.800   2.783   9.043  0.3852 -0.2125 -0.3320
  110POPC   PO4 1863   9.174   2.703   9.111  0.3926  0.1534 -0.0892
  110POPC   GL1 1864   9.418   2.871   8.827 -0.0148 -0.0647  0.1111
  110POPC   GL2 1865   9.676   3.110   8.872  0.1844 -0.0743  0.3107
  110POPC   C1A 1866   9.595   2.752   8.404 -0.2331 -0.1537 -0.0684
  110POPC   D2A 1867   9.479   2.903   7.970  0.0692 -0.0945  0.1329
  110POPC   C3A 1868   9.466   2.771   7.534 -0.0139 -0.0156  0.1184
  110POPC   C4A 1869   9.527   2.379   7.191  0.1153 -0.2637 -0.0066
  110POPC   C1B 1870   9.369   3.250   8.501 -0.1972 -0.0390 -0.3207
  110POPC   C2B 1871   9.405   3.422   8.115 -0.2889  0.2576 -0.1718
  110POPC   C3B 1872   9.464   3.334   7.698 -0.0670  0.0410  0.0723
  110POPC   C4B 1873   9.392   3.181   7.250  0.2049 -0.0345 -0.0871
  111POPC   NC3 1874   9.342   7.926   9.438  0.1127 -0.2885  0.3463
  111POPC   PO4 1875   9.714   7.900   9.381 -0.1825  0.1478 -0.2056
  111POPC   GL1 1876  10.030   8.147   9.134  0.0325  0.0571  0.1347
  111POPC   GL2 1877   9.967   8.370   9.021  0.1899 -0.0538 -0.1117
  111POPC   C1A 1878  10.546   8.288   9.061 -0.1243 -0.0148 -0.1801
  111POPC   D2A 1879  10.855   8.414   8.688 -0.3337  0.0596 -0.2463
  111POPC   C3A 1880  11.260   8.456   8.742  0.2276 -0.0536 -0.2535
  111POPC   C4A 1881  11.585   8.213   8.784 -0.4016  0.2370 -0.0715
  111POPC   C1B 1882   9.601   8.509   8.701  0.2335 -0.1259  0.0150
  111POPC   C2B 1883   9.549   8.333   8.322  0.1418  0.1447  0.1311
  111POPC   C3B 1884   9.310   8.075   7.966  0.0569  0.0594  0.0216
  111POPC   C4B 1885   9.206   7.965   7.459  0.1756 -0.0411 -0.1042
  112POPC   NC3 1886   9.327   0.270   9.336  0.0414 -0.1523  0.0305
  112POPC   PO4 1887   9.367  -0.014   9.593  0.3822  0.2488  0.1885
  112POPC   GL1 1888   9.499  -0.256   9.239 -0.0902 -0.3295  0.1546
  112POPC   GL2 1889   9.517  -0.024   8.982 -0.3783  0.1805 -0.0197
  112POPC   C1A 1890   9.738  -0.592   8.955  0.1513 -0.4759 -0.0067
  112POPC   D2A 1891   9.928  -0.908   8.582 -0.0939 -0.1239 -0.1261
  112POPC   C3A 1892  10.048  -0.931   8.151 -0.1386 -0.0156 -0.1764
  112POPC   C4A 1893   9.984  -0.902   7.793  0.2507 -0.1822  0.1905
  112POPC   C1B 1894   9.093   0.032   8.693 -0.0029  0.0391 -0.2820
  112POPC   C2B 1895   9.177  -0.226   8.405 -0.0336  0.0465 -0.2180
  112POPC   C3B 1896   9.094  -0.637   8.152  0.0719  0.1135  0.0342
  112POPC   C4B 1897   8.894  -1.018   8.193  0.0325  0.2140  0.3020
  113POPC   NC3 1898   2.638   3.848   9.835 -0.1134 -0.3291 -0.3245
  113POPC   PO4 1899   3.022   3.880   9.526  0.2113 -0.0951 -0.2153
  113POPC   GL1 1900   3.000   3.810   9.090 -0.2900 -0.0536 -0.0342
  113POPC   GL2 1901   2.758   3.776   8.846  0.0198 -0.2065 -0.3360
  113POPC   C1A 1902   3.184   3.454   8.852 -0.1273  0.1445 -0.0182
  113POPC   D2A 1903   3.499   3.156   8.742 -0.1065 -0.0357 -0.2037
  113POPC   C3A 1904   3.465   3.070   8.311  0.2769  0.0792  0.0430
  113POPC   C4A 1905   3.532   2.844   7.955 -0.2273 -0.3687  0.1389
  113POPC   C1B 1906   2.693   3.702   8.413  0.1026 -0.2019 -0.0037
  113POPC   C2B 1907   2.470   3.540   8.030  0.1101  0.1545 -0.0942
  113POPC   C3B 1908   2.332   3.685   7.571 -0.0802  0.1153  0.0652
  113POPC   C4B 1909   2.365   3.784   7.077 -0.1279 -0.0693  0.1934
  114POPC   NC3 1910   3.081   6.070   9.767 -0.0804  0.0469  0.3797
  114POPC   PO4 1911   3.168   5.654   9.702  0.2484 -0.1502  0.1295
  114POPC   GL1 1912   3.218   5.710   9.238  0.1588  0.0276  0.1369
  114POPC   GL2 1913   2.900   5.642   9.072  0.2414 -0.3876 -0.1258
  114POPC   C1A 1914   3.298   5.881   8.836  0.1061 -0.3097  0.0970
  114POPC   D2A 1915   3.195   6.109   8.452  0.0104  0.0838 -0.0393
  114POPC   C3A 1916   3.147   5.797   8.094 -0.1437  0.1999  0.4021
  114POPC   C4A 1917   2.905   5.577   7.828 -0.1164  0.4142  0.0485
  114POPC   C1B 1918   2.958   5.574   8.676  0.0710  0.1900  0.0483
  114POPC   C2B 1919   2.840   5.406   8.391 -0.0662  0.0164  0.1814
  114POPC   C3B 1920   2.501   5.550   8.108 -0.0981  0.1287  0.0318
  114POPC   C4B 1921   2.077   5.371   7.916 -0.2009  0.1514  0.1817
  115POPC   NC3 1922   5.606   4.677   9.418 -0.2774 -0.1276  0.1568
  115POPC   PO4 1923   5.755   4.639   9.051  0.0831  0.0561  0.1151
  115POPC   GL1 1924   5.498   4.857   8.698 -0.0770 -0.3593 -0.0129
  115POPC   GL2 1925   5.671   4.922   8.380 -0.0618  0.1049  0.1976
  115POPC   C1A 1926   5.104   4.777   8.460 -0.0078 -0.3001  0.0763
  115POPC   D2A 1927   4.960   4.616   8.157  0.2816  0.4311  0.0420
  115POPC   C3A 1928   5.203   4.576   7.759  0.3124 -0.0584  0.0199
  115POPC   C4A 1929   5.526   4.826   7.471  0.2199  0.0957 -0.2929
  115POPC   C1B 1930   5.457   4.943   8.015 -0.1024  0.0111  0.0301
  115POPC   C2B 1931   5.415   5.247   7.777 -0.0803  0.0688  0.3724
  115POPC   C3B 1932   5.442   5.610   7.509 -0.0032 -0.2758 -0.1212
  115POPC   C4B 1933   5.709   5.823   7.263  0.2199  0.0839  0.0798
  116POPC   NC3 1934   9.176   9.334   9.339 -0.1825 -0.1187  0.0166
  116POPC   PO4 1935   9.150   9.676   9.443  0.0745  0.3993  0.1872
  116POPC   GL1 1936   9.086   9.689   8.973  0.0716 -0.0795 -0.0081
  116POPC   GL2 1937   9.182   9.401   8.834  0.1370  0.0949  0.0950
  116POPC   C1A 1938   8.806   9.592   8.573  0.2853  0.1134 -0.0853
  116POPC   D2A 1939   8.413   9.362   8.415 -0.1941 -0.1949  0.0402
  116POPC   C3A 1940   8.442   8.925   8.127 -0.1236 -0.3701  0.0346
  116POPC   C4A 1941   8.191   8.677   7.830 -0.1053 -0.0214 -0.2359
  116POPC   C1B 1942   9.488   9.511   8.528 -0.1736  0.1913  0.2339
  116POPC   C2B 1943   9.602   9.528   8.154 -0.2521  0.0587 -0.1214
  116POPC   C3B 1944   9.556   9.498   7.733  0.0571  0.1524 -0.1182
  116POPC   C4B 1945   9.201   9.665   7.478  0.1001  0.1634 -0.0866
  117POPC   NC3 1946   5.086   3.219   9.106  0.3196 -0.4473  0.0874
  117POPC   PO4 1947   5.268   2.906   8.829 -0.0539 -0.0122  0.0354
  117POPC   GL1 1948   5.474   2.869   8.642 -0.2875  0.1655  0.2468
  117POPC   GL2 1949   5.659   2.661   8.506  0.2526 -0.0169  0.1250
  117POPC   C1A 1950   5.455   2.958   8.202 -0.0130 -0.4561  0.0846
  117POPC   D2A 1951   5.493   2.849   7.734  0.2036  0.0180  0.2258
  117POPC   C3A 1952   5.061   2.635   7.588  0.1213 -0.1031  0.2645
  117POPC   C4A 1953   4.806   2.329   7.499  0.1877  0.0702 -0.0197
  117POPC   C1B 1954   5.989   2.596   8.279  0.1367 -0.0217 -0.1702
  117POPC   C2B 1955   5.881   2.516   7.827 -0.0463 -0.0705  0.1372
  117POPC   C3B 1956   5.833   2.368   7.322 -0.0223  0.1657 -0.1737
  117POPC   C4B 1957   5.863   2.532   6.928  0.2610  0.0665 -0.0583
  118POPC   NC3 1958   2.904   0.660   9.928 -0.2885  0.1512  0.0049
  118POPC   PO4 1959   2.553   0.909   9.514 -0.2725 -0.0519 -0.2611
  118POPC   GL1 1960   2.752   1.074   9.107 -0.5373 -0.2199  0.0303
  118POPC   GL2 1961   2.789   0.754   8.909  0.0015 -0.1000 -0.0677
  118POPC   C1A 1962   2.850   1.084   8.605 -0.0632  0.4430 -0.1707
  118POPC   D2A 1963   2.851   1.319   8.264 -0.2963  0.0583  0.0509
  118POPC   C3A 1964   3.116   1.599   8.205  0.1326  0.1347 -0.0661
  118POPC   C4A 1965   3.135   1.889   7.850  0.3188  0.1870  0.0001
  118POPC   C1B 1966   2.489   0.671   8.610 -0.0063 -0.1176 -0.1253
  118POPC   C2B 1967   2.534   0.876   8.139  0.0679  0.0725 -0.1235
  118POPC   C3B 1968   2.335   1.019   7.840  0.0173 -0.0123  0.2304
  118POPC   C4B 1969   2.482   1.263   7.488 -0.0161 -0.1460 -0.1329
  119POPC   NC3 1970   3.783   5.642   9.320  0.2585  0.2093 -0.0791
  119POPC   PO4 1971   3.528   5.978   9.516 -0.3343  0.1264 -0.1625
  119POPC   GL1 1972   3.651   6.120   9.118  0.0434 -0.1397  0.2282
  119POPC   GL2 1973   3.825   5.952   8.893  0.1712 -0.1390  0.2541
  119POPC   C1A 1974   3.561   6.410   8.782 -0.0318 -0.1080  0.3362
  119POPC   D2A 1975   3.449   6.676   8.392 -0.2183  0.1607 -0.0550
  119POPC   C3A 1976   3.256   6.896   7.957 -0.1622 -0.1252 -0.2463
  119POPC   C4A 1977   3.171   6.958   7.549 -0.0252  0.2730  0.1201
  119POPC   C1B 1978   3.685   6.080   8.441 -0.1480  0.2461  0.0478
  119POPC   C2B 1979   3.664   6.345   8.026 -0.1287  0.4839 -0.0758
  119POPC   C3B 1980   3.799   6.508   7.699 -0.2844  0.0174  0.0771
  119POPC   C4B 1981   3.922   6.694   7.317 -0.0579  0.0708 -0.0833
  120POPC   NC3 1982   4.170   7.657   9.376  0.1750  0.2724  0.1862
  120POPC   PO4 1983   4.581   7.590   9.274  0.0070 -0.0076 -0.1388
  120POPC   GL1 1984   4.411   7.827   8.957 -0.0672 -0.1492 -0.0491
  120POPC   GL2 1985   4.200   7.970   8.964 -0.0021  0.0578 -0.1177
  120POPC   C1A 1986   4.543   7.842   8.526 -0.1932  0.0345  0.1773
  120POPC   D2A 1987   4.515   8.098   8.129  0.0017 -0.1436 -0.0181
  120POPC   C3A 1988   4.768   8.129   7.766  0.2867 -0.0197 -0.0660
  120POPC   C4A 1989   4.750   7.896   7.436  0.0653 -0.0012  0.1960
  120POPC   C1B 1990   3.994   8.062   8.555  0.4366 -0.0383 -0.0598
  120POPC   C2B 1991   3.862   8.198   8.090 -0.2071 -0.0515  0.0485
  120POPC   C3B 1992   3.871   8.381   7.797  0.0079  0.0616  0.1381
  120POPC   C4B 1993   3.659   8.755   7.631 -0.0997  0.1151 -0.2403
  121POPC   NC3 1994   4.891   2.516   9.563 -0.0929 -0.0302  0.1349
  121POPC   PO4 1995   4.780   2.832   9.281 -0.0770 -0.1144  0.0041
  121POPC   GL1 1996   4.609   2.768   8.877  0.2248 -0.1755  0.0312
  121POPC   GL2 1997   4.685   3.122   8.791 -0.3410  0.1168 -0.1601
  121POPC   C1A 1998   4.785   2.565   8.545  0.0529  0.1869  0.1450
  121POPC   D2A 1999   5.151   2.453   8.455 -0.0711  0.2866 -0.1613
  121POPC   C3A 2000   5.447   2.437   8.086 -0.1871  0.2356  0.3453
  121POPC   C4A 2001   5.451   2.256   7.685  0.2018 -0.0394 -0.0366
  121POPC   C1B 2002   4.501   3.056   8.351 -0.2489  0.3512  0.2112
  121POPC   C2B 2003   4.284   2.876   8.070 -0.4075 -0.0970  0.0768
  121POPC   C3B 2004   4.066   2.963   7.679 -0.2525 -0.0611  0.1117
  121POPC   C4B 2005   4.126   2.918   7.280 -0.3228 -0.5013  0.1029
  122POPC   NC3 2006   9.245   1.375   9.966 -0.0903 -0.3354 -0.3039
  122POPC   PO4 2007   9.371   1.316   9.521  0.1198  0.0767 -0.0384
  122POPC   GL1 2008   9.682   1.335   9.225 -0.2414  0.0327 -0.3092
  122POPC   GL2 2009   9.519   1.119   8.967  0.2606 -0.0936  0.1286
  122POPC   C1A 2010   9.891   1.601   8.912 -0.3917 -0.1595 -0.0129
  122POPC   D2A 2011   9.941   1.895   8.633  0.2148 -0.1856  0.1805
  122POPC   C3A 2012   9.797   2.293   8.394  0.1231 -0.0057 -0.2355
  122POPC   C4A 2013   9.469   2.333   8.133 -0.0534  0.0311 -0.2059
  122POPC   C1B 2014   9.536   1.388   8.548  0.0628  0.1114  0.0500
  122POPC   C2B 2015   9.791   1.326   8.154  0.1386 -0.2211 -0.1698
  122POPC   C3B 2016  10.182   1.146   8.156  0.2627 -0.0693 -0.1456
  122POPC   C4B 2017  10.585   1.083   8.012 -0.2403  0.0860  0.0155
  123POPC   NC3 2018   5.217   6.686   9.129 -0.0084  0.0048  0.0117
  123POPC   PO4 2019   4.962   6.447   8.985 -0.3029  0.0625 -0.1836
  123POPC   GL1 2020   5.289   6.369   8.617  0.1922  0.0023 -0.2443
  123POPC   GL2 2021   5.359   6.698   8.570 -0.1059  0.3599  0.2761
  123POPC   C1A 2022   5.327   6.308   8.147  0.1603  0.1951 -0.1836
  123POPC   D2A 2023   5.200   6.090   7.862 -0.1070  0.0640 -0.3082
  123POPC   C3A 2024   5.003   6.044   7.541 -0.3188  0.0799 -0.1456
  123POPC   C4A 2025   4.772   6.008   7.273 -0.1412 -0.0355 -0.4253
  123POPC   C1B 2026   5.096   6.747   8.249 -0.0809 -0.1937 -0.0561
  123POPC   C2B 2027   5.118   6.613   7.817  0.2852  0.0534  0.1323
  123POPC   C3B 2028   5.185   6.570   7.375 -0.2734 -0.0321  0.3176
  123POPC   C4B 2029   5.142   6.513   6.957  0.2497  0.0415  0.1233
  124POPC   NC3 2030   2.249   5.011   9.145  0.0290  0.0739 -0.1245
  124POPC   PO4 2031   1.974   4.608   9.278  0.1626  0.5406  0.2401
  124POPC   GL1 2032   1.847   4.524   8.880 -0.2930  0.0125  0.1797
  124POPC   GL2 2033   2.137   4.562   8.759 -0.0626 -0.1965  0.0414
  124POPC   C1A 2034   1.762   4.893   8.632  0.4590 -0.0574  0.1540
  124POPC   D2A 2035   1.833   5.169   8.231  0.0156 -0.0827  0.0082
  124POPC   C3A 2036   1.564   5.469   8.209 -0.1686 -0.2111  0.0262
  124POPC   C4A 2037   1.601   5.781   7.868  0.2258  0.2068 -0.1426
  124POPC   C1B 2038   2.048   4.569   8.305 -0.0616 -0.0500 -0.1871
  124POPC   C2B 2039   2.140   4.593   7.839 -0.1058  0.3175  0.0279
  124POPC   C3B 2040   2.025   4.462   7.443  0.3753  0.0111 -0.3387
  124POPC   C4B 2041   1.852   4.649   7.012  0.0805  0.4512 -0.0399
  125POPC   NC3 2042   1.515   4.706   9.499  0.2148 -0.3464  0.2423
  125POPC   PO4 2043   1.171   4.437   9.218  0.2325  0.1051  0.1544
  125POPC   GL1 2044   1.306   4.225   8.815 -0.0042  0.3003  0.0050
  125POPC   GL2 2045   1.263   3.890   8.873  0.0754  0.1031 -0.2572
  125POPC   C1A 2046   1.659   4.216   8.526  0.1148  0.0053 -0.2426
  125POPC   D2A 2047   1.699   4.272   8.033  0.1922 -0.1367 -0.0797
  125POPC   C3A 2048   1.544   4.649   7.823 -0.0587  0.2761  0.0096
  125POPC   C4A 2049   1.181   4.892   7.811  0.1855 -0.0179 -0.0013
  125POPC   C1B 2050   0.982   3.518   8.671 -0.1655 -0.2560 -0.0958
  125POPC   C2B 2051   0.717   3.287   8.589  0.0292 -0.0509 -0.0322
  125POPC   C3B 2052   0.348   3.218   8.504  0.0104 -0.0741  0.0302
  125POPC   C4B 2053   0.089   3.454   8.216  0.1092 -0.0231 -0.1069
  126POPC   NC3 2054   4.429   0.784   9.198 -0.1006  0.2478  0.1598
  126POPC   PO4 2055   4.809   0.672   9.402 -0.1022  0.1191  0.0781
  126POPC   GL1 2056   4.822   0.486   9.003 -0.0202 -0.1409 -0.0362
  126POPC   GL2 2057   4.587   0.332   8.787  0.0296  0.0342 -0.4029
  126POPC   C1A 2058   4.865   0.610   8.477  0.1353  0.0079  0.0441
  126POPC   D2A 2059   4.913   0.732   8.044  0.0990 -0.2068 -0.1709
  126POPC   C3A 2060   5.010   0.940   7.677 -0.0946  0.2388  0.0842
  126POPC   C4A 2061   5.153   1.287   7.441  0.0996 -0.2380 -0.1139
  126POPC   C1B 2062   4.363   0.447   8.427  0.2162  0.1543  0.0004
  126POPC   C2B 2063   4.470   0.478   8.034  0.3506  0.3098  0.1140
  126POPC   C3B 2064   4.652   0.555   7.632  0.2046 -0.0019 -0.4814
  126POPC   C4B 2065   4.828   0.403   7.335  0.2557  0.3809 -0.1181
  127POPC   NC3 2066   9.128   1.409   9.077 -0.1037 -0.0272  0.1372
  127POPC   PO4 2067   8.980   1.775   9.185 -0.1987  0.2521 -0.1646
  127POPC   GL1 2068   9.037   1.818   8.806  0.1081 -0.0152  0.0239
  127POPC   GL2 2069   8.898   1.625   8.671 -0.0605 -0.0366 -0.0092
  127POPC   C1A 2070   9.420   1.863   8.634 -0.0324  0.1525 -0.0398
  127POPC   D2A 2071   9.566   1.802   8.312  0.1060  0.3286  0.2526
  127POPC   C3A 2072   9.514   1.880   7.987 -0.0291 -0.0769 -0.2301
  127POPC   C4A 2073   9.339   1.731   7.551  0.1717  0.2495  0.0107
  127POPC   C1B 2074   9.117   1.531   8.273 -0.1474  0.2824  0.0316
  127POPC   C2B 2075   9.363   1.402   7.895  0.0781  0.0532 -0.3587
  127POPC   C3B 2076   9.709   1.152   7.686 -0.1736 -0.3005 -0.2440
  127POPC   C4B 2077   9.989   0.856   7.653 -0.2225 -0.2972 -0.2986
  128POPC   NC3 2078   7.616   9.574   9.493 -0.2078 -0.0317 -0.1317
  128POPC   PO4 2079   7.577   9.822   9.182  0.0607 -0.2663 -0.4727
  128POPC   GL1 2080   7.982  10.050   9.013 -0.0421 -0.2623  0.0447
  128POPC   GL2 2081   8.006  10.436   8.937  0.2404  0.0097 -0.2518
  128POPC   C1A 2082   8.003  10.225   8.494  0.2720 -0.2937 -0.4638
  128POPC   D2A 2083   8.118  10.285   8.114  0.1688 -0.2050 -0.1209
  128POPC   C3A 2084   8.433  10.415   7.813  0.3217 -0.1465  0.0708
  128POPC   C4A 2085   8.877  10.357   7.640  0.1400 -0.0113  0.0459
  128POPC   C1B 2086   7.890  10.707   8.550  0.3354  0.2292 -0.0751
  128POPC   C2B 2087   7.724  10.640   8.083  0.1656 -0.1462  0.0764
  128POPC   C3B 2088   7.414  10.459   7.848 -0.1421  0.3416 -0.1958
  128POPC   C4B 2089   7.136  10.534   7.525 -0.2062 -0.3191  0.3997
  129POPC   NC3 2090   1.495   2.682   9.339  0.2656  0.4109 -0.1923
  129POPC   PO4 2091   1.892   2.830   9.405 -0.3785 -0.1403  0.2321
  129POPC   GL1 2092   1.962   2.793   8.973  0.2616  0.2108 -0.1857
  129POPC   GL2 2093   2.197   2.887   8.870 -0.3003 -0.2528 -0.1272
  129POPC   C1A 2094   1.951   2.542   8.688  0.1310 -0.2327 -0.0887
  129POPC   D2A 2095   2.035   2.578   8.234 -0.1456 -0.0302 -0.1956
  129POPC   C3A 2096   1.897   2.911   7.917 -0.0397  0.0773 -0.0311
  129POPC   C4A 2097   1.495   3.114   7.795 -0.1732 -0.0332 -0.0219
  129POPC   C1B 2098   2.338   2.951   8.453 -0.2241 -0.0760 -0.0820
  129POPC   C2B 2099   2.413   3.040   8.019  0.1051 -0.1390 -0.1876
  129POPC   C3B 2100   2.749   3.087   7.733  0.0540  0.1021 -0.1308
  129POPC   C4B 2101   3.117   2.936   7.637  0.1248  0.2132 -0.0860
  130POPC   NC3 2102   7.243   1.615   9.582 -0.0109  0.0909 -0.0626
  130POPC   PO4 2103   7.288   1.522   9.105  0.1661  0.1921  0.3919
  130POPC   GL1 2104   7.432   1.207   8.834  0.2166  0.2972 -0.3058
  130POPC   GL2 2105   7.638   1.151   8.886  0.1409 -0.1156  0.1967
  130POPC   C1A 2106   7.343   1.042   8.462 -0.1846 -0.0573 -0.0368
  130POPC   D2A 2107   7.051   1.179   8.164  0.1333 -0.0348  0.0725
  130POPC   C3A 2108   7.362   1.101   7.757 -0.0525 -0.1812  0.0126
  130POPC   C4A 2109   7.260   1.258   7.411 -0.2563 -0.0575  0.0688
  130POPC   C1B 2110   7.861   1.216   8.411 -0.0781 -0.2184 -0.1448
  130POPC   C2B 2111   7.814   1.021   7.956 -0.2164  0.0330  0.0284
  130POPC   C3B 2112   7.922   1.231   7.572 -0.1311  0.0425  0.0316
  130POPC   C4B 2113   7.768   1.399   7.094 -0.2039 -0.2008 -0.2879
  131POPC   NC3 2114   8.176   4.729   9.183  0.0252 -0.1219  0.2009
  131POPC   PO4 2115   8.292   5.185   9.202  0.1282 -0.2376 -0.2267
  131POPC   GL1 2116   8.235   5.139   8.801  0.3877  0.1158  0.1339
  131POPC   GL2 2117   7.908   5.281   8.723 -0.1797 -0.1841 -0.1789
  131POPC   C1A 2118   8.213   5.064   8.383  0.0874  0.1282 -0.0450
  131POPC   D2A 2119   8.093   5.305   7.914  0.2408  0.0303  0.1104
  131POPC   C3A 2120   8.018   5.024   7.554 -0.1947  0.0630 -0.0549
  131POPC   C4A 2121   8.222   5.109   7.250 -0.0416 -0.2168  0.1215
  131POPC   C1B 2122   8.036   5.553   8.382  0.2943 -0.0842  0.1903
  131POPC   C2B 2123   7.970   5.805   7.872  0.1037 -0.0871 -0.0191
  131POPC   C3B 2124   7.971   5.800   7.481 -0.3409  0.3049 -0.1158
  131POPC   C4B 2125   7.869   5.390   7.261  0.1066 -0.3258 -0.0901
  132POPC   NC3 2126   7.308   2.472   9.024  0.0827  0.1226 -0.3437
  132POPC   PO4 2127   7.360   2.859   8.861  0.0865 -0.2147 -0.1630
  132POPC   GL1 2128   7.326   3.078   8.567 -0.0744 -0.1294  0.2279
  132POPC   GL2 2129   7.541   3.343   8.685  0.3311  0.2008 -0.0974
  132POPC   C1A 2130   7.185   3.288   8.181 -0.1962 -0.2487 -0.2391
  132POPC   D2A 2131   7.017   3.400   7.834  0.3052  0.0708  0.0515
  132POPC   C3A 2132   6.867   3.732   7.559  0.0228 -0.4945 -0.2335
  132POPC   C4A 2133   6.501   3.965   7.540  0.2058 -0.2388  0.0663
  132POPC   C1B 2134   7.876   3.051   8.510  0.0324  0.2336  0.0680
  132POPC   C2B 2135   8.254   2.864   8.263  0.3121  0.0182  0.2534
  132POPC   C3B 2136   8.664   2.629   8.286  0.1074  0.4208 -0.1741
  132POPC   C4B 2137   9.139   2.644   8.333  0.2910 -0.0859 -0.0658
  133POPC   NC3 2138   8.151   4.192   9.422 -0.0205  0.0142 -0.1997
  133POPC   PO4 2139   8.518   4.288   9.196 -0.0340  0.0892 -0.1687
  133POPC   GL1 2140   8.582   4.243   8.794 -0.1723 -0.1221  0.0661
  133POPC   GL2 2141   8.344   4.115   8.492 -0.0093  0.0653 -0.2413
  133POPC   C1A 2142   8.839   4.281   8.368 -0.0767  0.1376 -0.3660
  133POPC   D2A 2143   8.954   4.321   7.964 -0.2034  0.0675 -0.0979
  133POPC   C3A 2144   8.808   4.395   7.527 -0.2821 -0.0756  0.2751
  133POPC   C4A 2145   8.940   4.421   7.146 -0.1860  0.1439  0.1747
  133POPC   C1B 2146   8.428   4.152   8.039 -0.1354  0.0199 -0.2436
  133POPC   C2B 2147   8.366   4.155   7.612 -0.2476 -0.0731  0.0139
  133POPC   C3B 2148   8.014   4.105   7.280  0.0945  0.1146  0.0195
  133POPC   C4B 2149   7.689   3.835   7.194 -0.0662 -0.2141  0.0432
  134POPC   NC3 2150   8.498   1.772   8.977  0.0775 -0.0754  0.1079
  134POPC   PO4 2151   8.561   1.333   8.959  0.0740  0.1485 -0.0232
  134POPC   GL1 2152   8.458   1.339   8.579 -0.0608  0.1679 -0.0779
  134POPC   GL2 2153   8.388   1.661   8.535  0.0529 -0.1516 -0.1860
  134POPC   C1A 2154   8.742   1.202   8.190  0.1801  0.1342 -0.3833
  134POPC   D2A 2155   8.982   1.133   7.767  0.2897 -0.1486  0.2449
  134POPC   C3A 2156   8.898   1.262   7.459 -0.0708  0.1261  0.1341
  134POPC   C4A 2157   8.780   1.185   7.024  0.2580  0.3368 -0.1452
  134POPC   C1B 2158   8.669   1.719   8.191  0.1321  0.0366  0.0375
  134POPC   C2B 2159   8.878   1.631   7.773  0.1117 -0.1944  0.1059
  134POPC   C3B 2160   8.860   1.730   7.309 -0.0422 -0.2408 -0.4883
  134POPC   C4B 2161   8.661   1.660   6.902  0.1491 -0.1172 -0.3146
  135POPC   NC3 2162   5.227   0.895   9.387  0.0581 -0.2274  0.1649
  135POPC   PO4 2163   5.621   0.900   9.280 -0.2598 -0.2882 -0.1262
  135POPC   GL1 2164   5.524   0.912   8.878  0.1041 -0.1697 -0.2379
  135POPC   GL2 2165   5.136   0.889   8.791 -0.1135  0.0249  0.2165
  135POPC   C1A 2166   5.508   0.942   8.404  0.0995 -0.0772 -0.0382
  135POPC   D2A 2167   5.410   0.670   8.052 -0.0995 -0.0640 -0.0392
  135POPC   C3A 2168   5.531   0.711   7.707  0.1036  0.3906 -0.1310
  135POPC   C4A 2169   5.524   0.928   7.364 -0.3277  0.1695 -0.1611
  135POPC   C1B 2170   4.960   1.158   8.446  0.1108  0.0053  0.1090
  135POPC   C2B 2171   4.903   1.346   8.028  0.4126  0.1263  0.0085
  135POPC   C3B 2172   4.709   1.458   7.607 -0.1672 -0.3182  0.0873
  135POPC   C4B 2173   4.671   1.471   7.153 -0.1070  0.1470  0.2682
  136POPC   NC3 2174   3.512   1.535  10.081 -0.2611  0.0977 -0.5928
  136POPC   PO4 2175   3.456   1.326   9.662  0.4502 -0.1861 -0.2296
  136POPC   GL1 2176   3.422   1.061   9.199 -0.0248  0.0906 -0.0770
  136POPC   GL2 2177   3.476   0.693   9.215  0.0406  0.1691 -0.0352
  136POPC   C1A 2178   3.229   0.851   8.794 -0.1606  0.2963  0.1384
  136POPC   D2A 2179   3.021   0.587   8.464 -0.3435  0.1185  0.3365
  136POPC   C3A 2180   3.013   0.544   8.085  0.0152 -0.3278  0.2635
  136POPC   C4A 2181   3.165   0.449   7.637 -0.0007  0.2559  0.0564
  136POPC   C1B 2182   3.607   0.515   8.776 -0.2448  0.0442  0.1350
  136POPC   C2B 2183   3.517   0.448   8.465 -0.1791 -0.3441  0.1955
  136POPC   C3B 2184   3.560   0.583   8.076  0.1727 -0.1867  0.0724
  136POPC   C4B 2185   3.612   0.716   7.730  0.1144 -0.1951  0.1029
  137POPC   NC3 2186   6.187   3.369   8.974 -0.1442  0.2457 -0.0693
  137POPC   PO4 2187   6.588   3.196   8.966  0.4317 -0.1100 -0.2633
  137POPC   GL1 2188   6.649   2.924   8.743 -0.1300  0.2237 -0.1580
  137POPC   GL2 2189   6.469   2.719   8.506  0.0297 -0.0080  0.1990
  137POPC   C1A 2190   6.851   2.873   8.313 -0.0012  0.0203 -0.3264
  137POPC   D2A 2191   6.792   2.517   8.109 -0.2213  0.0117 -0.0043
  137POPC   C3A 2192   7.015   2.289   7.903 -0.0608 -0.0760 -0.3209
  137POPC   C4A 2193   7.417   2.121   7.680  0.0263 -0.1290  0.1102
  137POPC   C1B 2194   6.399   2.885   8.136  0.0637  0.1587 -0.2217
  137POPC   C2B 2195   6.408   3.228   7.829  0.1054  0.0009 -0.0442
  137POPC   C3B 2196   6.397   3.472   7.441  0.1614 -0.1271 -0.1218
  137POPC   C4B 2197   6.333   3.669   7.153 -0.0107 -0.0465 -0.1592
  138POPC   NC3 2198   0.145   6.579   9.714  0.3634 -0.1256  0.2113
  138POPC   PO4 2199  -0.087   6.363   9.432 -0.0375  0.0368 -0.0382
  138POPC   GL1 2200   0.019   6.427   9.018  0.0897 -0.1606 -0.1021
  138POPC   GL2 2201  -0.085   6.745   8.790  0.2849  0.0112  0.1951
  138POPC   C1A 2202  -0.223   6.271   8.587  0.1313 -0.1324 -0.2269
  138POPC   D2A 2203  -0.372   5.870   8.333  0.4083  0.0739  0.0021
  138POPC   C3A 2204  -0.332   5.672   7.999 -0.0813 -0.1199 -0.0415
  138POPC   C4A 2205  -0.256   5.305   7.772  0.0097  0.0356  0.0682
  138POPC   C1B 2206   0.197   6.524   8.539  0.1260 -0.0475  0.1106
  138POPC   C2B 2207   0.282   6.151   8.340  0.1571  0.1743 -0.1185
  138POPC   C3B 2208   0.040   5.980   7.956  0.2358  0.2068 -0.1446
  138POPC   C4B 2209   0.196   5.641   7.687 -0.0613 -0.1644  0.3998
  139POPC   NC3 2210   8.462  10.171   9.151  0.1546  0.2271 -0.1294
  139POPC   PO4 2211   8.348  10.629   9.229 -0.0953  0.4236  0.0169
  139POPC   GL1 2212   8.371  10.750   8.781 -0.1150  0.4820 -0.2053
  139POPC   GL2 2213   8.554  11.002   8.698  0.1218  0.0433  0.0816
  139POPC   C1A 2214   8.419  10.569   8.337 -0.1354 -0.0217  0.2788
  139POPC   D2A 2215   8.754  10.400   8.216  0.0902  0.0262 -0.0881
  139POPC   C3A 2216   9.267  10.529   8.436  0.0170 -0.1931  0.2489
  139POPC   C4A 2217   9.639  10.442   8.518 -0.0188  0.0085 -0.0584
  139POPC   C1B 2218   8.301  11.085   8.301 -0.2192  0.1229  0.0646
  139POPC   C2B 2219   8.165  10.855   8.076  0.2294 -0.0988  0.0727
  139POPC   C3B 2220   8.082  10.917   7.577  0.0671  0.2709 -0.2175
  139POPC   C4B 2221   8.439  10.867   7.093 -0.1054 -0.0267 -0.1568
  140POPC   NC3 2222   5.017   3.739   9.350 -0.0574  0.1527  0.1404
  140POPC   PO4 2223   5.391   3.622   9.128 -0.1371 -0.0123  0.0585
  140POPC   GL1 2224   5.500   3.517   8.726  0.1548 -0.2714  0.2600
  140POPC   GL2 2225   5.807   3.519   8.665  0.0608 -0.3668  0.1626
  140POPC   C1A 2226   5.300   3.355   8.431  0.0887  0.0195  0.0746
  140POPC   D2A 2227   4.990   3.054   8.395  0.1408  0.2369  0.0972
  140POPC   C3A 2228   4.968   2.730   8.095 -0.0337  0.1166  0.1849
  140POPC   C4A 2229   4.879   2.303   8.087 -0.0799  0.2452 -0.0957
  140POPC   C1B 2230   5.709   3.498   8.249 -0.2108  0.3000 -0.0839
  140POPC   C2B 2231   5.471   3.375   7.924  0.2752 -0.2332 -0.1223
  140POPC   C3B 2232   5.438   3.297   7.494 -0.4055  0.1011 -0.1084
  140POPC   C4B 2233   5.540   2.885   7.225 -0.4426 -0.0015 -0.0752
  141POPC   NC3 2234   8.612   7.028   9.089 -0.2267  0.1612 -0.3155
  141POPC   PO4 2235   8.190   6.727   8.998  0.1575 -0.1371  0.3436
  141POPC   GL1 2236   8.106   6.588   8.605  0.1882  0.1577 -0.1265
  141POPC   GL2 2237   8.370   6.330   8.565 -0.1630 -0.0550  0.0458
  141POPC   C1A 2238   7.791   6.512   8.376  0.0050  0.2490 -0.0464
  141POPC   D2A 2239   7.479   6.542   8.126 -0.1546  0.4534  0.2988
  141POPC   C3A 2240   7.176   6.455   7.737  0.1414  0.0000  0.0493
  141POPC   C4A 2241   7.148   6.151   7.449  0.1378 -0.1350  0.0567
  141POPC   C1B 2242   8.610   6.314   8.141 -0.0155 -0.1670 -0.0411
  141POPC   C2B 2243   8.716   6.468   7.649  0.0300 -0.1120 -0.1138
  141POPC   C3B 2244   8.816   6.188   7.271 -0.0442 -0.3745 -0.2021
  141POPC   C4B 2245   8.764   5.758   7.340  0.2340  0.0846 -0.2289
  142POPC   NC3 2246   5.863   1.384   9.194 -0.1024 -0.1668  0.1418
  142POPC   PO4 2247   6.118   1.171   9.247 -0.1822  0.1891  0.1954
  142POPC   GL1 2248   6.026   1.052   8.817  0.0484 -0.2937 -0.3856
  142POPC   GL2 2249   6.051   1.292   8.424 -0.0191  0.2347 -0.4389
  142POPC   C1A 2250   5.824   0.634   8.626  0.0794 -0.1043  0.2186
  142POPC   D2A 2251   5.349   0.515   8.582 -0.0459 -0.1562 -0.0047
  142POPC   C3A 2252   5.225   0.264   8.214 -0.3573  0.0633  0.0372
  142POPC   C4A 2253   5.035   0.216   7.783 -0.4131 -0.3111  0.1094
  142POPC   C1B 2254   5.799   1.610   8.288  0.2748 -0.2038 -0.0946
  142POPC   C2B 2255   5.605   1.760   7.919 -0.0584  0.1041 -0.1743
  142POPC   C3B 2256   5.769   1.879   7.602 -0.1816 -0.0292  0.3310
  142POPC   C4B 2257   5.955   1.680   7.183 -0.0701 -0.0319  0.1876
  143POPC   NC3 2258   6.951   4.050   9.159  0.3161  0.0894  0.2362
  143POPC   PO4 2259   6.800   3.670   9.255  0.5148 -0.1633 -0.0119
  143POPC   GL1 2260   6.773   3.657   8.823  0.1396 -0.3234 -0.2211
  143POPC   GL2 2261   6.954   3.460   8.627  0.1612  0.3916  0.1076
  143POPC   C1A 2262   6.601   3.859   8.412 -0.0958 -0.0408 -0.0063
  143POPC   D2A 2263   6.371   4.158   8.195 -0.0388 -0.1524  0.0689
  143POPC   C3A 2264   6.359   4.347   7.816  0.5650  0.1526  0.1207
  143POPC   C4A 2265   6.457   4.770   7.810  0.3777  0.1055 -0.3733
  143POPC   C1B 2266   6.690   3.352   8.215  0.0603  0.0301 -0.1092
  143POPC   C2B 2267   6.518   3.681   7.919  0.1418  0.2203 -0.0194
  143POPC   C3B 2268   6.824   4.067   7.933 -0.0551 -0.0938  0.1013
  143POPC   C4B 2269   7.082   4.343   8.218 -0.2278  0.0870 -0.0166
  144POPC   NC3 2270  10.019   1.219   9.723 -0.0166 -0.0030 -0.0328
  144POPC   PO4 2271   9.638   1.016   9.857  0.0327 -0.0443  0.0337
  144POPC   GL1 2272   9.847   0.890   9.349 -0.0613 -0.1726  0.1412
  144POPC   GL2 2273   9.770   0.538   9.307 -0.2401  0.0395 -0.1580
  144POPC   C1A 2274  10.024   1.096   8.943 -0.2628 -0.3572 -0.0659
  144POPC   D2A 2275  10.217   0.997   8.647 -0.1292  0.0349 -0.0984
  144POPC   C3A 2276  10.504   0.775   8.330  0.0375 -0.0324 -0.1241
  144POPC   C4A 2277  10.685   0.599   8.052 -0.1263  0.2123  0.2400
  144POPC   C1B 2278  10.116   0.571   8.902 -0.1076  0.2224 -0.2038
  144POPC   C2B 2279  10.105   0.402   8.566  0.1301 -0.0001 -0.2927
  144POPC   C3B 2280  10.064   0.035   8.400 -0.0620 -0.3168  0.1030
  144POPC   C4B 2281  10.086  -0.409   8.260  0.0715 -0.3700  0.0194
  145POPC   NC3 2282   2.111   0.736   9.591 -0.0575  0.0658 -0.2092
  145POPC   PO4 2283   1.826   1.001   9.545 -0.1645  0.1576 -0.1124
  145POPC   GL1 2284   1.990   0.881   9.105 -0.2832 -0.1305 -0.2467
  145POPC   GL2 2285   2.260   0.827   9.092  0.0666 -0.2019  0.1832
  145POPC   C1A 2286   1.575   1.049   8.810  0.2179  0.0397 -0.4330
  145POPC   D2A 2287   1.410   1.090   8.411  0.0756 -0.0823 -0.2035
  145POPC   C3A 2288   1.390   1.138   8.082 -0.0866 -0.1891 -0.3720
  145POPC   C4A 2289   1.516   0.925   7.776 -0.1381  0.3103  0.1062
  145POPC   C1B 2290   2.295   0.419   8.985  0.0303 -0.1027 -0.0330
  145POPC   C2B 2291   2.413   0.002   8.912  0.1744  0.2454 -0.1854
  145POPC   C3B 2292   2.593  -0.255   8.555  0.1213 -0.2176 -0.0127
  145POPC   C4B 2293   2.755  -0.379   8.111  0.0055  0.1078  0.1003
  146POPC   NC3 2294   3.875   4.306   9.652  0.0333 -0.1212 -0.0249
  146POPC   PO4 2295   4.038   4.163   9.312 -0.1557  0.0660  0.2004
  146POPC   GL1 2296   3.902   3.953   9.000 -0.0171  0.1434 -0.0210
  146POPC   GL2 2297   3.652   3.703   8.906  0.3520  0.1369  0.1638
  146POPC   C1A 2298   4.031   3.784   8.608  0.2266  0.0387 -0.2087
  146POPC   D2A 2299   4.068   3.883   8.097  0.0883  0.1798  0.1641
  146POPC   C3A 2300   3.805   4.073   7.814 -0.1181 -0.1518 -0.2197
  146POPC   C4A 2301   3.777   3.834   7.447 -0.0154 -0.0537 -0.4215
  146POPC   C1B 2302   3.540   3.538   8.469 -0.3392 -0.0056 -0.1295
  146POPC   C2B 2303   3.438   3.629   8.105  0.0291  0.2534 -0.1135
  146POPC   C3B 2304   3.478   3.527   7.673  0.0915 -0.3044  0.1192
  146POPC   C4B 2305   3.237   3.371   7.397 -0.3951  0.1149 -0.0049
  147POPC   NC3 2306   6.120   9.633   9.389  0.1188 -0.1907 -0.0423
  147POPC   PO4 2307   6.438   9.896   9.358  0.0776 -0.0066 -0.1392
  147POPC   GL1 2308   6.304   9.744   8.858  0.3249  0.4462 -0.2056
  147POPC   GL2 2309   6.410  10.028   8.722 -0.0618  0.5459 -0.1744
  147POPC   C1A 2310   6.158   9.805   8.349  0.0281  0.1621  0.0287
  147POPC   D2A 2311   6.016   9.585   8.035  0.1002  0.3286  0.1261
  147POPC   C3A 2312   5.776   9.766   7.772 -0.2890  0.2193 -0.1375
  147POPC   C4A 2313   5.731   9.794   7.374  0.0652 -0.0674 -0.0149
  147POPC   C1B 2314   6.658   9.968   8.341  0.0868 -0.2273 -0.1895
  147POPC   C2B 2315   7.061  10.102   8.114 -0.2081  0.0755  0.2548
  147POPC   C3B 2316   7.290  10.015   7.722  0.1077  0.2116 -0.1370
  147POPC   C4B 2317   7.310   9.716   7.326 -0.1373 -0.1926  0.0108
  148POPC   NC3 2318   5.680   9.863   9.338  0.0174 -0.0111 -0.0769
  148POPC   PO4 2319   5.821   9.641   8.964 -0.1364 -0.1271  0.1307
  148POPC   GL1 2320   5.923   9.384   8.608 -0.2194  0.3714  0.1318
  148POPC   GL2 2321   5.993   8.996   8.655  0.0458 -0.0663  0.3214
  148POPC   C1A 2322   5.934   9.118   8.162  0.0142 -0.0597  0.0555
  148POPC   D2A 2323   5.903   8.893   7.701 -0.0123 -0.2174  0.0754
  148POPC   C3A 2324   5.861   8.907   7.327 -0.1722  0.0223  0.1485
  148POPC   C4A 2325   6.044   8.926   6.992 -0.2148  0.0480  0.1315
  148POPC   C1B 2326   6.291   8.680   8.384 -0.0458  0.3261  0.0500
  148POPC   C2B 2327   6.296   8.725   7.967  0.2320  0.0767 -0.0571
  148POPC   C3B 2328   6.268   9.231   7.784 -0.0721 -0.0800  0.0244
  148POPC   C4B 2329   6.019   9.360   7.454  0.1830 -0.0920  0.3619
  149POPC   NC3 2330   1.893   5.692   9.770 -0.0968 -0.0350 -0.0253
  149POPC   PO4 2331   2.271   5.942   9.694  0.2145  0.2957  0.2288
  149POPC   GL1 2332   2.431   6.041   9.314 -0.0333 -0.3556  0.0807
  149POPC   GL2 2333   2.672   6.146   9.397 -0.3385  0.0235 -0.2371
  149POPC   C1A 2334   2.392   6.106   8.924  0.0198 -0.4083 -0.0258
  149POPC   D2A 2335   2.469   6.413   8.653 -0.0833  0.2953  0.0401
  149POPC   C3A 2336   2.622   6.488   8.269 -0.2047 -0.0556 -0.0336
  149POPC   C4A 2337   3.027   6.430   8.122  0.0412 -0.0813  0.3086
  149POPC   C1B 2338   2.844   6.168   8.940  0.0827 -0.1344 -0.1567
  149POPC   C2B 2339   3.023   6.509   8.749 -0.0060  0.2180 -0.0545
  149POPC   C3B 2340   2.972   6.897   8.494  0.1116  0.3145  0.0924
  149POPC   C4B 2341   2.891   7.287   8.267  0.0614 -0.0552  0.0442
  150POPC   NC3 2342   2.681   6.940   9.999 -0.0546  0.1080  0.2702
  150POPC   PO4 2343   2.237   6.993   9.862 -0.2597 -0.0778 -0.2258
  150POPC   GL1 2344   2.268   6.994   9.474  0.1351 -0.0228  0.2155
  150POPC   GL2 2345   2.362   7.234   9.296 -0.1483  0.0111  0.0222
  150POPC   C1A 2346   2.019   6.900   9.111 -0.0137 -0.0043  0.1317
  150POPC   D2A 2347   1.929   6.974   8.601 -0.0862  0.0718 -0.3365
  150POPC   C3A 2348   1.663   6.819   8.249  0.1784  0.1466 -0.1777
  150POPC   C4A 2349   1.720   6.730   7.897  0.0347 -0.0873  0.1819
  150POPC   C1B 2350   1.963   7.388   9.087  0.0180 -0.0619  0.1273
  150POPC   C2B 2351   1.786   7.469   8.742 -0.0357  0.0639 -0.0167
  150POPC   C3B 2352   1.460   7.465   8.476 -0.3038 -0.3281 -0.1718
  150POPC   C4B 2353   0.988   7.555   8.466  0.1159 -0.0394 -0.1129
  151POPC   NC3 2354   3.218  10.027   9.987 -0.2598 -0.3636  0.2563
  151POPC   PO4 2355   3.291  10.400   9.960  0.1767 -0.0234 -0.0902
  151POPC   GL1 2356   3.160  10.520   9.543  0.0716 -0.0200  0.0172
  151POPC   GL2 2357   2.888  10.735   9.357 -0.0557  0.0638  0.0284
  151POPC   C1A 2358   3.297  10.397   9.161  0.0201  0.4052  0.2463
  151POPC   D2A 2359   3.313  10.238   8.714 -0.1575  0.0903 -0.3948
  151POPC   C3A 2360   3.160  10.241   8.235 -0.1304  0.2632  0.0994
  151POPC   C4A 2361   3.065  10.101   7.845  0.0410  0.2922  0.1192
  151POPC   C1B 2362   2.781  10.400   9.061  0.0221  0.2106  0.0252
  151POPC   C2B 2363   2.774  10.446   8.621  0.0926  0.1385 -0.1806
  151POPC   C3B 2364   2.677  10.373   8.204 -0.1729  0.3074  0.1663
  151POPC   C4B 2365   2.597  10.179   7.856 -0.2395  0.1341  0.1369
  152POPC   NC3 2366   1.079   0.541   9.847 -0.0290  0.0000 -0.1938
  152POPC   PO4 2367   1.139   0.925   9.673 -0.1841  0.4150  0.1089
  152POPC   GL1 2368   1.098   0.873   9.293  0.1209  0.1393  0.0415
  152POPC   GL2 2369   1.449   0.822   9.268  0.1856 -0.1818  0.2592
  152POPC   C1A 2370   1.040   0.777   8.872  0.1520  0.0581 -0.1157
  152POPC   D2A 2371   0.959   0.856   8.414  0.3168 -0.0069  0.0037
  152POPC   C3A 2372   1.177   0.693   8.023 -0.2229 -0.0516  0.0461
  152POPC   C4A 2373   1.057   0.929   7.658  0.2192  0.0154  0.0248
  152POPC   C1B 2374   1.408   0.456   9.064 -0.0321 -0.1700  0.0728
  152POPC   C2B 2375   1.329   0.106   8.717  0.0054  0.3017 -0.2040
  152POPC   C3B 2376   1.285   0.187   8.315  0.0663 -0.2643  0.0171
  152POPC   C4B 2377   0.854   0.226   8.048  0.0816  0.2525 -0.0649
  153POPC   NC3 2378   7.105   5.916   9.067  0.1521 -0.0122  0.0984
  153POPC   PO4 2379   7.188   5.543   9.193  0.3373 -0.1344  0.0911
  153POPC   GL1 2380   7.206   5.369   8.804 -0.2638 -0.3829  0.0864
  153POPC   GL2 2381   7.357   5.131   8.766 -0.0451  0.3367  0.0126
  153POPC   C1A 2382   7.068   5.358   8.379 -0.2755  0.2482 -0.2147
  153POPC   D2A 2383   6.962   5.517   7.995 -0.0190  0.4357 -0.2490
  153POPC   C3A 2384   6.518   5.522   8.005 -0.1025 -0.2877 -0.2346
  153POPC   C4A 2385   6.157   5.794   8.177  0.1359  0.1082  0.0379
  153POPC   C1B 2386   7.658   5.124   8.356 -0.2571  0.2041  0.2612
  153POPC   C2B 2387   7.676   4.941   7.940 -0.1359  0.0266  0.2042
  153POPC   C3B 2388   7.300   4.866   7.610 -0.3978  0.0986 -0.0628
  153POPC   C4B 2389   7.058   4.775   7.276 -0.3109  0.4186 -0.0351
  154POPC   NC3 2390   2.707   1.946   9.842 -0.2008  0.0594 -0.2137
  154POPC   PO4 2391   2.547   2.073   9.368 -0.0174 -0.0925 -0.0964
  154POPC   GL1 2392   2.652   2.241   8.902  0.0640 -0.3181 -0.4180
  154POPC   GL2 2393   2.455   2.473   8.758  0.1325  0.0239  0.0288
  154POPC   C1A 2394   2.911   2.175   8.598  0.1131 -0.2181  0.3287
  154POPC   D2A 2395   3.215   2.361   8.349 -0.0616 -0.0996  0.2872
  154POPC   C3A 2396   3.348   2.321   7.897 -0.3251  0.1281 -0.1750
  154POPC   C4A 2397   3.300   2.503   7.478  0.1062  0.4263 -0.1720
  154POPC   C1B 2398   2.581   2.484   8.324  0.3455  0.1059 -0.2795
  154POPC   C2B 2399   2.417   2.524   7.894 -0.0610 -0.2722  0.2984
  154POPC   C3B 2400   2.288   2.276   7.589  0.1819  0.1950 -0.0152
  154POPC   C4B 2401   2.521   2.093   7.208  0.1595  0.1813 -0.2010
  155POPC   NC3 2402   7.890   3.573   8.990 -0.0326 -0.0085  0.2743
  155POPC   PO4 2403   7.793   3.947   9.150  0.1254 -0.1702 -0.2970
  155POPC   GL1 2404   7.778   3.927   8.662  0.1597 -0.2052 -0.2056
  155POPC   GL2 2405   7.593   4.206   8.514 -0.2307 -0.0112 -0.1128
  155POPC   C1A 2406   7.982   3.886   8.329  0.0746  0.2141  0.2533
  155POPC   D2A 2407   8.014   3.804   7.856  0.1783 -0.1176 -0.0175
  155POPC   C3A 2408   7.760   3.482   7.662  0.0770 -0.0325 -0.0657
  155POPC   C4A 2409   7.405   3.100   7.567 -0.2211 -0.3948 -0.0325
  155POPC   C1B 2410   7.635   4.099   8.082  0.0658  0.0765 -0.4386
  155POPC   C2B 2411   7.605   4.057   7.636  0.2103 -0.0320 -0.1199
  155POPC   C3B 2412   7.166   4.167   7.484 -0.0956 -0.2841 -0.1854
  155POPC   C4B 2413   7.048   4.337   7.047 -0.1367 -0.1740  0.2812
  156POPC   NC3 2414   0.680   5.416   9.095 -0.2987  0.0343  0.1134
  156POPC   PO4 2415   0.457   5.033   9.017  0.1233  0.3954 -0.0220
  156POPC   GL1 2416   0.556   4.800   8.675  0.2734 -0.5510  0.1816
  156POPC   GL2 2417   0.827   4.678   8.395 -0.0892  0.0987 -0.1937
  156POPC   C1A 2418   0.440   4.845   8.188 -0.1326  0.0589 -0.2944
  156POPC   D2A 2419   0.179   5.024   7.893 -0.1906 -0.0380  0.2812
  156POPC   C3A 2420   0.127   5.224   7.463 -0.2542 -0.1885  0.1190
  156POPC   C4A 2421   0.081   4.877   7.053  0.1058  0.0025  0.2101
  156POPC   C1B 2422   1.155   4.407   8.211 -0.2397  0.0138 -0.3349
  156POPC   C2B 2423   1.144   4.138   7.839 -0.1490  0.1603  0.0870
  156POPC   C3B 2424   1.019   3.767   7.685  0.2491  0.0245 -0.1214
  156POPC   C4B 2425   0.669   3.641   7.335 -0.0712 -0.0599 -0.3190
  157POPC   NC3 2426   3.248   8.757   3.129 -0.2685 -0.1800 -0.3205
  157POPC   PO4 2427   3.115   9.044   3.458  0.1282  0.0721 -0.0348
  157POPC   GL1 2428   2.722   8.969   3.511 -0.0310 -0.4007  0.1063
  157POPC   GL2 2429   2.665   8.730   3.673 -0.1481  0.2366 -0.0592
  157POPC   C1A 2430   2.237   9.075   3.686 -0.2542 -0.3189 -0.2206
  157POPC   D2A 2431   1.848   9.308   3.637  0.3196  0.0726 -0.0827
  157POPC   C3A 2432   1.485   9.518   3.872  0.4580 -0.0905 -0.0104
  157POPC   C4A 2433   1.271   9.776   4.173  0.4720  0.0277 -0.1645
  157POPC   C1B 2434   2.852   8.773   4.099 -0.0189  0.0940 -0.1807
  157POPC   C2B 2435   2.748   8.629   4.557  0.0175 -0.0085 -0.1057
  157POPC   C3B 2436   2.570   8.517   4.945 -0.2512  0.2257  0.0548
  157POPC   C4B 2437   2.592   8.366   5.289  0.1206  0.0971 -0.0758
  158POPC   NC3 2438   6.980   0.094   5.257  0.3633  0.1564  0.0171
  158POPC   PO4 2439   6.629  -0.149   5.248 -0.0153  0.1749 -0.0455
  158POPC   GL1 2440   6.580  -0.153   5.687  0.0155 -0.0906 -0.0190
  158POPC   GL2 2441   6.296  -0.092   5.999 -0.0320  0.1850 -0.1164
  158POPC   C1A 2442   6.788  -0.215   6.175  0.0313 -0.1230 -0.1652
  158POPC   D2A 2443   6.616  -0.552   6.420 -0.2241  0.1047  0.1292
  158POPC   C3A 2444   6.617  -0.611   6.825  0.2307  0.0688  0.0960
  158POPC   C4A 2445   6.428  -0.976   7.155  0.0302 -0.1154  0.0782
  158POPC   C1B 2446   6.389  -0.037   6.493 -0.0608 -0.0576  0.0928
  158POPC   C2B 2447   6.670  -0.113   6.800 -0.1620 -0.0213  0.0675
  158POPC   C3B 2448   6.771  -0.279   7.223 -0.0738 -0.1353 -0.0612
  158POPC   C4B 2449   6.811  -0.015   7.477 -0.0145 -0.1258 -0.0249
  159POPC   NC3 2450   3.971   0.013   4.691  0.1523  0.4088 -0.2126
  159POPC   PO4 2451   4.358   0.299   4.893 -0.1395  0.0518 -0.3296
  159POPC   GL1 2452   4.236   0.092   5.278 -0.0275  0.2483  0.1866
  159POPC   GL2 2453   4.050  -0.116   5.179  0.2305 -0.0038 -0.2382
  159POPC   C1A 2454   4.066   0.022   5.635  0.2577  0.0852  0.0064
  159POPC   D2A 2455   3.612  -0.149   5.831 -0.0286 -0.0526  0.1276
  159POPC   C3A 2456   3.659  -0.299   6.239  0.0920  0.0957 -0.0009
  159POPC   C4A 2457   3.599  -0.534   6.534 -0.1007 -0.4567  0.0766
  159POPC   C1B 2458   4.209  -0.462   5.347  0.0784 -0.0977 -0.0224
  159POPC   C2B 2459   4.327  -0.479   5.766  0.0394  0.0780 -0.2124
  159POPC   C3B 2460   4.153  -0.163   6.150  0.1538 -0.1122 -0.1416
  159POPC   C4B 2461   4.125   0.120   6.557  0.0375 -0.3166 -0.0545
  160POPC   NC3 2462   8.050   9.112   4.458  0.0813  0.2333 -0.0706
  160POPC   PO4 2463   8.276   9.438   4.564 -0.4744 -0.3342 -0.1914
  160POPC   GL1 2464   8.438   9.439   5.106 -0.1737 -0.1355  0.1588
  160POPC   GL2 2465   8.190   9.255   5.341  0.3642  0.2306  0.1022
  160POPC   C1A 2466   8.696   9.557   5.495 -0.2030  0.0153 -0.1888
  160POPC   D2A 2467   8.668   9.663   5.951 -0.0392  0.1381 -0.2703
  160POPC   C3A 2468   8.822  10.026   6.207  0.1371 -0.1905 -0.3938
  160POPC   C4A 2469   8.845  10.110   6.636 -0.0883 -0.4034 -0.1987
  160POPC   C1B 2470   7.891   9.224   5.709 -0.1067  0.3508 -0.1208
  160POPC   C2B 2471   7.785   9.013   6.025 -0.0568 -0.1752  0.0982
  160POPC   C3B 2472   7.697   8.894   6.498 -0.3579  0.2451 -0.1355
  160POPC   C4B 2473   7.961   9.056   6.870  0.0924  0.1749 -0.0970
  161POPC   NC3 2474   3.485   0.687   4.058  0.0921  0.5097  0.2496
  161POPC   PO4 2475   3.486   0.390   4.435  0.2926 -0.1800 -0.0642
  161POPC   GL1 2476   3.533   0.288   4.922 -0.2310  0.0769  0.2234
  161POPC   GL2 2477   3.774   0.299   5.074  0.1324  0.0964  0.0505
  161POPC   C1A 2478   3.191   0.450   5.203  0.5744  0.0737  0.0670
  161POPC   D2A 2479   3.037   0.278   5.570  0.2978  0.1191 -0.1062
  161POPC   C3A 2480   3.082  -0.063   5.824 -0.3290 -0.1528  0.1060
  161POPC   C4A 2481   3.161  -0.354   6.249 -0.0089  0.0148  0.1086
  161POPC   C1B 2482   3.581   0.163   5.450  0.0374 -0.0893 -0.2234
  161POPC   C2B 2483   3.457   0.381   5.766 -0.2803 -0.0296 -0.1106
  161POPC   C3B 2484   3.582   0.687   6.017 -0.1489 -0.2059  0.0697
  161POPC   C4B 2485   3.659   0.933   6.229 -0.0158  0.1220 -0.1451
  162POPC   NC3 2486   3.030   1.355   5.138  0.2846  0.0736  0.0433
  162POPC   PO4 2487   3.372   1.217   4.976  0.0576  0.1346  0.1501
  162POPC   GL1 2488   3.331   1.038   5.345  0.1351  0.2349 -0.2954
  162POPC   GL2 2489   3.574   0.810   5.461 -0.1229  0.1440  0.1444
  162POPC   C1A 2490   3.125   0.794   5.756  0.2022 -0.0913  0.1091
  162POPC   D2A 2491   3.072   0.449   6.110 -0.0521  0.2948 -0.0831
  162POPC   C3A 2492   3.378   0.204   6.275  0.0393  0.1390  0.0651
  162POPC   C4A 2493   3.526   0.361   6.542  0.0438  0.2633 -0.0924
  162POPC   C1B 2494   3.421   1.179   5.817 -0.0750 -0.1232 -0.0898
  162POPC   C2B 2495   3.745   1.416   6.027  0.4169 -0.1781 -0.0958
  162POPC   C3B 2496   4.059   1.246   6.241  0.6283  0.0631  0.0979
  162POPC   C4B 2497   4.434   0.979   6.532 -0.2893 -0.1313  0.2032
  163POPC   NC3 2498   9.123   1.434   4.783 -0.0747  0.0966  0.0290
  163POPC   PO4 2499   9.106   0.929   4.647 -0.2464  0.0029  0.1864
  163POPC   GL1 2500   9.271   0.726   4.968 -0.1071  0.1905 -0.0783
  163POPC   GL2 2501   9.182   0.378   4.833  0.1441 -0.0947  0.0876
  163POPC   C1A 2502   9.418   0.567   5.249 -0.2682 -0.0684 -0.2089
  163POPC   D2A 2503   9.664   0.833   5.556 -0.2085  0.0451  0.1253
  163POPC   C3A 2504   9.993   0.607   5.760 -0.1102 -0.1956  0.0499
  163POPC   C4A 2505  10.298   0.782   5.942  0.0005  0.0068 -0.0057
  163POPC   C1B 2506   9.134  -0.080   5.007 -0.0611  0.0744  0.1449
  163POPC   C2B 2507   9.163  -0.419   5.338 -0.1993  0.1432 -0.2018
  163POPC   C3B 2508   9.203  -0.523   5.812 -0.1731  0.2384  0.1354
  163POPC   C4B 2509   9.230  -0.620   6.159  0.2657 -0.2072 -0.1387
  164POPC   NC3 2510   7.801   4.690   5.176 -0.0963  0.2906 -0.0330
  164POPC   PO4 2511   8.237   4.420   5.132  0.0472 -0.2165 -0.0515
  164POPC   GL1 2512   8.079   4.293   5.492  0.0577 -0.0354 -0.1225
  164POPC   GL2 2513   7.797   4.168   5.509 -0.0578  0.3309  0.2147
  164POPC   C1A 2514   8.226   4.383   5.895  0.3633 -0.2547 -0.1640
  164POPC   D2A 2515   8.585   4.405   6.206 -0.0345 -0.1193  0.0165
  164POPC   C3A 2516   8.658   4.502   6.726  0.4470 -0.1671  0.1457
  164POPC   C4A 2517   8.423   4.490   7.210  0.0236  0.1893  0.0074
  164POPC   C1B 2518   7.770   4.052   5.939 -0.2582  0.0713 -0.0279
  164POPC   C2B 2519   7.715   3.827   6.382  0.1328  0.1468  0.0913
  164POPC   C3B 2520   7.793   4.057   6.758  0.2263 -0.2940 -0.0581
  164POPC   C4B 2521   7.552   4.321   7.144  0.1746  0.0892 -0.0539
  165POPC   NC3 2522   1.766   0.368   3.485  0.4311  0.1147 -0.0510
  165POPC   PO4 2523   2.174   0.199   3.471 -0.2777 -0.0581  0.1475
  165POPC   GL1 2524   1.897  -0.054   3.689  0.0819 -0.0976 -0.1238
  165POPC   GL2 2525   1.814  -0.383   3.594 -0.0661  0.2473  0.0487
  165POPC   C1A 2526   1.727  -0.252   4.073 -0.0427  0.3407 -0.3145
  165POPC   D2A 2527   1.721  -0.552   4.429  0.1850 -0.1255 -0.3772
  165POPC   C3A 2528   1.364  -0.860   4.522 -0.3148 -0.1734 -0.2162
  165POPC   C4A 2529   0.910  -0.809   4.363  0.0924 -0.3416 -0.0563
  165POPC   C1B 2530   2.075  -0.559   3.920 -0.1330  0.1723  0.2816
  165POPC   C2B 2531   1.968  -0.899   4.120 -0.2609  0.0605  0.4092
  165POPC   C3B 2532   1.934  -1.131   4.501 -0.0485 -0.2108 -0.0987
  165POPC   C4B 2533   2.087  -1.183   4.911 -0.2619  0.0195 -0.1373
  166POPC   NC3 2534   8.315   0.537   4.473  0.1085  0.3690 -0.3070
  166POPC   PO4 2535   8.139   0.703   4.901 -0.2767  0.1618  0.2164
  166POPC   GL1 2536   8.116   0.533   5.272  0.2260 -0.2747 -0.2523
  166POPC   GL2 2537   7.869   0.420   5.394  0.0035  0.1502  0.0833
  166POPC   C1A 2538   8.297   0.329   5.651 -0.1721  0.2447 -0.4401
  166POPC   D2A 2539   8.630   0.275   5.957  0.0648  0.3395  0.0153
  166POPC   C3A 2540   8.916   0.464   6.259  0.1091  0.0411  0.1018
  166POPC   C4A 2541   9.236   0.613   6.468  0.2118  0.0810 -0.1435
  166POPC   C1B 2542   7.801   0.369   5.826 -0.0408  0.0607  0.1197
  166POPC   C2B 2543   7.607   0.495   6.224  0.2668  0.1660  0.3600
  166POPC   C3B 2544   7.218   0.292   6.393  0.2965 -0.2342  0.1202
  166POPC   C4B 2545   6.779   0.389   6.563 -0.4382  0.1169 -0.2980
  167POPC   NC3 2546   2.969   7.954   3.254 -0.0751 -0.0056 -0.1163
  167POPC   PO4 2547   2.797   7.751   3.681  0.1594 -0.1946  0.1297
  167POPC   GL1 2548   2.731   8.114   3.816 -0.2095  0.2781  0.1022
  167POPC   GL2 2549   2.404   8.241   3.844  0.2514 -0.2360 -0.1548
  167POPC   C1A 2550   2.798   8.251   4.211  0.1765  0.2605  0.0715
  167POPC   D2A 2551   2.834   8.128   4.717 -0.1313  0.0487 -0.1533
  167POPC   C3A 2552   2.388   8.076   4.711  0.0015  0.0888  0.2204
  167POPC   C4A 2553   1.997   7.989   4.858  0.0604 -0.2236 -0.0822
  167POPC   C1B 2554   2.296   8.177   4.218 -0.1433 -0.0541  0.0745
  167POPC   C2B 2555   2.136   8.557   4.587  0.0809  0.2188 -0.1910
  167POPC   C3B 2556   2.116   8.497   5.084  0.3349 -0.3784  0.2886
  167POPC   C4B 2557   2.142   8.388   5.516 -0.2774 -0.1630 -0.3406
  168POPC   NC3 2558   7.686   5.452   5.100 -0.1359  0.1537  0.2769
  168POPC   PO4 2559   8.040   5.235   5.180  0.1863 -0.1479  0.1621
  168POPC   GL1 2560   8.170   5.224   5.558 -0.2516 -0.0511  0.0522
  168POPC   GL2 2561   8.034   4.785   5.669  0.1676  0.0100  0.0311
  168POPC   C1A 2562   8.262   5.420   5.846  0.0059  0.3354 -0.3405
  168POPC   D2A 2563   8.558   5.436   6.144 -0.1291 -0.0995  0.0161
  168POPC   C3A 2564   8.825   5.584   6.629 -0.1584  0.0830 -0.1060
  168POPC   C4A 2565   9.028   5.399   6.911 -0.4551  0.0820  0.2131
  168POPC   C1B 2566   7.747   4.597   6.005  0.0463 -0.2223 -0.1023
  168POPC   C2B 2567   7.525   4.327   6.323 -0.1936  0.1619  0.4777
  168POPC   C3B 2568   7.332   4.018   6.597  0.0484  0.1253  0.0536
  168POPC   C4B 2569   7.237   3.898   7.027 -0.1590 -0.3225 -0.5291
  169POPC   NC3 2570   5.875   9.356   4.821  0.0236  0.3655  0.4202
  169POPC   PO4 2571   5.554   9.422   5.237  0.1690  0.1421  0.2611
  169POPC   GL1 2572   5.377   9.615   5.505 -0.2935  0.1236 -0.0409
  169POPC   GL2 2573   5.086   9.674   5.477 -0.0044  0.0233  0.1475
  169POPC   C1A 2574   5.488   9.616   5.999 -0.0197 -0.1695 -0.2973
  169POPC   D2A 2575   5.862   9.855   6.177  0.1931 -0.1728  0.0123
  169POPC   C3A 2576   6.047   9.692   6.505 -0.1067  0.2042 -0.2894
  169POPC   C4A 2577   6.185   9.841   6.881  0.2488  0.1108 -0.0628
  169POPC   C1B 2578   4.909   9.631   5.772  0.0191 -0.1811  0.0894
  169POPC   C2B 2579   5.021   9.517   6.195 -0.1296 -0.0743  0.2168
  169POPC   C3B 2580   5.127   9.626   6.541  0.3265  0.4908  0.2641
  169POPC   C4B 2581   5.348   9.527   6.907 -0.1254 -0.2580 -0.0050
  170POPC   NC3 2582   2.501   6.919   4.163 -0.0379 -0.0853  0.2648
  170POPC   PO4 2583   2.794   6.562   4.231  0.0769 -0.0505 -0.0530
  170POPC   GL1 2584   2.840   6.859   4.507 -0.2635  0.0760  0.0373
  170POPC   GL2 2585   2.842   6.918   4.854  0.1086  0.0171  0.1598
  170POPC   C1A 2586   2.950   7.339   4.615 -0.0337  0.1502  0.0076
  170POPC   D2A 2587   2.665   7.629   4.556 -0.2047  0.0780 -0.1468
  170POPC   C3A 2588   2.428   7.665   4.916 -0.2397 -0.0558  0.0000
  170POPC   C4A 2589   2.321   7.972   5.253  0.2706  0.1661  0.0266
  170POPC   C1B 2590   2.995   6.989   5.299  0.0156 -0.3327  0.2078
  170POPC   C2B 2591   3.095   7.177   5.599  0.1600 -0.3395  0.1560
  170POPC   C3B 2592   2.805   7.341   5.857  0.0258 -0.3885  0.0286
  170POPC   C4B 2593   2.676   7.186   6.067  0.1068  0.0145  0.2685
  171POPC   NC3 2594   0.984   2.736   4.499  0.0617  0.3738 -0.5266
  171POPC   PO4 2595   0.855   2.420   4.712  0.0540  0.4045  0.0819
  171POPC   GL1 2596   0.922   2.343   5.176  0.0867 -0.1020 -0.1654
  171POPC   GL2 2597   0.751   2.564   5.289 -0.1306  0.1301 -0.2861
  171POPC   C1A 2598   0.788   2.058   5.508 -0.0952  0.0132  0.0190
  171POPC   D2A 2599   0.870   1.653   5.699 -0.1990 -0.1207 -0.2068
  171POPC   C3A 2600   1.141   1.677   6.096 -0.2854  0.3385 -0.0639
  171POPC   C4A 2601   1.426   1.479   6.249 -0.1191 -0.2453 -0.1330
  171POPC   C1B 2602   0.596   2.476   5.670  0.1951  0.0569 -0.0078
  171POPC   C2B 2603   0.733   2.165   6.183  0.2994  0.1950  0.2591
  171POPC   C3B 2604   0.824   1.787   6.436 -0.0857 -0.0564 -0.5887
  171POPC   C4B 2605   0.749   1.519   6.790 -0.1167  0.2013 -0.0958
  172POPC   NC3 2606   7.459   1.169   5.180 -0.0764  0.2278 -0.1670
  172POPC   PO4 2607   7.248   1.542   5.374  0.1137 -0.2180  0.2562
  172POPC   GL1 2608   7.423   1.251   5.697  0.1783  0.0394  0.3251
  172POPC   GL2 2609   7.376   1.359   6.113  0.0835  0.3143  0.1985
  172POPC   C1A 2610   7.681   0.925   5.892 -0.0600  0.0914  0.0778
  172POPC   D2A 2611   8.061   0.827   5.780 -0.1703  0.2197 -0.0377
  172POPC   C3A 2612   8.193   0.554   6.115 -0.1281  0.1845 -0.1698
  172POPC   C4A 2613   8.034   0.211   6.432  0.6211 -0.1292 -0.0158
  172POPC   C1B 2614   7.666   1.383   6.425  0.0771 -0.0105 -0.0225
  172POPC   C2B 2615   8.023   1.199   6.720 -0.2737 -0.1748  0.2674
  172POPC   C3B 2616   8.377   1.015   6.687  0.0884 -0.0442  0.4004
  172POPC   C4B 2617   8.679   0.827   6.481 -0.0838  0.1312  0.3888
  173POPC   NC3 2618   4.227   6.002   5.093 -0.1255  0.0111 -0.1421
  173POPC   PO4 2619   4.489   5.883   5.479  0.1905  0.0429  0.0726
  173POPC   GL1 2620   4.472   6.212   5.759  0.0038  0.2455 -0.3141
  173POPC   GL2 2621   4.697   6.163   5.948  0.0309 -0.0794  0.2582
  173POPC   C1A 2622   4.292   6.400   6.167  0.0791 -0.2251 -0.0350
  173POPC   D2A 2623   4.182   6.891   6.207  0.0211  0.0816  0.1992
  173POPC   C3A 2624   4.161   7.080   6.680  0.0818  0.1561  0.1800
  173POPC   C4A 2625   4.009   7.113   7.075 -0.0177  0.2873  0.0246
  173POPC   C1B 2626   4.843   6.348   6.264  0.1439  0.0115 -0.2457
  173POPC   C2B 2627   4.808   6.301   6.703 -0.2273  0.1153  0.4143
  173POPC   C3B 2628   4.671   6.444   7.053 -0.1765 -0.1217  0.2827
  173POPC   C4B 2629   4.385   6.780   7.140  0.1549  0.2040  0.2404
  174POPC   NC3 2630   8.820   7.366   4.991  0.0800 -0.0111  0.0806
  174POPC   PO4 2631   8.670   7.792   5.242  0.5816  0.2623  0.0247
  174POPC   GL1 2632   8.894   7.494   5.472  0.2767 -0.1126  0.0266
  174POPC   GL2 2633   8.946   7.664   5.814 -0.1012  0.1704  0.2870
  174POPC   C1A 2634   8.833   7.203   5.833  0.3062 -0.0389  0.1715
  174POPC   D2A 2635   8.687   7.039   6.187  0.1332 -0.3073 -0.0053
  174POPC   C3A 2636   8.916   7.151   6.520 -0.0129  0.0975  0.1659
  174POPC   C4A 2637   9.144   7.024   6.926 -0.5609  0.3079 -0.0615
  174POPC   C1B 2638   9.353   7.718   5.799  0.1638 -0.0819  0.2357
  174POPC   C2B 2639   9.576   7.564   6.098  0.2633 -0.0783 -0.1744
  174POPC   C3B 2640   9.425   7.303   6.540 -0.1923 -0.1522  0.1122
  174POPC   C4B 2641   9.679   7.192   6.915 -0.0200  0.3907  0.1098
  175POPC   NC3 2642   4.935   5.060   5.211 -0.1475 -0.1405  0.3309
  175POPC   PO4 2643   4.584   4.899   5.491 -0.1208  0.2987 -0.2560
  175POPC   GL1 2644   4.685   4.882   5.946  0.2179 -0.1500  0.2028
  175POPC   GL2 2645   4.738   5.156   5.902 -0.0567  0.1077 -0.1997
  175POPC   C1A 2646   4.648   4.540   6.230 -0.0701  0.0173  0.0821
  175POPC   D2A 2647   4.438   4.482   6.619 -0.0991 -0.3642 -0.3604
  175POPC   C3A 2648   4.039   4.649   6.607  0.1700  0.1358 -0.2555
  175POPC   C4A 2649   3.990   5.069   6.699 -0.0366  0.0888 -0.0735
  175POPC   C1B 2650   4.799   5.241   6.282 -0.0421  0.0659 -0.2411
  175POPC   C2B 2651   5.003   5.073   6.608  0.2968 -0.0658  0.0322
  175POPC   C3B 2652   5.132   4.799   6.989 -0.0787 -0.0260  0.4753
  175POPC   C4B 2653   5.166   4.479   7.206 -0.2054 -0.3833  0.0227
  176POPC   NC3 2654   5.825   4.752   5.390 -0.0165 -0.3400  0.1107
  176POPC   PO4 2655   5.459   4.340   5.435 -0.0912  0.2321 -0.2089
  176POPC   GL1 2656   5.472   4.056   5.816 -0.0957 -0.0166 -0.1665
  176POPC   GL2 2657   5.296   3.856   5.952  0.5122  0.2680 -0.3509
  176POPC   C1A 2658   5.465   4.321   6.190 -0.0767 -0.5230 -0.0353
  176POPC   D2A 2659   5.481   4.382   6.645 -0.0112 -0.1644 -0.0023
  176POPC   C3A 2660   5.298   3.984   6.752  0.1406  0.3326  0.3280
  176POPC   C4A 2661   5.142   3.941   7.123 -0.3472  0.2753 -0.2313
  176POPC   C1B 2662   5.028   4.104   6.330 -0.1397  0.2350  0.0825
  176POPC   C2B 2663   5.124   4.588   6.452 -0.0534 -0.3799 -0.2146
  176POPC   C3B 2664   5.360   4.856   6.255  0.0213  0.1556 -0.1558
  176POPC   C4B 2665   5.567   5.184   6.197  0.2350 -0.3920  0.0880
  177POPC   NC3 2666   8.738   6.647   5.048  0.0534  0.0674 -0.2275
  177POPC   PO4 2667   9.114   6.524   4.863 -0.1233 -0.2868  0.0183
  177POPC   GL1 2668   9.214   6.638   5.207  0.4421 -0.0390  0.0122
  177POPC   GL2 2669   9.028   6.989   5.352 -0.4351 -0.4018 -0.0179
  177POPC   C1A 2670   9.500   6.694   5.468  0.3363  0.0550 -0.2017
  177POPC   D2A 2671   9.760   6.868   5.853  0.2536 -0.3213  0.1387
  177POPC   C3A 2672   9.667   7.016   6.191 -0.1001 -0.0976 -0.2390
  177POPC   C4A 2673   9.577   6.835   6.504 -0.2080  0.0883  0.2234
  177POPC   C1B 2674   9.066   6.749   5.720 -0.1810 -0.1374 -0.0465
  177POPC   C2B 2675   9.127   6.802   6.212  0.2028 -0.1717  0.0868
  177POPC   C3B 2676   9.064   6.660   6.542  0.0670  0.2411 -0.1454
  177POPC   C4B 2677   9.234   6.507   6.928  0.3011  0.1070 -0.0235
  178POPC   NC3 2678   3.920   2.809   5.330 -0.0002  0.3505  0.0087
  178POPC   PO4 2679   3.647   2.834   5.428 -0.0955 -0.1302 -0.1852
  178POPC   GL1 2680   3.648   2.811   5.882 -0.0181 -0.1657  0.1107
  178POPC   GL2 2681   3.850   2.714   6.146 -0.0796  0.2350  0.2914
  178POPC   C1A 2682   3.425   2.991   6.323 -0.0597  0.0618  0.0183
  178POPC   D2A 2683   3.351   3.144   6.701  0.1583 -0.0723 -0.2376
  178POPC   C3A 2684   3.672   2.928   6.973 -0.1354 -0.1523 -0.1031
  178POPC   C4A 2685   3.647   2.513   7.161 -0.1409 -0.1942 -0.1075
  178POPC   C1B 2686   3.648   2.592   6.579 -0.0521  0.0986  0.1947
  178POPC   C2B 2687   3.275   2.345   6.821 -0.0126 -0.1175  0.0920
  178POPC   C3B 2688   3.004   2.056   6.820  0.1400  0.0677 -0.1226
  178POPC   C4B 2689   2.977   1.686   7.024  0.4457 -0.1975  0.0109
  179POPC   NC3 2690   0.616   6.276   4.558  0.2033  0.1929 -0.0407
  179POPC   PO4 2691   0.769   6.682   4.492 -0.0453  0.1407 -0.1121
  179POPC   GL1 2692   0.577   6.677   4.835 -0.2437 -0.1921 -0.1608
  179POPC   GL2 2693   0.490   6.961   4.907 -0.2428 -0.1578  0.0415
  179POPC   C1A 2694   0.771   6.753   5.315 -0.1425  0.1002  0.0447
  179POPC   D2A 2695   1.108   6.716   5.505  0.2070  0.0939 -0.0955
  179POPC   C3A 2696   1.134   6.344   5.736 -0.2488 -0.1720  0.2799
  179POPC   C4A 2697   1.266   5.993   6.017  0.0996 -0.1435 -0.0380
  179POPC   C1B 2698   0.508   7.147   5.347  0.0678  0.0019 -0.1487
  179POPC   C2B 2699   0.361   7.287   5.711 -0.0028  0.1809  0.0253
  179POPC   C3B 2700   0.635   7.409   6.212 -0.0898 -0.1314 -0.0926
  179POPC   C4B 2701   1.021   7.396   6.123  0.3618 -0.1609  0.1227
  180POPC   NC3 2702   7.594   3.787   5.148 -0.0270  0.0761 -0.0137
  180POPC   PO4 2703   7.839   3.406   5.524 -0.2237  0.0094 -0.1207
  180POPC   GL1 2704   7.750   3.563   5.943 -0.1499  0.0351  0.3417
  180POPC   GL2 2705   7.974   3.490   6.062 -0.2740 -0.4077  0.0785
  180POPC   C1A 2706   7.434   3.441   6.223  0.2936 -0.0666  0.0992
  180POPC   D2A 2707   7.089   3.565   6.549 -0.0356 -0.1165 -0.1000
  180POPC   C3A 2708   6.808   3.915   6.586  0.0773  0.2805 -0.0254
  180POPC   C4A 2709   6.320   3.962   6.598 -0.1192  0.1038 -0.2588
  180POPC   C1B 2710   8.182   3.120   6.231 -0.0820  0.0314 -0.0587
  180POPC   C2B 2711   8.499   2.879   6.409 -0.2846  0.1666 -0.0316
  180POPC   C3B 2712   8.946   2.822   6.603 -0.2048 -0.0278  0.2293
  180POPC   C4B 2713   9.061   2.396   6.709  0.3497  0.0887  0.0129
  181POPC   NC3 2714   4.922   7.298   4.982 -0.0668  0.2155 -0.2360
  181POPC   PO4 2715   5.319   7.067   4.995 -0.1709  0.1014  0.0239
  181POPC   GL1 2716   5.419   7.273   5.408  0.0087 -0.2032 -0.3013
  181POPC   GL2 2717   5.170   7.434   5.425  0.0559 -0.2494 -0.2388
  181POPC   C1A 2718   5.471   7.455   5.905 -0.0244  0.1726  0.1172
  181POPC   D2A 2719   5.256   7.651   6.256 -0.0778 -0.1772  0.1648
  181POPC   C3A 2720   5.446   7.686   6.684 -0.0858 -0.0314  0.0440
  181POPC   C4A 2721   5.713   7.517   6.973 -0.2457  0.2531 -0.0919
  181POPC   C1B 2722   4.734   7.618   5.543  0.3611 -0.0939  0.1883
  181POPC   C2B 2723   4.370   7.681   5.791  0.1502 -0.1848  0.1337
  181POPC   C3B 2724   4.127   8.050   5.965 -0.0137  0.0611 -0.1084
  181POPC   C4B 2725   4.133   8.116   6.394 -0.0366  0.0458  0.0015
  182POPC   NC3 2726   8.644   6.019   5.087  0.2303  0.1460 -0.3292
  182POPC   PO4 2727   9.012   6.028   4.973  0.1180 -0.1534  0.2326
  182POPC   GL1 2728   9.115   6.164   5.296 -0.2856  0.1157  0.1075
  182POPC   GL2 2729   8.782   6.349   5.454 -0.1028  0.1236  0.1595
  182POPC   C1A 2730   9.228   6.178   5.680  0.0938 -0.2048 -0.0880
  182POPC   D2A 2731   9.376   6.448   5.941 -0.1535  0.0847  0.1234
  182POPC   C3A 2732   9.752   6.461   6.124 -0.3306 -0.1832 -0.0215
  182POPC   C4A 2733  10.040   6.676   6.372  0.3047 -0.0358 -0.0492
  182POPC   C1B 2734   8.592   6.609   5.810  0.0056  0.2539  0.1961
  182POPC   C2B 2735   8.501   6.563   6.235  0.1833 -0.4468  0.1217
  182POPC   C3B 2736   8.494   6.405   6.668  0.0180  0.0954 -0.2729
  182POPC   C4B 2737   8.453   6.500   7.142  0.1191 -0.3576 -0.1552
  183POPC   NC3 2738   4.970   3.956   5.580 -0.1441  0.0401  0.2325
  183POPC   PO4 2739   4.951   3.505   5.580  0.0582 -0.2195 -0.1488
  183POPC   GL1 2740   4.831   3.532   5.928 -0.2419 -0.2695  0.2093
  183POPC   GL2 2741   4.739   3.171   6.022  0.1015 -0.0483 -0.3285
  183POPC   C1A 2742   4.747   3.549   6.326 -0.0472 -0.0002 -0.2069
  183POPC   D2A 2743   4.722   3.581   6.723 -0.0822  0.0143 -0.1327
  183POPC   C3A 2744   5.059   3.494   6.936 -0.3275  0.1476  0.2331
  183POPC   C4A 2745   5.420   3.493   6.907 -0.2678  0.0982  0.1715
  183POPC   C1B 2746   4.365   3.099   6.275 -0.0047  0.2448 -0.1847
  183POPC   C2B 2747   4.177   2.893   6.623  0.3159  0.0582 -0.0747
  183POPC   C3B 2748   4.128   2.490   6.543  0.2896 -0.1344 -0.2444
  183POPC   C4B 2749   4.286   2.385   6.176 -0.3286 -0.2259 -0.1949
  184POPC   NC3 2750   4.774   6.302   5.373  0.2711  0.0622 -0.0968
  184POPC   PO4 2751   5.145   6.255   5.249  0.0825 -0.1009  0.2490
  184POPC   GL1 2752   5.162   6.143   5.676  0.0243 -0.1044  0.1374
  184POPC   GL2 2753   5.024   6.490   5.759  0.0642  0.2484  0.1320
  184POPC   C1A 2754   5.277   6.219   6.127  0.3197  0.2790  0.0021
  184POPC   D2A 2755   5.263   6.110   6.524  0.1125  0.3794  0.1852
  184POPC   C3A 2756   5.553   6.195   6.872 -0.3447 -0.1308  0.5075
  184POPC   C4A 2757   5.678   6.340   7.349 -0.1106 -0.0197 -0.1197
  184POPC   C1B 2758   5.130   6.729   6.080  0.1383 -0.2518  0.1001
  184POPC   C2B 2759   5.259   7.027   6.204 -0.1730 -0.0318  0.1905
  184POPC   C3B 2760   5.102   7.333   6.541 -0.1277 -0.1759  0.1529
  184POPC   C4B 2761   4.815   7.495   6.788 -0.0058 -0.2433 -0.3331
  185POPC   NC3 2762   0.250   2.517   3.985 -0.1502  0.1975 -0.1086
  185POPC   PO4 2763   0.400   2.376   4.447  0.0631 -0.1969 -0.1908
  185POPC   GL1 2764   0.521   2.165   4.973 -0.2925 -0.1195  0.1909
  185POPC   GL2 2765   0.362   2.114   5.238 -0.0477 -0.1960 -0.4417
  185POPC   C1A 2766   0.761   1.791   5.076  0.0451 -0.4318  0.0477
  185POPC   D2A 2767   0.723   1.556   5.232 -0.1892  0.2837 -0.1281
  185POPC   C3A 2768   1.177   1.473   5.302 -0.1816  0.0353  0.1276
  185POPC   C4A 2769   1.330   1.483   5.639  0.1970  0.0849  0.2143
  185POPC   C1B 2770   0.315   1.718   5.343  0.4897  0.1737  0.2693
  185POPC   C2B 2771   0.395   1.555   5.690 -0.0051  0.2630  0.1506
  185POPC   C3B 2772   0.226   1.317   5.936  0.0668 -0.2054 -0.0070
  185POPC   C4B 2773   0.309   1.072   6.264  0.1787 -0.0404 -0.1704
  186POPC   NC3 2774   5.893   2.334   5.405  0.3179  0.1861  0.2715
  186POPC   PO4 2775   6.278   2.455   5.429 -0.2007  0.0169 -0.0092
  186POPC   GL1 2776   6.534   2.447   5.774  0.2600 -0.1175 -0.0265
  186POPC   GL2 2777   6.471   2.795   6.014 -0.1354 -0.0646 -0.1012
  186POPC   C1A 2778   6.757   2.361   6.109 -0.0046 -0.0548  0.1398
  186POPC   D2A 2779   6.828   2.434   6.504  0.2196  0.1369  0.1646
  186POPC   C3A 2780   7.100   2.151   6.711 -0.0073  0.1507  0.0151
  186POPC   C4A 2781   7.033   2.054   7.193 -0.0939 -0.2643  0.3488
  186POPC   C1B 2782   6.291   2.529   6.316  0.1815 -0.0356  0.0898
  186POPC   C2B 2783   5.903   2.215   6.419 -0.0611 -0.3145 -0.0304
  186POPC   C3B 2784   5.479   2.297   6.698 -0.2230 -0.1363  0.0444
  186POPC   C4B 2785   5.319   2.498   7.071  0.0919 -0.0352  0.2705
  187POPC   NC3 2786   9.599   3.003   4.878  0.1799 -0.1055  0.3569
  187POPC   PO4 2787   9.555   3.374   5.184 -0.5887 -0.2107  0.0877
  187POPC   GL1 2788   9.782   3.601   5.577  0.1418 -0.0360 -0.1040
  187POPC   GL2 2789   9.774   3.962   5.538  0.1880  0.0791  0.2713
  187POPC   C1A 2790   9.916   3.594   5.984  0.0390  0.0927  0.2469
  187POPC   D2A 2791   9.745   3.387   6.383  0.0944  0.0765 -0.1312
  187POPC   C3A 2792   9.893   3.009   6.481 -0.1309 -0.0093 -0.1269
  187POPC   C4A 2793  10.124   2.621   6.668 -0.0844 -0.3535 -0.1840
  187POPC   C1B 2794   9.856   4.211   5.923  0.0761  0.1587 -0.2295
  187POPC   C2B 2795  10.168   4.253   6.340 -0.1634 -0.0477 -0.1294
  187POPC   C3B 2796  10.057   4.556   6.656  0.1632  0.1643 -0.0244
  187POPC   C4B 2797   9.847   4.999   6.686 -0.1250  0.3153  0.1277
  188POPC   NC3 2798   1.025   0.926   3.438  0.2016 -0.2947  0.0806
  188POPC   PO4 2799   0.918   0.453   3.515  0.0260 -0.2875  0.0014
  188POPC   GL1 2800   0.718   0.256   3.911 -0.2231 -0.5048  0.3270
  188POPC   GL2 2801   0.518   0.255   4.092  0.2684 -0.0921  0.0127
  188POPC   C1A 2802   0.817  -0.083   4.153 -0.2458  0.1003  0.0469
  188POPC   D2A 2803   0.876  -0.004   4.639 -0.3018  0.1025  0.1977
  188POPC   C3A 2804   1.201  -0.019   4.934 -0.1611  0.0545  0.0572
  188POPC   C4A 2805   1.666   0.131   5.149 -0.2241  0.0297  0.1074
  188POPC   C1B 2806   0.739   0.408   4.422  0.1332  0.1641 -0.2285
  188POPC   C2B 2807   1.084   0.502   4.659 -0.1739  0.2390 -0.0453
  188POPC   C3B 2808   1.464   0.505   4.842 -0.1568 -0.3756  0.0347
  188POPC   C4B 2809   1.711   0.459   4.485 -0.0576 -0.2577  0.1561
  189POPC   NC3 2810   9.272   8.620   4.476  0.2786  0.0870 -0.0550
  189POPC   PO4 2811   8.954   8.865   4.626 -0.0281 -0.1233 -0.2427
  189POPC   GL1 2812   9.209   9.032   4.912  0.0850 -0.0955  0.1977
  189POPC   GL2 2813   9.026   9.333   5.074  0.0431  0.1604 -0.0368
  189POPC   C1A 2814   9.504   9.428   5.095  0.3236  0.0309  0.0370
  189POPC   D2A 2815   9.603   9.849   5.091  0.2361  0.1174  0.0267
  189POPC   C3A 2816   9.416  10.128   5.472 -0.1449  0.0750  0.1007
  189POPC   C4A 2817   9.634  10.402   5.699  0.0535  0.2031 -0.0942
  189POPC   C1B 2818   9.101   9.236   5.391  0.4149  0.0802 -0.1076
  189POPC   C2B 2819   9.177   8.824   5.465  0.2655  0.0376 -0.2919
  189POPC   C3B 2820   9.270   8.401   5.476  0.0052  0.0498  0.1025
  189POPC   C4B 2821   9.488   8.019   5.424 -0.1972  0.2030 -0.0209
  190POPC   NC3 2822   5.821   3.389   5.293  0.4392 -0.0357  0.2938
  190POPC   PO4 2823   6.332   3.473   5.452  0.0656 -0.0150 -0.0518
  190POPC   GL1 2824   6.483   3.634   5.880 -0.2402  0.1998  0.2218
  190POPC   GL2 2825   6.435   3.950   5.766 -0.0415 -0.0562  0.1624
  190POPC   C1A 2826   6.591   3.603   6.255 -0.1636  0.1944 -0.2474
  190POPC   D2A 2827   6.512   3.484   6.673  0.0889  0.1414  0.0673
  190POPC   C3A 2828   6.846   3.485   6.970  0.0714 -0.0077 -0.0747
  190POPC   C4A 2829   6.963   3.243   7.374  0.4007 -0.1433 -0.1098
  190POPC   C1B 2830   6.544   4.123   6.189 -0.1418 -0.1699  0.2112
  190POPC   C2B 2831   6.605   4.428   6.628  0.0395  0.0351 -0.0166
  190POPC   C3B 2832   6.464   4.633   7.067  0.3296 -0.0651 -0.0968
  190POPC   C4B 2833   6.488   4.946   7.255  0.1702  0.2139 -0.0643
  191POPC   NC3 2834   4.505   7.981   4.711  0.0483  0.1437  0.0776
  191POPC   PO4 2835   4.832   8.324   4.699 -0.3523  0.1120 -0.1563
  191POPC   GL1 2836   4.768   8.260   5.146  0.2421  0.1653 -0.3276
  191POPC   GL2 2837   4.565   8.130   5.205  0.1335  0.1280  0.0006
  191POPC   C1A 2838   4.543   8.584   5.392  0.1962 -0.2034  0.0472
  191POPC   D2A 2839   4.352   8.848   5.736  0.0718 -0.0821 -0.2115
  191POPC   C3A 2840   3.987   8.848   6.003  0.0902 -0.3388 -0.1463
  191POPC   C4A 2841   3.690   9.167   6.144  0.0063  0.0507  0.1019
  191POPC   C1B 2842   4.561   8.172   5.620  0.2151 -0.0359 -0.1931
  191POPC   C2B 2843   4.346   8.447   6.095  0.0422 -0.0694  0.0503
  191POPC   C3B 2844   4.368   8.944   6.314  0.3033  0.1497  0.0178
  191POPC   C4B 2845   4.517   9.427   6.432 -0.0799 -0.2301  0.0776
  192POPC   NC3 2846   9.126   3.240   4.742  0.0647 -0.1605 -0.1480
  192POPC   PO4 2847   9.204   3.014   5.081 -0.1585  0.1010 -0.1096
  192POPC   GL1 2848   9.229   3.051   5.588 -0.1586 -0.2430  0.2362
  192POPC   GL2 2849   8.955   2.978   5.831  0.0024 -0.1417 -0.0629
  192POPC   C1A 2850   9.441   3.332   5.885 -0.5900  0.1526  0.0055
  192POPC   D2A 2851   9.448   3.732   6.077 -0.2917  0.2798  0.0531
  192POPC   C3A 2852   9.758   3.926   6.399 -0.1368 -0.1823 -0.2718
  192POPC   C4A 2853   9.900   4.107   6.875  0.0573 -0.0200 -0.1236
  192POPC   C1B 2854   9.254   2.964   6.158 -0.0019  0.0268  0.2023
  192POPC   C2B 2855   9.428   2.943   6.564  0.3308 -0.0614 -0.0898
  192POPC   C3B 2856   9.698   2.854   6.960  0.0711 -0.0734  0.1227
  192POPC   C4B 2857   9.868   3.107   7.353  0.2447 -0.0852  0.0181
  193POPC   NC3 2858   2.953   2.698   5.386 -0.1043  0.2518  0.0648
  193POPC   PO4 2859   3.338   2.526   5.566  0.0143 -0.1584  0.0878
  193POPC   GL1 2860   3.415   2.258   5.871  0.0436 -0.0907  0.0676
  193POPC   GL2 2861   3.349   2.491   6.148  0.0325 -0.1636 -0.2234
  193POPC   C1A 2862   3.655   2.114   6.131  0.0034 -0.2181 -0.1561
  193POPC   D2A 2863   3.512   2.118   6.425  0.0069  0.1152 -0.1323
  193POPC   C3A 2864   3.732   2.070   6.749 -0.0094  0.2168  0.5221
  193POPC   C4A 2865   4.177   2.002   6.802  0.1723 -0.1903 -0.0509
  193POPC   C1B 2866   2.984   2.221   6.295  0.0016 -0.0718 -0.1447
  193POPC   C2B 2867   2.809   1.852   6.363 -0.1477  0.1421 -0.0941
  193POPC   C3B 2868   2.569   1.780   6.743 -0.2561 -0.4891  0.0315
  193POPC   C4B 2869   2.472   1.628   7.076 -0.0383 -0.1197  0.2533
  194POPC   NC3 2870   4.251   8.412   4.121 -0.4701  0.2071 -0.3529
  194POPC   PO4 2871   4.315   8.886   4.220 -0.0906 -0.0698  0.0557
  194POPC   GL1 2872   4.152   8.886   4.559  0.3038  0.0854  0.0491
  194POPC   GL2 2873   3.984   9.050   4.578 -0.0070  0.2875 -0.1145
  194POPC   C1A 2874   4.301   8.821   4.978  0.1095  0.0705  0.2929
  194POPC   D2A 2875   4.425   9.117   5.331  0.0268  0.0750  0.0684
  194POPC   C3A 2876   4.123   9.278   5.535  0.1029 -0.1985  0.0119
  194POPC   C4A 2877   3.729   9.169   5.626  0.0608  0.1003  0.2097
  194POPC   C1B 2878   3.509   9.066   4.745 -0.3205  0.3550 -0.2957
  194POPC   C2B 2879   3.139   8.967   4.982  0.0568 -0.0514  0.2129
  194POPC   C3B 2880   2.900   8.996   5.275  0.0397 -0.2041  0.0492
  194POPC   C4B 2881   2.536   8.777   5.600  0.2474  0.2704  0.1442
  195POPC   NC3 2882   6.665   4.841   5.167 -0.1261 -0.1069 -0.0474
  195POPC   PO4 2883   6.450   5.198   5.036 -0.0655  0.2166  0.0560
  195POPC   GL1 2884   6.301   5.189   5.469  0.0720  0.2168  0.2679
  195POPC   GL2 2885   6.400   5.543   5.649  0.2047  0.0015 -0.1456
  195POPC   C1A 2886   6.494   5.135   5.903  0.2077 -0.2698 -0.1130
  195POPC   D2A 2887   6.855   5.036   6.051  0.0214  0.0762  0.2677
  195POPC   C3A 2888   6.790   4.885   6.444 -0.0492  0.1340  0.1279
  195POPC   C4A 2889   6.797   4.955   6.901  0.0631  0.0042  0.4348
  195POPC   C1B 2890   6.464   5.640   6.048  0.3687 -0.2255 -0.2013
  195POPC   C2B 2891   6.262   5.878   6.461  0.0077  0.0880  0.0804
  195POPC   C3B 2892   6.023   5.954   6.839  0.3295  0.3677  0.1093
  195POPC   C4B 2893   6.116   6.059   7.226  0.0656  0.0844 -0.0391
  196POPC   NC3 2894   5.212   7.994   4.624  0.0846 -0.0816  0.1045
  196POPC   PO4 2895   4.938   7.844   4.929  0.3096 -0.0163  0.1051
  196POPC   GL1 2896   5.060   7.900   5.314 -0.0277 -0.3414 -0.1308
  196POPC   GL2 2897   5.190   8.201   5.439 -0.3935  0.1383 -0.1004
  196POPC   C1A 2898   4.986   7.901   5.796 -0.0043  0.1501 -0.0492
  196POPC   D2A 2899   4.854   8.218   6.116 -0.0845  0.0354 -0.1148
  196POPC   C3A 2900   4.598   8.481   6.470  0.1739 -0.2648  0.2275
  196POPC   C4A 2901   4.480   8.687   6.833  0.4060 -0.0808  0.3095
  196POPC   C1B 2902   5.315   8.506   5.740  0.2355 -0.2079  0.1180
  196POPC   C2B 2903   5.545   8.835   6.016 -0.1267 -0.0771  0.1256
  196POPC   C3B 2904   5.428   9.149   6.145  0.0731 -0.0261  0.2398
  196POPC   C4B 2905   5.584   9.536   6.490  0.0437  0.0440  0.3328
  197POPC   NC3 2906   7.056   7.102   5.538 -0.3925  0.1240 -0.1487
  197POPC   PO4 2907   6.688   6.904   5.376 -0.0295  0.0461 -0.2324
  197POPC   GL1 2908   6.853   6.693   5.822 -0.1180 -0.0344 -0.0743
  197POPC   GL2 2909   6.811   6.367   5.743  0.1078 -0.0278  0.0524
  197POPC   C1A 2910   6.899   6.569   6.274 -0.6357 -0.3830 -0.0832
  197POPC   D2A 2911   7.178   6.437   6.695 -0.2908  0.0545  0.0604
  197POPC   C3A 2912   6.899   6.318   6.965 -0.0804  0.0688  0.3946
  197POPC   C4A 2913   6.505   6.399   6.740 -0.2533  0.1437  0.0511
  197POPC   C1B 2914   7.029   6.089   5.938  0.0028 -0.0994 -0.4675
  197POPC   C2B 2915   7.208   6.017   6.342  0.1659 -0.0534  0.1643
  197POPC   C3B 2916   7.469   5.825   6.580 -0.0007 -0.2125 -0.3150
  197POPC   C4B 2917   7.837   5.729   6.869  0.1005 -0.1724 -0.1891
  198POPC   NC3 2918   3.306   2.109   5.344  0.0548  0.0394 -0.0865
  198POPC   PO4 2919   3.208   1.810   4.972 -0.2346  0.3243 -0.2708
  198POPC   GL1 2920   3.430   1.584   5.326  0.2091  0.0992  0.2643
  198POPC   GL2 2921   3.139   1.622   5.546 -0.0996  0.3597  0.0608
  198POPC   C1A 2922   3.855   1.358   5.538 -0.1681  0.2284  0.0918
  198POPC   D2A 2923   3.980   0.976   5.822  0.1152  0.0325  0.1416
  198POPC   C3A 2924   4.264   0.673   5.983  0.0075  0.0492  0.1496
  198POPC   C4A 2925   4.406   0.223   5.925 -0.3885 -0.0922 -0.2755
  198POPC   C1B 2926   3.390   1.745   5.844  0.2272 -0.0957 -0.1742
  198POPC   C2B 2927   3.355   1.681   6.287 -0.0341  0.2971  0.0033
  198POPC   C3B 2928   3.395   1.747   6.747 -0.0229 -0.2767  0.1966
  198POPC   C4B 2929   3.471   2.035   7.159  0.2092 -0.0679 -0.1151
  199POPC   NC3 2930   0.557   3.867   5.105 -0.0258  0.0220 -0.0597
  199POPC   PO4 2931   0.748   4.016   5.457  0.2642 -0.1918  0.2211
  199POPC   GL1 2932   0.718   4.170   5.921  0.2443 -0.3219 -0.0544
  199POPC   GL2 2933   0.929   4.289   6.119 -0.0094 -0.0289  0.0744
  199POPC   C1A 2934   0.556   4.163   6.418  0.0061 -0.2967 -0.2664
  199POPC   D2A 2935   0.262   4.045   6.736 -0.4604 -0.0135 -0.4220
  199POPC   C3A 2936   0.285   4.037   7.255  0.3465  0.0240 -0.1704
  199POPC   C4A 2937   0.636   4.216   7.505 -0.1314  0.0017 -0.1891
  199POPC   C1B 2938   0.849   4.552   6.450  0.0082  0.1142 -0.0283
  199POPC   C2B 2939   0.918   4.990   6.617  0.4110  0.0454 -0.2223
  199POPC   C3B 2940   1.081   5.188   6.955 -0.0655 -0.3816 -0.1947
  199POPC   C4B 2941   1.109   5.639   7.095 -0.1423  0.2198  0.2607
  200POPC   NC3 2942  10.144   5.715   5.110 -0.2403 -0.0441  0.1625
  200POPC   PO4 2943   9.790   5.609   5.159  0.0696  0.2429 -0.0923
  200POPC   GL1 2944   9.852   5.605   5.586  0.1188  0.0652  0.0189
  200POPC   GL2 2945   9.748   5.318   5.701  0.0124  0.2024 -0.1209
  200POPC   C1A 2946  10.101   5.568   6.087  0.1174 -0.2238  0.0361
  200POPC   D2A 2947   9.954   5.507   6.541 -0.3509  0.0119 -0.0221
  200POPC   C3A 2948   9.667   5.756   6.760  0.4200  0.0166 -0.1323
  200POPC   C4A 2949   9.507   6.053   7.042  0.0044  0.4065  0.0554
  200POPC   C1B 2950   9.378   5.204   5.827  0.1983  0.0184  0.2225
  200POPC   C2B 2951   9.333   4.985   6.233  0.2011 -0.0694  0.2573
  200POPC   C3B 2952   9.105   5.079   6.568 -0.0574  0.0077  0.3284
  200POPC   C4B 2953   8.871   4.883   6.921 -0.1554 -0.2628 -0.0926
  201POPC   NC3 2954   0.839   5.386   5.252  0.2574 -0.4230 -0.1391
  201POPC   PO4 2955   0.578   4.984   5.267  0.0090 -0.0194 -0.0036
  201POPC   GL1 2956   0.486   5.148   5.678 -0.1638 -0.3839 -0.2234
  201POPC   GL2 2957   0.713   5.172   5.870  0.2645  0.2536 -0.0115
  201POPC   C1A 2958   0.379   5.409   6.123 -0.3115  0.2621 -0.0193
  201POPC   D2A 2959   0.592   5.367   6.556  0.0970 -0.0203 -0.3666
  201POPC   C3A 2960   0.234   5.354   6.873 -0.1362 -0.1052 -0.2599
  201POPC   C4A 2961  -0.068   5.354   7.041  0.0339  0.0108 -0.0697
  201POPC   C1B 2962   0.923   5.398   6.101  0.0161  0.1447  0.0516
  201POPC   C2B 2963   1.037   5.548   6.553  0.0241 -0.4756  0.0185
  201POPC   C3B 2964   0.772   5.784   6.775  0.1983  0.3119 -0.1919
  201POPC   C4B 2965   0.757   6.206   6.998  0.0059 -0.0362 -0.1469
  202POPC   NC3 2966   4.001   1.209   4.661  0.1929 -0.3623  0.1812
  202POPC   PO4 2967   4.322   0.868   4.863  0.1225  0.0597  0.0722
  202POPC   GL1 2968   4.124   0.675   5.227 -0.1019 -0.1152  0.2233
  202POPC   GL2 2969   4.212   1.021   5.299  0.2185  0.2602 -0.0189
  202POPC   C1A 2970   3.921   0.475   5.616  0.2649 -0.1523  0.0253
  202POPC   D2A 2971   3.861   0.300   6.092 -0.1877  0.4024 -0.2680
  202POPC   C3A 2972   4.007   0.619   6.445 -0.1167  0.0933 -0.2914
  202POPC   C4A 2973   4.091   0.565   6.876 -0.0497  0.0300 -0.1125
  202POPC   C1B 2974   4.459   0.923   5.595 -0.0290  0.0668 -0.1077
  202POPC   C2B 2975   4.693   0.898   5.859 -0.4712  0.1069 -0.0125
  202POPC   C3B 2976   4.902   1.191   6.083 -0.1757  0.2314  0.0338
  202POPC   C4B 2977   5.325   1.355   6.036  0.2010  0.0954  0.1170
  203POPC   NC3 2978  10.044   4.324   5.389 -0.0504 -0.0099 -0.3339
  203POPC   PO4 2979  10.211   3.955   5.110 -0.2076  0.3221  0.0260
  203POPC   GL1 2980  10.403   3.839   5.531  0.1784  0.0595 -0.1804
  203POPC   GL2 2981  10.242   4.001   5.673 -0.2536 -0.0045  0.3210
  203POPC   C1A 2982  10.611   3.544   5.786 -0.1568 -0.2293  0.0043
  203POPC   D2A 2983  10.256   3.240   6.139  0.2546 -0.1553 -0.0097
  203POPC   C3A 2984  10.361   3.104   6.560  0.1826  0.1116  0.1932
  203POPC   C4A 2985  10.167   3.088   6.980 -0.2545  0.1150  0.1111
  203POPC   C1B 2986  10.394   3.820   6.123 -0.1360  0.0214 -0.0381
  203POPC   C2B 2987  10.310   3.655   6.427 -0.0721 -0.0573 -0.1892
  203POPC   C3B 2988  10.055   3.609   6.713  0.0494  0.3591  0.0169
  203POPC   C4B 2989   9.722   3.322   6.858  0.0126  0.0382  0.2234
  204POPC   NC3 2990   6.371   2.955   5.438  0.0693 -0.1319 -0.0672
  204POPC   PO4 2991   5.974   2.842   5.209 -0.0900 -0.1135 -0.1252
  204POPC   GL1 2992   5.956   2.806   5.672  0.1403 -0.0413  0.0725
  204POPC   GL2 2993   6.037   3.133   5.771  0.0590  0.1641  0.2961
  204POPC   C1A 2994   5.892   2.694   6.028 -0.0434 -0.0801 -0.2129
  204POPC   D2A 2995   5.892   2.777   6.469 -0.0012 -0.2366 -0.1487
  204POPC   C3A 2996   6.067   3.021   6.828 -0.2393  0.3279 -0.0403
  204POPC   C4A 2997   6.390   3.168   7.020  0.3327 -0.1944  0.3165
  204POPC   C1B 2998   6.218   3.177   6.166 -0.3625 -0.1841 -0.1427
  204POPC   C2B 2999   6.449   3.038   6.455  0.0898  0.0687  0.1556
  204POPC   C3B 3000   6.458   2.691   6.779 -0.1499 -0.0887  0.2809
  204POPC   C4B 3001   6.328   2.435   7.161  0.2340 -0.0893 -0.1047
  205POPC   NC3 3002   4.218   4.603   5.340  0.0673  0.1004 -0.0035
  205POPC   PO4 3003   4.129   4.202   5.530 -0.4017  0.3399 -0.0285
  205POPC   GL1 3004   4.185   4.412   5.932  0.0874 -0.1222 -0.3071
  205POPC   GL2 3005   4.130   4.774   6.115 -0.0479 -0.1649  0.1689
  205POPC   C1A 3006   3.978   4.262   6.285 -0.0622 -0.3652  0.0196
  205POPC   D2A 3007   4.187   4.099   6.741  0.0298  0.0165 -0.0679
  205POPC   C3A 3008   4.109   4.345   7.043 -0.3395 -0.0176 -0.0431
  205POPC   C4A 3009   4.336   4.488   7.466 -0.0694  0.0728 -0.0685
  205POPC   C1B 3010   4.421   4.963   6.425 -0.2580  0.1250 -0.4528
  205POPC   C2B 3011   4.497   5.124   6.851 -0.3377  0.1068 -0.0920
  205POPC   C3B 3012   4.554   5.113   7.310  0.1204 -0.0991  0.0417
  205POPC   C4B 3013   4.365   5.404   7.693 -0.1618 -0.4746  0.3246
  206POPC   NC3 3014   1.259   3.344   5.638 -0.2487 -0.0936  0.0135
  206POPC   PO4 3015   1.742   3.500   5.631 -0.1234 -0.0088 -0.3223
  206POPC   GL1 3016   1.516   3.569   6.020 -0.0119  0.2943 -0.1197
  206POPC   GL2 3017   1.417   3.333   6.148 -0.2017  0.0625  0.2360
  206POPC   C1A 3018   1.546   3.817   6.417  0.1759  0.1473 -0.2336
  206POPC   D2A 3019   1.564   3.956   6.901  0.1981  0.1556 -0.0527
  206POPC   C3A 3020   1.378   4.356   6.944 -0.0786  0.0052 -0.2819
  206POPC   C4A 3021   1.188   4.683   6.857 -0.1247  0.3446  0.2090
  206POPC   C1B 3022   1.564   3.158   6.510 -0.0044 -0.1087 -0.0854
  206POPC   C2B 3023   1.482   3.200   6.867  0.0050  0.1915  0.1200
  206POPC   C3B 3024   1.341   3.066   7.319  0.0783  0.0520 -0.0269
  206POPC   C4B 3025   1.142   2.777   7.619 -0.1134 -0.2088  0.1722
  207POPC   NC3 3026   2.726   3.456   5.297 -0.2778 -0.1647  0.0394
  207POPC   PO4 3027   2.689   3.083   5.430  0.2364 -0.1069 -0.1348
  207POPC   GL1 3028   2.637   2.766   5.815 -0.0382  0.1626  0.3990
  207POPC   GL2 3029   2.900   2.513   5.842 -0.2410 -0.0356 -0.0104
  207POPC   C1A 3030   2.777   2.753   6.226  0.0247  0.3161 -0.0254
  207POPC   D2A 3031   3.099   2.745   6.585  0.1103  0.1742  0.0165
  207POPC   C3A 3032   3.049   2.756   7.072 -0.0712  0.0584  0.0452
  207POPC   C4A 3033   2.826   3.110   7.217  0.1115 -0.0795 -0.0998
  207POPC   C1B 3034   2.467   2.403   6.052 -0.4668 -0.1211 -0.3331
  207POPC   C2B 3035   2.376   2.152   6.457  0.0454 -0.0335  0.1883
  207POPC   C3B 3036   2.083   1.940   6.713 -0.0674  0.3193  0.0375
  207POPC   C4B 3037   2.041   1.906   7.101  0.1432 -0.2339  0.1406
  208POPC   NC3 3038   5.214   1.646   5.349 -0.2951 -0.3825  0.0197
  208POPC   PO4 3039   5.395   2.107   5.281 -0.1004 -0.2213 -0.2783
  208POPC   GL1 3040   5.510   2.153   5.699 -0.0896  0.1174  0.1099
  208POPC   GL2 3041   5.551   2.443   5.735 -0.0278 -0.0298 -0.2658
  208POPC   C1A 3042   5.789   1.986   5.943 -0.3371  0.2745 -0.0274
  208POPC   D2A 3043   6.072   2.214   5.932  0.2785 -0.0241  0.0196
  208POPC   C3A 3044   6.288   1.964   6.318  0.0588  0.3023 -0.0999
  208POPC   C4A 3045   6.388   1.687   6.561  0.0520  0.2116  0.2886
  208POPC   C1B 3046   5.512   2.452   6.151  0.0565 -0.0426 -0.4683
  208POPC   C2B 3047   5.400   2.802   6.344  0.0074  0.0346  0.0708
  208POPC   C3B 3048   4.987   3.125   6.449 -0.0445  0.0472  0.2451
  208POPC   C4B 3049   4.679   3.049   6.681  0.0695 -0.2615 -0.2591
  209POPC   NC3 3050   1.985   3.029   4.938  0.0146 -0.1290 -0.0494
  209POPC   PO4 3051   1.771   3.188   5.303  0.4180 -0.1170 -0.3803
  209POPC   GL1 3052   1.631   2.966   5.646  0.4399  0.2445 -0.4310
  209POPC   GL2 3053   1.291   2.853   5.810  0.0666 -0.2151 -0.0229
  209POPC   C1A 3054   1.605   2.430   5.810  0.1306 -0.2282  0.0974
  209POPC   D2A 3055   1.892   2.291   6.189  0.4400  0.0736  0.3295
  209POPC   C3A 3056   1.878   2.490   6.559  0.0899  0.1020  0.0003
  209POPC   C4A 3057   1.615   2.658   6.727 -0.2026 -0.1682  0.1368
  209POPC   C1B 3058   0.899   2.667   6.002 -0.0108 -0.1045 -0.2042
  209POPC   C2B 3059   0.878   2.553   6.434 -0.0061 -0.2363 -0.1952
  209POPC   C3B 3060   0.709   2.275   6.784 -0.3028 -0.1512  0.1819
  209POPC   C4B 3061   0.569   1.947   7.132  0.2980  0.3035 -0.1812
  210POPC   NC3 3062   6.048   8.167   5.018  0.2543 -0.0677 -0.3941
  210POPC   PO4 3063   5.961   7.754   5.122  0.3088  0.1281 -0.1568
  210POPC   GL1 3064   5.758   7.726   5.494 -0.1546 -0.2443  0.1191
  210POPC   GL2 3065   5.536   7.862   5.518  0.2289 -0.2310  0.2918
  210POPC   C1A 3066   5.941   7.896   5.934 -0.1304 -0.1202  0.2976
  210POPC   D2A 3067   5.722   7.759   6.302 -0.0598 -0.0814  0.0620
  210POPC   C3A 3068   5.587   7.319   6.385 -0.1772 -0.0693  0.0429
  210POPC   C4A 3069   5.535   7.056   6.699 -0.0195  0.0630 -0.0020
  210POPC   C1B 3070   5.428   8.087   5.963  0.0809  0.3980 -0.2328
  210POPC   C2B 3071   5.349   8.152   6.406  0.1131  0.1191 -0.2786
  210POPC   C3B 3072   5.592   8.151   6.783 -0.1119 -0.0489 -0.1826
  210POPC   C4B 3073   5.932   7.949   6.762 -0.3423 -0.0086 -0.0004
  211POPC   NC3 3074   2.157   6.099   4.692 -0.1004 -0.0445 -0.0391
  211POPC   PO4 3075   2.425   5.735   4.809 -0.3707 -0.0777 -0.0201
  211POPC   GL1 3076   2.532   6.056   5.172 -0.1744  0.1687 -0.3462
  211POPC   GL2 3077   2.620   6.365   5.047 -0.3280 -0.0730 -0.0577
  211POPC   C1A 3078   2.486   6.292   5.625  0.4033 -0.1465  0.1379
  211POPC   D2A 3079   2.517   6.441   6.108 -0.4907  0.0639 -0.1006
  211POPC   C3A 3080   2.803   6.743   6.324 -0.0562  0.0186  0.0600
  211POPC   C4A 3081   2.733   7.066   6.710  0.1984  0.2040 -0.2613
  211POPC   C1B 3082   2.420   6.712   5.251  0.4466 -0.2619  0.1271
  211POPC   C2B 3083   1.953   6.977   5.172  0.2161 -0.2735 -0.2457
  211POPC   C3B 3084   1.602   7.128   4.933  0.2228  0.2064 -0.0549
  211POPC   C4B 3085   1.480   7.548   4.905 -0.0748 -0.1092 -0.1064
  212POPC   NC3 3086   3.331   5.656   5.206 -0.1198  0.1310  0.0969
  212POPC   PO4 3087   3.612   5.723   5.304 -0.3894 -0.1241 -0.2604
  212POPC   GL1 3088   3.762   5.825   5.666  0.2682  0.4451  0.0481
  212POPC   GL2 3089   3.977   6.124   5.636 -0.0057  0.0258  0.0628
  212POPC   C1A 3090   3.702   5.492   6.069  0.1207 -0.3379 -0.2308
  212POPC   D2A 3091   3.740   5.520   6.528 -0.0096 -0.0707  0.2941
  212POPC   C3A 3092   3.585   5.253   6.896  0.5384 -0.0711 -0.3343
  212POPC   C4A 3093   3.643   4.879   7.259  0.0728 -0.3746  0.0631
  212POPC   C1B 3094   3.845   6.345   6.015 -0.1931 -0.2046  0.0323
  212POPC   C2B 3095   3.859   6.514   6.413 -0.1136  0.1244  0.0271
  212POPC   C3B 3096   3.691   6.685   6.799 -0.2123 -0.2049 -0.0833
  212POPC   C4B 3097   3.499   7.012   7.141 -0.0105  0.2223 -0.0815
  213POPC   NC3 3098   2.418   4.054   5.777 -0.0589 -0.1673  0.3444
  213POPC   PO4 3099   2.748   3.935   5.531  0.0385 -0.2490  0.1309
  213POPC   GL1 3100   2.921   3.918   5.964 -0.0415 -0.1901 -0.1901
  213POPC   GL2 3101   2.675   3.695   6.013  0.1323  0.2315 -0.1299
  213POPC   C1A 3102   2.988   3.917   6.379  0.1328 -0.0042  0.2097
  213POPC   D2A 3103   2.956   3.884   6.807  0.1412  0.0979  0.1517
  213POPC   C3A 3104   2.820   4.157   7.132 -0.0489 -0.2637  0.3070
  213POPC   C4A 3105   2.953   4.336   7.455  0.0053 -0.1234 -0.0171
  213POPC   C1B 3106   2.478   3.236   6.022  0.0699  0.1057 -0.0744
  213POPC   C2B 3107   2.336   3.069   6.338  0.0468  0.0859 -0.2428
  213POPC   C3B 3108   2.326   2.624   6.549 -0.2524  0.0261  0.0492
  213POPC   C4B 3109   2.748   2.443   6.644 -0.1167  0.1390  0.1591
  214POPC   NC3 3110  10.121   1.204   4.097 -0.1055  0.0514  0.3199
  214POPC   PO4 3111  10.522   1.149   4.025  0.0885  0.1496  0.0883
  214POPC   GL1 3112  10.492   1.226   4.455 -0.4384 -0.0392  0.0085
  214POPC   GL2 3113  10.749   1.372   4.569  0.0985  0.0214  0.2310
  214POPC   C1A 3114  10.306   1.275   4.977 -0.0782  0.0117  0.0221
  214POPC   D2A 3115  10.424   1.127   5.414 -0.0068  0.2068  0.0132
  214POPC   C3A 3116  10.699   1.021   5.708 -0.3037  0.1625 -0.3252
  214POPC   C4A 3117  10.875   0.876   6.028 -0.1317 -0.0517  0.2572
  214POPC   C1B 3118  10.840   1.150   4.893  0.1755  0.1423 -0.1475
  214POPC   C2B 3119  11.003   1.018   5.231  0.1781 -0.2095  0.0103
  214POPC   C3B 3120  11.109   0.617   5.158 -0.0616 -0.0787 -0.0611
  214POPC   C4B 3121  11.338   0.191   5.383  0.1602 -0.0781 -0.1071
  215POPC   NC3 3122   9.605   0.571   3.875  0.0113 -0.2238 -0.1942
  215POPC   PO4 3123   9.849   0.828   3.884 -0.0451 -0.1493 -0.1807
  215POPC   GL1 3124  10.114   0.735   4.279 -0.0586  0.2204  0.0494
  215POPC   GL2 3125  10.463   0.721   4.322  0.2229  0.0811  0.1993
  215POPC   C1A 3126  10.173   0.841   4.719 -0.1839 -0.2985 -0.2084
  215POPC   D2A 3127  10.075   0.851   5.212  0.2576  0.1668  0.0742
  215POPC   C3A 3128   9.853   0.435   5.279  0.0233  0.0740  0.1264
  215POPC   C4A 3129   9.610   0.185   5.023 -0.2289 -0.2654 -0.0157
  215POPC   C1B 3130  10.643   0.753   4.609  0.1260 -0.0111  0.1264
  215POPC   C2B 3131  10.542   0.737   5.033  0.0922  0.0272 -0.0867
  215POPC   C3B 3132  10.616   0.603   5.509 -0.0315  0.0667 -0.1323
  215POPC   C4B 3133  11.090   0.599   5.630 -0.2036 -0.0290  0.0950
  216POPC   NC3 3134   9.849   9.084   3.939  0.0108  0.0604  0.0380
  216POPC   PO4 3135   9.936   9.555   3.928 -0.1688  0.1912  0.0061
  216POPC   GL1 3136  10.032   9.772   4.285  0.0691  0.3603 -0.1764
  216POPC   GL2 3137   9.943  10.035   4.366  0.0460  0.0488  0.0996
  216POPC   C1A 3138   9.888   9.609   4.711 -0.4263 -0.0753 -0.2420
  216POPC   D2A 3139  10.103   9.553   5.070  0.2613  0.1555  0.1081
  216POPC   C3A 3140  10.453   9.958   5.035 -0.0389  0.2156 -0.4197
  216POPC   C4A 3141  10.900   9.908   4.997  0.2351  0.1388 -0.1908
  216POPC   C1B 3142  10.086  10.075   4.758  0.2792 -0.1742 -0.2297
  216POPC   C2B 3143   9.995  10.151   5.215 -0.2369 -0.1038 -0.1235
  216POPC   C3B 3144   9.869   9.844   5.505 -0.2007 -0.0834 -0.4180
  216POPC   C4B 3145   9.565   9.460   5.588  0.0335 -0.0963 -0.3208
  217POPC   NC3 3146   8.978   2.347   4.705 -0.1836  0.3111  0.1507
  217POPC   PO4 3147   9.162   1.939   4.708  0.0185 -0.0673  0.2318
  217POPC   GL1 3148   9.083   2.035   5.095 -0.0609 -0.1356  0.1225
  217POPC   GL2 3149   9.094   1.713   5.286 -0.3530 -0.0069 -0.0821
  217POPC   C1A 3150   9.315   2.188   5.426  0.0297  0.0118 -0.0633
  217POPC   D2A 3151   9.348   2.060   5.818  0.1285  0.0131 -0.1803
  217POPC   C3A 3152   9.406   1.702   5.992 -0.0331 -0.0212 -0.0814
  217POPC   C4A 3153   9.602   1.492   6.386  0.1087 -0.2505  0.4059
  217POPC   C1B 3154   8.714   1.407   5.246  0.0894 -0.0004  0.0465
  217POPC   C2B 3155   8.651   0.987   5.259 -0.1113 -0.0534  0.2154
  217POPC   C3B 3156   8.518   0.818   5.601  0.1042  0.1241  0.0321
  217POPC   C4B 3157   8.473   0.937   6.002 -0.5565 -0.2836  0.5326
  218POPC   NC3 3158   8.160   9.944   4.479 -0.4225  0.0141 -0.1178
  218POPC   PO4 3159   8.092   9.780   4.904  0.1461 -0.1692 -0.1244
  218POPC   GL1 3160   8.201   9.858   5.354  0.3935 -0.3472 -0.2419
  218POPC   GL2 3161   8.079  10.114   5.551 -0.0941  0.1441  0.1898
  218POPC   C1A 3162   8.218   9.657   5.724  0.2831 -0.0230  0.2105
  218POPC   D2A 3163   8.303   9.279   5.969 -0.3175 -0.1403  0.6321
  218POPC   C3A 3164   8.633   9.287   6.389  0.3204 -0.2340 -0.1729
  218POPC   C4A 3165   8.915   9.592   6.641  0.0989  0.1277  0.1764
  218POPC   C1B 3166   8.272  10.077   6.038 -0.0166 -0.1788  0.1347
  218POPC   C2B 3167   8.425   9.754   6.341  0.1139 -0.0423 -0.6730
  218POPC   C3B 3168   8.366   9.484   6.807  0.2791  0.0130 -0.1468
  218POPC   C4B 3169   8.497   9.080   6.971  0.4458 -0.2906  0.1005
  219POPC   NC3 3170   2.270   5.450   5.225 -0.0155 -0.1338 -0.1513
  219POPC   PO4 3171   2.050   5.803   5.199  0.1296  0.0433 -0.0393
  219POPC   GL1 3172   2.095   5.849   5.587 -0.1175  0.0519 -0.3119
  219POPC   GL2 3173   1.794   5.983   5.585  0.0438  0.0896  0.2148
  219POPC   C1A 3174   2.113   6.141   6.047  0.1494 -0.0409  0.0920
  219POPC   D2A 3175   2.017   6.482   6.128  0.2985  0.2850 -0.0262
  219POPC   C3A 3176   2.223   6.628   6.533  0.1888  0.0021  0.2228
  219POPC   C4A 3177   2.570   6.534   6.835 -0.3174  0.0610  0.1539
  219POPC   C1B 3178   1.666   6.319   5.781 -0.2955  0.0191  0.2214
  219POPC   C2B 3179   1.500   6.345   6.281  0.3001 -0.1016 -0.2102
  219POPC   C3B 3180   1.514   6.422   6.750 -0.2388 -0.2713  0.1859
  219POPC   C4B 3181   1.835   6.499   7.023 -0.0600 -0.0906 -0.1601
  220POPC   NC3 3182   7.066   6.115   4.945  0.0740  0.0235 -0.1887
  220POPC   PO4 3183   7.426   6.055   5.286  0.2040 -0.1241  0.1686
  220POPC   GL1 3184   7.442   6.089   5.667 -0.2230 -0.1431 -0.2207
  220POPC   GL2 3185   7.404   5.825   5.823  0.3091  0.1541  0.4568
  220POPC   C1A 3186   7.751   6.105   5.951  0.4357 -0.3005 -0.3142
  220POPC   D2A 3187   7.935   5.994   6.383  0.0909 -0.1723  0.2358
  220POPC   C3A 3188   8.081   6.212   6.844 -0.2982  0.0221 -0.1547
  220POPC   C4A 3189   8.223   6.134   7.285 -0.0496  0.0240  0.1193
  220POPC   C1B 3190   7.639   5.670   6.150  0.0674  0.0867  0.0867
  220POPC   C2B 3191   8.008   5.518   6.324 -0.1084  0.0123 -0.1954
  220POPC   C3B 3192   8.327   5.480   6.547  0.0850 -0.0203  0.0519
  220POPC   C4B 3193   8.561   5.236   6.840 -0.0571 -0.1027 -0.1568
  221POPC   NC3 3194   7.776   2.475   5.309  0.0941 -0.3539  0.1970
  221POPC   PO4 3195   7.941   2.765   5.533  0.1838  0.1874  0.1825
  221POPC   GL1 3196   8.133   2.733   5.942 -0.0198 -0.0226  0.3743
  221POPC   GL2 3197   8.067   2.405   5.993 -0.1185 -0.0580 -0.1353
  221POPC   C1A 3198   7.915   2.659   6.347  0.0795 -0.0667  0.3208
  221POPC   D2A 3199   8.094   2.655   6.769 -0.0330  0.2788 -0.0120
  221POPC   C3A 3200   7.810   2.448   7.085 -0.2259  0.1699  0.0547
  221POPC   C4A 3201   7.498   2.152   7.127  0.0649 -0.0906 -0.2163
  221POPC   C1B 3202   8.177   2.256   6.386 -0.0373  0.1146 -0.1561
  221POPC   C2B 3203   8.172   2.124   6.897 -0.1038  0.0789  0.0356
  221POPC   C3B 3204   8.448   1.993   7.214 -0.1870  0.2331 -0.1978
  221POPC   C4B 3205   8.727   2.125   7.602 -0.1143  0.0155 -0.1300
  222POPC   NC3 3206   9.607   6.504   4.894  0.1942 -0.0157  0.1524
  222POPC   PO4 3207  10.048   6.202   5.057  0.0410  0.1040 -0.0351
  222POPC   GL1 3208  10.138   6.164   5.373  0.0140  0.1405 -0.2498
  222POPC   GL2 3209  10.027   6.449   5.594  0.2256  0.0306  0.1316
  222POPC   C1A 3210  10.444   6.240   5.679 -0.0782 -0.0527  0.2115
  222POPC   D2A 3211  10.444   6.349   6.089  0.0003  0.1404 -0.0680
  222POPC   C3A 3212  10.727   6.672   6.302  0.2278  0.1058  0.1312
  222POPC   C4A 3213  10.795   6.657   6.713 -0.3060 -0.0542 -0.2109
  222POPC   C1B 3214   9.987   6.042   5.860  0.0780 -0.0127 -0.0678
  222POPC   C2B 3215   9.985   5.942   6.341 -0.1215 -0.1665  0.0584
  222POPC   C3B 3216   9.825   6.262   6.562 -0.1975  0.1708 -0.3273
  222POPC   C4B 3217   9.701   6.550   6.942  0.0003  0.0057  0.0037
  223POPC   NC3 3218   6.602   3.920   5.259  0.0567  0.2645  0.1532
  223POPC   PO4 3219   6.831   4.421   5.290  0.2208 -0.1542 -0.1300
  223POPC   GL1 3220   6.942   4.547   5.707 -0.0619  0.1326 -0.0142
  223POPC   GL2 3221   6.539   4.534   5.871 -0.2816 -0.0364 -0.0374
  223POPC   C1A 3222   6.968   4.527   6.177  0.2141  0.1092  0.3908
  223POPC   D2A 3223   7.107   4.505   6.553 -0.1751  0.1003  0.2628
  223POPC   C3A 3224   7.297   4.862   6.816  0.2193  0.1748 -0.1215
  223POPC   C4A 3225   7.412   5.209   7.079 -0.0009  0.0906 -0.0410
  223POPC   C1B 3226   6.389   4.720   6.194 -0.3829  0.0656 -0.1646
  223POPC   C2B 3227   6.311   4.938   6.562 -0.2797 -0.3595 -0.1740
  223POPC   C3B 3228   6.070   5.093   7.007  0.1917  0.0462  0.1504
  223POPC   C4B 3229   5.813   5.291   7.347  0.1786 -0.1605 -0.1030
  224POPC   NC3 3230   9.205   5.548   5.076 -0.2891  0.0649 -0.1544
  224POPC   PO4 3231   8.895   5.173   5.059  0.0368  0.0275  0.0880
  224POPC   GL1 3232   8.890   5.224   5.452  0.2272 -0.1427 -0.4580
  224POPC   GL2 3233   8.725   5.037   5.659 -0.1571  0.0237  0.3488
  224POPC   C1A 3234   8.970   5.466   5.767  0.1541  0.1348 -0.5037
  224POPC   D2A 3235   9.124   5.527   6.173  0.0836 -0.3871 -0.0295
  224POPC   C3A 3236   9.248   5.841   6.446  0.2076  0.0209  0.1860
  224POPC   C4A 3237   9.350   6.289   6.453  0.1177  0.1408  0.1233
  224POPC   C1B 3238   8.851   5.062   6.065 -0.2689 -0.0289 -0.1855
  224POPC   C2B 3239   8.648   4.937   6.452  0.1188 -0.1623 -0.0694
  224POPC   C3B 3240   8.275   4.764   6.787  0.1082  0.1072 -0.0306
  224POPC   C4B 3241   7.968   4.476   6.890 -0.1566  0.1626  0.2330
  225POPC   NC3 3242   5.721   0.932   5.155 -0.3134  0.1393 -0.0781
  225POPC   PO4 3243   5.650   1.228   5.383  0.0053 -0.5037  0.0155
  225POPC   GL1 3244   5.847   1.193   5.727  0.2019  0.1076 -0.0909
  225POPC   GL2 3245   5.838   1.480   5.905 -0.1527  0.1097  0.2292
  225POPC   C1A 3246   5.962   1.053   6.157  0.1048 -0.2090  0.0170
  225POPC   D2A 3247   6.290   1.059   6.392 -0.1953  0.2336  0.0971
  225POPC   C3A 3248   6.248   0.965   6.736 -0.0054  0.2110  0.4089
  225POPC   C4A 3249   6.007   1.088   7.129  0.1066  0.1810 -0.0868
  225POPC   C1B 3250   5.890   1.553   6.375 -0.1503  0.2938 -0.2554
  225POPC   C2B 3251   5.892   1.323   6.758 -0.0483 -0.4643  0.4310
  225POPC   C3B 3252   5.588   1.021   6.860 -0.0997  0.0824  0.0903
  225POPC   C4B 3253   5.135   0.918   6.870  0.2117  0.0829 -0.0334
  226POPC   NC3 3254   3.699   4.421   5.667 -0.1083 -0.0188 -0.1265
  226POPC   PO4 3255   3.757   4.802   5.444 -0.1570 -0.2190  0.1356
  226POPC   GL1 3256   3.686   4.881   5.928  0.0606 -0.4773  0.2600
  226POPC   GL2 3257   3.598   4.564   6.125  0.2433 -0.2922  0.2667
  226POPC   C1A 3258   3.538   5.041   6.388 -0.2213 -0.0792  0.0800
  226POPC   D2A 3259   3.227   5.351   6.516  0.1441 -0.1085 -0.0009
  226POPC   C3A 3260   2.895   5.214   6.281  0.0752  0.0482  0.2712
  226POPC   C4A 3261   2.813   4.789   6.422 -0.0352 -0.2058 -0.0462
  226POPC   C1B 3262   3.513   4.551   6.562 -0.2588 -0.2601 -0.3803
  226POPC   C2B 3263   3.214   4.924   6.805  0.3059  0.2842 -0.1628
  226POPC   C3B 3264   2.947   5.278   6.978  0.2524 -0.0435  0.0708
  226POPC   C4B 3265   2.736   5.223   7.285 -0.1450 -0.0170 -0.0106
  227POPC   NC3 3266   7.541   6.675   4.595  0.0234  0.3191 -0.0663
  227POPC   PO4 3267   7.601   7.052   4.918 -0.1479 -0.1861  0.1684
  227POPC   GL1 3268   7.650   7.087   5.488  0.0739 -0.2491 -0.0979
  227POPC   GL2 3269   7.488   7.364   5.821  0.0895  0.1610  0.0028
  227POPC   C1A 3270   7.611   6.860   5.886 -0.0002 -0.2791  0.3154
  227POPC   D2A 3271   7.440   6.473   6.129  0.1344  0.0774  0.3563
  227POPC   C3A 3272   7.616   6.362   6.498 -0.2292 -0.0448  0.3120
  227POPC   C4A 3273   7.598   6.181   6.927 -0.1072 -0.1591 -0.2279
  227POPC   C1B 3274   7.464   7.336   6.271  0.1154  0.0588 -0.1295
  227POPC   C2B 3275   7.536   7.471   6.743 -0.3768  0.0864 -0.0149
  227POPC   C3B 3276   7.222   7.576   7.152  0.0261  0.2477 -0.0622
  227POPC   C4B 3277   7.401   7.492   7.554  0.1162  0.2405  0.2872
  228POPC   NC3 3278   0.243   8.351   3.527 -0.1737  0.0333 -0.1009
  228POPC   PO4 3279   0.764   8.155   3.646 -0.1075 -0.3709 -0.0575
  228POPC   GL1 3280   0.811   8.375   3.982  0.0177 -0.0305 -0.1956
  228POPC   GL2 3281   0.848   8.717   3.943 -0.0811 -0.1155  0.1044
  228POPC   C1A 3282   0.934   8.393   4.445  0.1580  0.0036  0.0021
  228POPC   D2A 3283   0.762   8.402   4.745 -0.2555 -0.5238  0.2418
  228POPC   C3A 3284   0.698   8.301   5.229 -0.1353 -0.2632 -0.1431
  228POPC   C4A 3285   0.712   7.805   5.361 -0.2955  0.3267 -0.0474
  228POPC   C1B 3286   0.564   8.696   4.282  0.2297 -0.0279  0.0039
  228POPC   C2B 3287   0.458   9.078   4.499 -0.0803 -0.0810  0.0253
  228POPC   C3B 3288   0.657   9.405   4.890  0.0066 -0.0824 -0.1470
  228POPC   C4B 3289   1.168   9.619   4.930 -0.1803 -0.1156  0.2138
  229POPC   NC3 3290   4.188   7.039   4.142  0.1446 -0.1317  0.0659
  229POPC   PO4 3291   4.366   7.157   4.585  0.2975 -0.1429 -0.0138
  229POPC   GL1 3292   4.177   7.379   4.902 -0.0741  0.2007  0.0326
  229POPC   GL2 3293   4.450   7.507   4.966  0.0247 -0.3531  0.2504
  229POPC   C1A 3294   3.855   7.357   5.114 -0.2495 -0.2765  0.1409
  229POPC   D2A 3295   3.700   7.715   5.314  0.1600  0.1401 -0.0216
  229POPC   C3A 3296   3.392   8.013   5.081 -0.0284 -0.1951 -0.1646
  229POPC   C4A 3297   3.538   8.193   4.771 -0.0051  0.1317 -0.1612
  229POPC   C1B 3298   4.221   7.577   5.336 -0.1351 -0.3697 -0.1263
  229POPC   C2B 3299   4.087   8.036   5.483 -0.1907 -0.1797 -0.2289
  229POPC   C3B 3300   4.024   8.458   5.562 -0.1713  0.2446  0.1704
  229POPC   C4B 3301   4.034   8.767   5.383  0.2006 -0.0109 -0.1363
  230POPC   NC3 3302   0.258   9.596   3.904  0.0812  0.1933  0.3342
  230POPC   PO4 3303   0.472   9.217   3.695  0.2718 -0.2346 -0.0114
  230POPC   GL1 3304   0.163   9.061   4.000  0.1758  0.1555  0.1935
  230POPC   GL2 3305  -0.047   9.272   4.292 -0.2433 -0.1849 -0.2613
  230POPC   C1A 3306   0.066   8.794   4.424  0.0632  0.0546  0.2429
  230POPC   D2A 3307   0.182   8.620   4.685  0.0069  0.0900 -0.0881
  230POPC   C3A 3308  -0.171   8.456   4.960  0.1179 -0.1747  0.3009
  230POPC   C4A 3309  -0.543   8.425   5.083 -0.0135  0.0383 -0.1482
  230POPC   C1B 3310   0.229   9.584   4.618 -0.0134  0.0236 -0.0567
  230POPC   C2B 3311   0.335   9.957   4.508 -0.0699  0.0919 -0.0033
  230POPC   C3B 3312   0.464  10.339   4.819  0.2291  0.0173  0.4692
  230POPC   C4B 3313   0.714  10.378   5.204 -0.1218 -0.0466  0.1735
  231POPC   NC3 3314   7.916   6.108   5.367 -0.2709 -0.2322 -0.0928
  231POPC   PO4 3315   8.273   6.367   5.208 -0.3810  0.1374 -0.0563
  231POPC   GL1 3316   8.172   6.712   5.473 -0.1399  0.0889  0.0669
  231POPC   GL2 3317   7.844   6.575   5.499 -0.0719  0.3865  0.0423
  231POPC   C1A 3318   8.223   6.979   5.930 -0.2282 -0.2842 -0.1870
  231POPC   D2A 3319   8.100   7.068   6.271  0.0214  0.3178 -0.5447
  231POPC   C3A 3320   8.315   7.046   6.628  0.0473 -0.0429  0.2687
  231POPC   C4A 3321   8.673   6.817   6.799 -0.2089 -0.3552  0.0107
  231POPC   C1B 3322   7.980   6.545   5.999 -0.1541 -0.1129  0.2580
  231POPC   C2B 3323   8.075   6.535   6.459 -0.1676 -0.2510 -0.1478
  231POPC   C3B 3324   7.950   6.702   6.807  0.1741  0.1710 -0.0831
  231POPC   C4B 3325   7.958   6.613   7.207  0.3716  0.0138  0.2156
  232POPC   NC3 3326   6.742   7.376   5.056 -0.3046 -0.1254 -0.2124
  232POPC   PO4 3327   6.376   7.469   5.095 -0.0393 -0.0925  0.2735
  232POPC   GL1 3328   6.405   7.445   5.498 -0.0537  0.5889  0.1777
  232POPC   GL2 3329   6.293   7.728   5.642  0.1874 -0.0273  0.3398
  232POPC   C1A 3330   6.598   7.240   5.973 -0.1944 -0.0932  0.2099
  232POPC   D2A 3331   7.122   7.026   6.071 -0.2883  0.1503  0.2912
  232POPC   C3A 3332   7.323   6.851   6.373 -0.3400 -0.0004  0.1553
  232POPC   C4A 3333   7.661   6.892   6.465 -0.1342  0.0155  0.0956
  232POPC   C1B 3334   6.480   7.763   5.995 -0.1848 -0.0770 -0.0335
  232POPC   C2B 3335   6.511   7.481   6.396  0.1536 -0.1892  0.3712
  232POPC   C3B 3336   6.600   7.263   6.785  0.2987  0.2962  0.0461
  232POPC   C4B 3337   6.899   7.178   7.107  0.0898  0.2039 -0.2235
  233POPC   NC3 3338   6.150   5.602   5.142  0.1952  0.1705 -0.0810
  233POPC   PO4 3339   5.803   5.264   5.318 -0.0494  0.1035 -0.0163
  233POPC   GL1 3340   5.835   5.346   5.748 -0.2192 -0.2508  0.0513
  233POPC   GL2 3341   6.054   4.968   5.864  0.0543  0.0211  0.0777
  233POPC   C1A 3342   6.019   5.355   6.165 -0.2143 -0.0155 -0.4409
  233POPC   D2A 3343   6.010   5.418   6.522 -0.1546 -0.1092  0.0515
  233POPC   C3A 3344   5.717   5.588   6.878 -0.3548 -0.0291  0.2615
  233POPC   C4A 3345   5.242   5.777   6.977  0.1032 -0.1074  0.2202
  233POPC   C1B 3346   5.855   4.794   6.186  0.2185 -0.1387 -0.0162
  233POPC   C2B 3347   5.773   4.963   6.621  0.0719  0.0369 -0.0777
  233POPC   C3B 3348   5.600   5.047   6.985 -0.0003  0.2062  0.0609
  233POPC   C4B 3349   5.341   5.323   7.082 -0.4144 -0.3068  0.0209
  234POPC   NC3 3350   5.047   9.320   5.075  0.0848 -0.2076 -0.0048
  234POPC   PO4 3351   4.983   8.934   5.080 -0.0486  0.0303  0.2107
  234POPC   GL1 3352   4.909   8.905   5.481  0.1790  0.0568 -0.3627
  234POPC   GL2 3353   5.082   9.142   5.640 -0.2775  0.0342  0.1414
  234POPC   C1A 3354   4.615   9.250   5.823 -0.0065 -0.0488 -0.2489
  234POPC   D2A 3355   4.232   9.298   6.026  0.4011  0.2197  0.2758
  234POPC   C3A 3356   4.044   9.526   6.365  0.2369 -0.2071  0.0373
  234POPC   C4A 3357   4.084   9.823   6.579  0.1875 -0.0219  0.1213
  234POPC   C1B 3358   4.963   8.864   5.962  0.0711  0.0748 -0.2927
  234POPC   C2B 3359   5.163   8.573   6.243  0.1248 -0.0964 -0.3748
  234POPC   C3B 3360   5.559   8.573   6.538  0.0851  0.1205 -0.0507
  234POPC   C4B 3361   5.587   8.613   6.938  0.0835 -0.1084  0.3249
  235POPC   NC3 3362   0.192   2.532   4.955  0.2366  0.1180  0.0313
  235POPC   PO4 3363  -0.266   2.464   5.089 -0.0907  0.0838  0.1912
  235POPC   GL1 3364  -0.368   2.171   5.390  0.0098 -0.4006  0.1197
  235POPC   GL2 3365  -0.381   2.431   5.724  0.1718 -0.2280 -0.0735
  235POPC   C1A 3366  -0.493   1.765   5.471 -0.0857 -0.0698 -0.2460
  235POPC   D2A 3367  -0.621   1.346   5.538 -0.2530  0.1957  0.1219
  235POPC   C3A 3368  -0.648   1.185   5.977 -0.0889 -0.1507 -0.2853
  235POPC   C4A 3369  -0.589   0.781   6.085 -0.0948 -0.0526  0.1414
  235POPC   C1B 3370  -0.293   1.942   5.852  0.1439  0.0918 -0.2670
  235POPC   C2B 3371  -0.215   1.550   6.098 -0.2638  0.2509  0.0928
  235POPC   C3B 3372  -0.010   1.561   6.491 -0.0706 -0.0005  0.3137
  235POPC   C4B 3373   0.124   1.281   6.814  0.4117  0.2264  0.2035
  236POPC   NC3 3374   4.004   2.280   4.725 -0.1201  0.1847  0.1895
  236POPC   PO4 3375   4.286   1.949   5.026  0.0953 -0.1539  0.0259
  236POPC   GL1 3376   4.247   1.733   5.363 -0.0091  0.1651  0.2340
  236POPC   GL2 3377   4.357   1.449   5.472 -0.0105 -0.1661 -0.1873
  236POPC   C1A 3378   4.153   1.757   5.846 -0.0826 -0.1339  0.2039
  236POPC   D2A 3379   4.128   1.827   6.311 -0.0347 -0.2121 -0.1155
  236POPC   C3A 3380   3.789   1.544   6.529 -0.0006  0.1842  0.3191
  236POPC   C4A 3381   3.518   1.269   6.566  0.4232 -0.0786 -0.1823
  236POPC   C1B 3382   4.494   1.416   5.951  0.1956 -0.0901 -0.2680
  236POPC   C2B 3383   4.469   1.522   6.388 -0.1124 -0.2331  0.2116
  236POPC   C3B 3384   4.223   1.475   6.762  0.2265  0.2340  0.3724
  236POPC   C4B 3385   3.880   1.519   7.024 -0.4030  0.1256  0.0256
  237POPC   NC3 3386   4.537   7.018   5.075 -0.0103 -0.3558  0.2782
  237POPC   PO4 3387   4.871   6.762   5.153  0.3402  0.0872  0.0760
  237POPC   GL1 3388   4.878   7.026   5.477 -0.1344 -0.0647  0.2980
  237POPC   GL2 3389   5.034   7.034   5.676  0.1491 -0.1529  0.0073
  237POPC   C1A 3390   4.549   7.191   5.774  0.0026 -0.0943  0.0826
  237POPC   D2A 3391   4.027   7.291   5.815 -0.0249 -0.0855  0.2893
  237POPC   C3A 3392   3.746   7.755   5.813 -0.0360  0.0042 -0.1750
  237POPC   C4A 3393   3.425   7.994   6.107  0.1024  0.1251  0.2293
  237POPC   C1B 3394   4.984   7.447   5.926  0.1221 -0.2384  0.2859
  237POPC   C2B 3395   4.781   7.739   6.315 -0.2964  0.1655 -0.0107
  237POPC   C3B 3396   4.815   8.048   6.616  0.2312  0.0010 -0.5517
  237POPC   C4B 3397   4.994   8.451   6.756  0.3529 -0.2020 -0.2454
  238POPC   NC3 3398   1.696   5.424   4.803 -0.0436 -0.0653 -0.0230
  238POPC   PO4 3399   1.777   5.275   5.225 -0.0188  0.0165 -0.2384
  238POPC   GL1 3400   2.002   5.339   5.602 -0.0060  0.1186 -0.0564
  238POPC   GL2 3401   1.937   5.137   5.868  0.0880  0.0053 -0.1156
  238POPC   C1A 3402   1.883   5.663   5.966  0.0366 -0.0008  0.2941
  238POPC   D2A 3403   1.690   5.920   6.280  0.0631 -0.0451 -0.0440
  238POPC   C3A 3404   1.903   6.164   6.522  0.0396  0.2884 -0.2455
  238POPC   C4A 3405   2.211   6.168   6.869 -0.2798 -0.1005 -0.0108
  238POPC   C1B 3406   1.956   5.159   6.329  0.0532 -0.0768  0.0526
  238POPC   C2B 3407   1.983   5.180   6.708 -0.2091 -0.1491  0.0831
  238POPC   C3B 3408   2.003   5.111   7.113  0.1892  0.0286 -0.0664
  238POPC   C4B 3409   1.946   4.945   7.536  0.1182  0.0215  0.0960
  239POPC   NC3 3410   8.171   2.052   4.968 -0.0401 -0.1625 -0.2662
  239POPC   PO4 3411   7.954   2.029   5.347 -0.2294  0.0848 -0.2768
  239POPC   GL1 3412   7.904   2.016   5.722 -0.0920  0.0154 -0.0537
  239POPC   GL2 3413   8.089   1.901   5.967 -0.0546  0.1050  0.0727
  239POPC   C1A 3414   7.731   2.174   6.172  0.4761  0.1535  0.1665
  239POPC   D2A 3415   7.606   2.207   6.532 -0.1459  0.1498  0.0495
  239POPC   C3A 3416   7.767   1.833   6.846  0.1889  0.0662 -0.2203
  239POPC   C4A 3417   7.985   1.837   7.247  0.1259  0.0625  0.1434
  239POPC   C1B 3418   8.085   1.776   6.411 -0.1646  0.2615  0.0013
  239POPC   C2B 3419   8.208   1.629   6.754  0.1475  0.0393 -0.3644
  239POPC   C3B 3420   8.272   1.345   7.086 -0.0381 -0.1918 -0.0402
  239POPC   C4B 3421   8.418   1.108   7.379  0.1871  0.0007  0.2033
  240POPC   NC3 3422   7.296   8.832   4.979  0.4393  0.0837  0.0437
  240POPC   PO4 3423   7.585   8.614   5.267  0.0643 -0.0223  0.2495
  240POPC   GL1 3424   7.468   8.292   5.660  0.0738  0.2957 -0.3607
  240POPC   GL2 3425   7.137   8.202   5.710 -0.1436  0.0215  0.0500
  240POPC   C1A 3426   7.370   8.122   6.116 -0.1610  0.0167  0.0017
  240POPC   D2A 3427   7.196   8.306   6.418  0.0484  0.0800 -0.0254
  240POPC   C3A 3428   7.065   8.142   6.881 -0.1545 -0.0265  0.1830
  240POPC   C4A 3429   7.057   8.062   7.288  0.1784 -0.0719  0.0520
  240POPC   C1B 3430   6.919   7.967   5.945 -0.0733  0.2993  0.1047
  240POPC   C2B 3431   7.021   7.539   6.067 -0.0823  0.2104 -0.0768
  240POPC   C3B 3432   6.968   7.239   6.483  0.2233  0.0451  0.0259
  240POPC   C4B 3433   6.916   6.830   6.683 -0.0386 -0.0594 -0.2400
  241POPC   NC3 3434   2.206   1.256   4.545  0.0113 -0.0770  0.0557
  241POPC   PO4 3435   2.394   1.596   4.647  0.0113 -0.2024 -0.0654
  241POPC   GL1 3436   2.363   1.479   5.046  0.0478 -0.1139 -0.2545
  241POPC   GL2 3437   2.602   1.485   5.247 -0.0767 -0.3624  0.4081
  241POPC   C1A 3438   2.158   1.348   5.406  0.2494  0.2450  0.1145
  241POPC   D2A 3439   1.884   1.439   5.743  0.2620  0.0715  0.0163
  241POPC   C3A 3440   1.875   1.188   6.200 -0.1684  0.0407  0.0521
  241POPC   C4A 3441   1.576   0.931   6.433  0.2997  0.4548  0.3386
  241POPC   C1B 3442   2.646   1.127   5.550  0.1440 -0.2828 -0.1406
  241POPC   C2B 3443   2.684   0.829   5.949 -0.1406 -0.0500  0.1445
  241POPC   C3B 3444   2.593   0.401   6.191 -0.0391 -0.2181 -0.3176
  241POPC   C4B 3445   2.276   0.099   6.327 -0.0087  0.1437  0.0861
  242POPC   NC3 3446   1.500   1.315   3.971  0.2113  0.4754 -0.3170
  242POPC   PO4 3447   1.835   1.387   4.209 -0.0357 -0.2309  0.1019
  242POPC   GL1 3448   1.715   1.523   4.610 -0.0260  0.0691  0.0967
  242POPC   GL2 3449   1.881   1.394   4.943  0.1441 -0.0804 -0.2380
  242POPC   C1A 3450   1.418   1.309   4.818  0.2218 -0.1308 -0.0364
  242POPC   D2A 3451   1.266   0.935   4.964  0.2569 -0.2417 -0.1346
  242POPC   C3A 3452   1.264   0.923   5.434 -0.0444 -0.2617  0.0608
  242POPC   C4A 3453   0.998   1.130   5.695 -0.0060  0.0001 -0.0254
  242POPC   C1B 3454   1.670   1.232   5.303 -0.3694  0.1177  0.1544
  242POPC   C2B 3455   1.667   0.956   5.717  0.0741 -0.1190 -0.0228
  242POPC   C3B 3456   1.358   0.945   6.037 -0.0005  0.1986  0.1265
  242POPC   C4B 3457   1.076   1.139   6.268  0.2928 -0.1162  0.1483
  243POPC   NC3 3458   8.051   7.867   5.058  0.0283  0.0585  0.1777
  243POPC   PO4 3459   7.658   8.062   5.240  0.0180 -0.0958 -0.1604
  243POPC   GL1 3460   7.927   7.788   5.565 -0.1719 -0.1624  0.2146
  243POPC   GL2 3461   8.208   7.907   5.566  0.1919  0.0008  0.1945
  243POPC   C1A 3462   7.708   7.853   5.892  0.0178  0.1596 -0.1954
  243POPC   D2A 3463   7.603   7.791   6.364 -0.0131 -0.0350  0.0117
  243POPC   C3A 3464   7.114   7.804   6.491  0.1701 -0.0140  0.1147
  243POPC   C4A 3465   6.717   7.782   6.807  0.0810 -0.2959 -0.0501
  243POPC   C1B 3466   8.232   7.958   6.095 -0.0365 -0.2941 -0.1731
  243POPC   C2B 3467   8.102   8.161   6.533  0.0101 -0.1272  0.2608
  243POPC   C3B 3468   7.912   8.447   6.818 -0.1095  0.1235  0.2089
  243POPC   C4B 3469   7.693   8.736   7.152  0.1082  0.0464 -0.2024
  244POPC   NC3 3470   8.331   2.320   5.561  0.4049 -0.0252  0.1446
  244POPC   PO4 3471   8.544   2.708   5.631 -0.1619 -0.1331  0.1207
  244POPC   GL1 3472   8.588   2.385   5.944 -0.0894 -0.0244 -0.1583
  244POPC   GL2 3473   8.673   2.463   6.218  0.1297 -0.0459 -0.3663
  244POPC   C1A 3474   8.600   1.972   6.142  0.3890 -0.1858 -0.0552
  244POPC   D2A 3475   8.545   1.982   6.554 -0.0479  0.2096 -0.0742
  244POPC   C3A 3476   8.581   2.376   6.752 -0.1164 -0.1567  0.0554
  244POPC   C4A 3477   8.571   2.757   6.891 -0.1408  0.0961 -0.1218
  244POPC   C1B 3478   9.014   2.198   6.241 -0.2073 -0.0179  0.4234
  244POPC   C2B 3479   9.477   2.029   6.325 -0.0686 -0.1977  0.2785
  244POPC   C3B 3480   9.589   1.857   6.726 -0.1464  0.0438 -0.0334
  244POPC   C4B 3481   9.685   1.868   7.270  0.0598 -0.0154 -0.0037
  245POPC   NC3 3482   0.655   4.658   5.630 -0.0376 -0.0463 -0.0006
  245POPC   PO4 3483   0.281   4.477   5.706 -0.0188 -0.0677 -0.0735
  245POPC   GL1 3484   0.435   4.548   6.137 -0.0875 -0.0623  0.0838
  245POPC   GL2 3485   0.492   4.829   6.141  0.2488 -0.1256 -0.1978
  245POPC   C1A 3486   0.427   4.735   6.629  0.2051 -0.2680  0.0004
  245POPC   D2A 3487   0.607   4.950   7.056 -0.0577  0.1628 -0.2056
  245POPC   C3A 3488   0.607   5.398   7.204  0.0701 -0.0145  0.1691
  245POPC   C4A 3489   0.465   5.760   7.186 -0.1294 -0.2112  0.0451
  245POPC   C1B 3490   0.060   4.976   6.320 -0.1024  0.1673  0.1544
  245POPC   C2B 3491  -0.375   5.147   6.200  0.0195 -0.1758  0.1143
  245POPC   C3B 3492  -0.552   5.561   6.163  0.0963  0.3118 -0.1809
  245POPC   C4B 3493  -0.619   5.903   5.945 -0.0164  0.4128 -0.0793
  246POPC   NC3 3494   0.288   7.535   4.190  0.1739 -0.0052 -0.0014
  246POPC   PO4 3495   0.104   7.737   4.512 -0.4831 -0.0917 -0.1152
  246POPC   GL1 3496   0.129   7.607   4.911  0.1099  0.0192 -0.2426
  246POPC   GL2 3497  -0.075   7.310   4.985 -0.0650  0.0460 -0.1520
  246POPC   C1A 3498   0.221   7.658   5.329 -0.2596  0.2832 -0.0037
  246POPC   D2A 3499   0.050   7.743   5.746  0.0654  0.1985 -0.2084
  246POPC   C3A 3500   0.114   7.745   6.064 -0.1438 -0.3368  0.1342
  246POPC   C4A 3501  -0.223   7.920   6.402  0.1920  0.1180 -0.0156
  246POPC   C1B 3502  -0.016   7.252   5.405  0.1081 -0.2867 -0.0034
  246POPC   C2B 3503  -0.161   7.331   5.874 -0.1479  0.2157 -0.1955
  246POPC   C3B 3504  -0.139   7.449   6.336  0.0325  0.1985  0.0238
  246POPC   C4B 3505  -0.077   7.108   6.622 -0.3071  0.1204 -0.1472
  247POPC   NC3 3506   4.770   0.631   5.048  0.1078  0.1584  0.0144
  247POPC   PO4 3507   5.144   0.754   4.988  0.0664 -0.1161  0.1463
  247POPC   GL1 3508   5.210   0.836   5.455 -0.0659 -0.2715  0.1771
  247POPC   GL2 3509   5.089   0.508   5.558  0.0223  0.1249  0.1716
  247POPC   C1A 3510   5.214   0.822   5.902 -0.0229  0.0480  0.1102
  247POPC   D2A 3511   5.187   0.885   6.388  0.0718 -0.2112  0.0604
  247POPC   C3A 3512   4.835   0.636   6.460  0.4046 -0.1484  0.2906
  247POPC   C4A 3513   4.464   0.468   6.398 -0.2129  0.2355 -0.0763
  247POPC   C1B 3514   4.810   0.485   5.955 -0.0532 -0.2931 -0.0049
  247POPC   C2B 3515   4.814   0.160   6.237 -0.1560  0.0716 -0.0003
  247POPC   C3B 3516   5.055  -0.034   6.581  0.1525 -0.0471  0.1901
  247POPC   C4B 3517   4.910  -0.247   6.984  0.2422 -0.1286 -0.1291
  248POPC   NC3 3518   3.366   6.854   4.468  0.2453 -0.2471 -0.1574
  248POPC   PO4 3519   3.538   6.796   4.910  0.1763 -0.0979  0.2152
  248POPC   GL1 3520   3.516   6.994   5.261 -0.1785 -0.0011 -0.0223
  248POPC   GL2 3521   3.745   6.719   5.371 -0.4248 -0.0266 -0.0090
  248POPC   C1A 3522   3.577   7.236   5.595 -0.2532  0.1024 -0.0237
  248POPC   D2A 3523   3.449   7.381   6.043 -0.4871 -0.0580  0.0344
  248POPC   C3A 3524   3.115   7.592   6.106 -0.0911 -0.0012 -0.0182
  248POPC   C4A 3525   2.759   7.847   5.988  0.1505  0.0481 -0.2775
  248POPC   C1B 3526   3.402   6.709   5.694 -0.0982 -0.0197 -0.0888
  248POPC   C2B 3527   3.205   6.926   6.007  0.1372 -0.1105 -0.1995
  248POPC   C3B 3528   3.100   7.145   6.315 -0.0516  0.4045  0.1454
  248POPC   C4B 3529   3.152   7.254   6.796  0.0290  0.3380  0.4124
  249POPC   NC3 3530   8.245   3.370   5.179 -0.0507  0.1883 -0.0023
  249POPC   PO4 3531   8.092   3.705   5.220 -0.0744 -0.1014 -0.5949
  249POPC   GL1 3532   8.387   3.648   5.553 -0.1785 -0.3149  0.0536
  249POPC   GL2 3533   8.180   3.884   5.781 -0.3820  0.3236  0.2033
  249POPC   C1A 3534   8.506   3.545   5.992  0.0850  0.1832 -0.2139
  249POPC   D2A 3535   8.534   3.458   6.382  0.1629 -0.1754 -0.1750
  249POPC   C3A 3536   8.130   3.566   6.558  0.1359  0.2878 -0.3560
  249POPC   C4A 3537   8.082   3.661   6.948 -0.1126  0.0785 -0.0814
  249POPC   C1B 3538   8.318   3.986   6.223 -0.4209 -0.2311 -0.5231
  249POPC   C2B 3539   8.315   4.121   6.665 -0.1010  0.0026  0.0765
  249POPC   C3B 3540   8.486   3.993   7.060  0.1305  0.1160 -0.1358
  249POPC   C4B 3541   8.656   3.836   7.408  0.2736  0.0176  0.0078
  250POPC   NC3 3542   6.309   9.083   5.284  0.2026  0.0072  0.2670
  250POPC   PO4 3543   6.210   8.572   5.317  0.3308  0.0729  0.0021
  250POPC   GL1 3544   6.196   8.722   5.790 -0.0235 -0.3158  0.3044
  250POPC   GL2 3545   6.062   9.017   5.875  0.0461 -0.6568  0.0203
  250POPC   C1A 3546   6.013   8.692   6.251 -0.2336 -0.1993 -0.1409
  250POPC   D2A 3547   6.042   8.434   6.714  0.1006  0.0389  0.0207
  250POPC   C3A 3548   6.115   8.511   7.171 -0.0498  0.0496 -0.1055
  250POPC   C4A 3549   5.898   8.443   7.536 -0.1734 -0.2411 -0.2543
  250POPC   C1B 3550   5.911   9.147   6.231  0.2941 -0.0994 -0.3714
  250POPC   C2B 3551   5.693   9.005   6.605 -0.0086 -0.0589  0.2677
  250POPC   C3B 3552   5.264   9.038   6.670  0.0946 -0.1355  0.0493
  250POPC   C4B 3553   4.813   8.950   6.537  0.1622 -0.2410  0.0540
  251POPC   NC3 3554   5.067   4.881   5.671 -0.0275  0.1197  0.4210
  251POPC   PO4 3555   5.354   5.205   5.522  0.0283 -0.1067 -0.0612
  251POPC   GL1 3556   5.187   5.519   5.819  0.1507  0.0209 -0.0012
  251POPC   GL2 3557   4.868   5.637   5.826  0.1537 -0.1641 -0.1676
  251POPC   C1A 3558   5.055   5.722   6.267 -0.1855  0.0537 -0.1393
  251POPC   D2A 3559   4.794   5.715   6.731  0.0897  0.2077  0.0846
  251POPC   C3A 3560   4.861   5.350   7.021 -0.6099  0.0646 -0.3021
  251POPC   C4A 3561   5.059   5.076   7.427 -0.1236  0.1542 -0.1364
  251POPC   C1B 3562   4.519   5.774   6.270  0.4635  0.3970 -0.3950
  251POPC   C2B 3563   4.344   6.077   6.640 -0.3106  0.2253  0.1135
  251POPC   C3B 3564   4.378   6.032   7.039  0.2210  0.0599  0.0619
  251POPC   C4B 3565   4.411   5.683   7.286  0.1277 -0.1692 -0.1042
  252POPC   NC3 3566   2.716   1.869   4.895 -0.0509  0.1151  0.0823
  252POPC   PO4 3567   2.843   2.180   5.151  0.1489 -0.4743  0.4561
  252POPC   GL1 3568   2.757   2.115   5.513 -0.0430  0.2827 -0.0816
  252POPC   GL2 3569   2.509   2.305   5.606 -0.0577 -0.0370  0.3685
  252POPC   C1A 3570   2.891   1.897   5.877  0.1325 -0.3904  0.1161
  252POPC   D2A 3571   2.926   1.495   6.025 -0.2780 -0.1644  0.0600
  252POPC   C3A 3572   3.095   1.039   6.170  0.0114  0.0264 -0.0418
  252POPC   C4A 3573   3.128   0.788   6.474  0.2049  0.2833 -0.2558
  252POPC   C1B 3574   2.161   2.584   5.687  0.0614 -0.0394 -0.0178
  252POPC   C2B 3575   2.044   2.740   6.058 -0.4104 -0.1777 -0.1881
  252POPC   C3B 3576   1.615   2.776   6.166 -0.4410  0.1411  0.2958
  252POPC   C4B 3577   1.329   2.594   6.319  0.3037  0.2173 -0.0964
  253POPC   NC3 3578   6.456   6.485   5.411  0.1034 -0.1215  0.3488
  253POPC   PO4 3579   6.347   6.102   5.144 -0.1197 -0.0284 -0.3319
  253POPC   GL1 3580   6.145   6.083   5.537  0.3610  0.0112  0.1032
  253POPC   GL2 3581   6.358   6.034   5.752  0.2782  0.0711  0.3082
  253POPC   C1A 3582   5.820   5.976   5.852  0.2484  0.4648  0.1617
  253POPC   D2A 3583   5.775   6.031   6.367  0.0605  0.0593 -0.0160
  253POPC   C3A 3584   5.535   5.672   6.435  0.2482  0.0096 -0.0574
  253POPC   C4A 3585   5.378   5.349   6.610 -0.0585  0.1233  0.2961
  253POPC   C1B 3586   6.565   6.149   6.152  0.0541  0.1906  0.0168
  253POPC   C2B 3587   6.751   6.096   6.454 -0.0736  0.0342 -0.0848
  253POPC   C3B 3588   7.010   5.801   6.764  0.1695  0.0501 -0.1792
  253POPC   C4B 3589   7.024   5.705   7.200 -0.0667  0.1148 -0.0291
  254POPC   NC3 3590   5.205   0.043   5.274 -0.0342 -0.1505 -0.0568
  254POPC   PO4 3591   4.787   0.122   5.123  0.0400  0.2722 -0.0903
  254POPC   GL1 3592   4.690  -0.152   5.535  0.3801  0.1929  0.1373
  254POPC   GL2 3593   4.926   0.017   5.652 -0.3876 -0.0873  0.0060
  254POPC   C1A 3594   4.618  -0.304   6.156 -0.0891 -0.1856 -0.1647
  254POPC   D2A 3595   4.580  -0.189   6.552 -0.0956  0.1333 -0.0434
  254POPC   C3A 3596   4.619   0.154   6.783 -0.1677  0.2062  0.1305
  254POPC   C4A 3597   4.598   0.567   6.900 -0.1972 -0.0495  0.1071
  254POPC   C1B 3598   5.137  -0.191   6.057  0.2099 -0.1481  0.1109
  254POPC   C2B 3599   5.437  -0.159   6.355  0.1116  0.0594 -0.0293
  254POPC   C3B 3600   5.635  -0.163   6.770  0.0877 -0.1144 -0.0682
  254POPC   C4B 3601   5.377  -0.103   7.107 -0.0384  0.0187  0.1841
  255POPC   NC3 3602   9.242   9.245   4.500 -0.4585 -0.2799 -0.2005
  255POPC   PO4 3603   9.477   9.051   4.287 -0.0276  0.0926  0.0020
  255POPC   GL1 3604   9.719   9.025   4.637  0.1058 -0.2782  0.0362
  255POPC   GL2 3605   9.712   8.813   4.777  0.2254 -0.2696  0.0173
  255POPC   C1A 3606  10.094   9.140   4.729  0.0798  0.3820 -0.0155
  255POPC   D2A 3607  10.383   9.097   5.071  0.0963 -0.1296  0.4298
  255POPC   C3A 3608  10.531   9.497   5.299 -0.3355  0.1737  0.1691
  255POPC   C4A 3609  10.383   9.839   5.506  0.0677 -0.0497 -0.2707
  255POPC   C1B 3610   9.707   8.990   5.203 -0.2209  0.1869  0.0951
  255POPC   C2B 3611   9.935   9.176   5.367 -0.4220  0.1770 -0.0707
  255POPC   C3B 3612  10.108   9.432   5.662  0.0890 -0.1712 -0.3402
  255POPC   C4B 3613  10.549   9.408   5.802  0.1699  0.0838  0.0502
  256POPC   NC3 3614   7.756  10.082   5.132 -0.0469 -0.0017  0.1649
  256POPC   PO4 3615   7.352   9.898   5.226 -0.0366 -0.0610  0.0951
  256POPC   GL1 3616   7.602   9.811   5.654  0.0153 -0.1135  0.0595
  256POPC   GL2 3617   7.566  10.142   5.721 -0.0396 -0.0021 -0.0909
  256POPC   C1A 3618   7.696   9.588   6.034  0.2067  0.1548  0.2513
  256POPC   D2A 3619   7.651   9.393   6.385  0.1442 -0.1494 -0.1885
  256POPC   C3A 3620   7.650   9.483   6.774 -0.1329  0.2518  0.0751
  256POPC   C4A 3621   7.594   9.356   7.137 -0.1698  0.2442  0.2609
  256POPC   C1B 3622   7.601  10.157   6.050 -0.0400 -0.2106 -0.2379
  256POPC   C2B 3623   7.855   9.925   6.386 -0.3362 -0.2002 -0.0338
  256POPC   C3B 3624   7.631   9.986   6.825  0.3483  0.2965 -0.4708
  256POPC   C4B 3625   7.533  10.235   7.308  0.2496  0.1372 -0.1720
  257POPC   NC3 3626   3.843   7.902   3.547 -0.0613  0.0416  0.0780
  257POPC   PO4 3627   3.391   7.957   3.664  0.1694  0.3351 -0.0812
  257POPC   GL1 3628   3.264   8.244   3.935  0.1348  0.0725  0.0766
  257POPC   GL2 3629   3.285   7.987   4.276 -0.0771  0.1415 -0.0512
  257POPC   C1A 3630   3.258   8.481   4.255 -0.4129 -0.0264  0.2006
  257POPC   D2A 3631   3.269   8.606   4.706 -0.3329  0.2683 -0.0904
  257POPC   C3A 3632   3.064   8.467   5.130  0.1323 -0.0817 -0.2255
  257POPC   C4A 3633   2.964   8.078   5.302 -0.4318  0.2583  0.0475
  257POPC   C1B 3634   3.179   7.766   4.709 -0.0650 -0.1652  0.3843
  257POPC   C2B 3635   2.906   7.692   5.003  0.4342  0.0207  0.1140
  257POPC   C3B 3636   2.800   7.643   5.479 -0.1701  0.2709 -0.0865
  257POPC   C4B 3637   2.343   7.668   5.682  0.0439  0.1235  0.1684
  258POPC   NC3 3638   8.818   0.026   3.991  0.1338 -0.0923 -0.2526
  258POPC   PO4 3639   8.520   0.123   4.409  0.1501 -0.1262 -0.3547
  258POPC   GL1 3640   8.716   0.172   4.836  0.2017  0.0393  0.0177
  258POPC   GL2 3641   8.704   0.515   4.988  0.2594  0.2222 -0.0999
  258POPC   C1A 3642   8.507  -0.014   5.170 -0.0832 -0.0242 -0.0089
  258POPC   D2A 3643   8.566  -0.150   5.609  0.3357  0.0376 -0.1846
  258POPC   C3A 3644   9.032   0.017   5.757 -0.1346 -0.3045 -0.4923
  258POPC   C4A 3645   9.324   0.075   6.094  0.1417 -0.2098 -0.0995
  258POPC   C1B 3646   8.927   0.415   5.421 -0.4036  0.3546  0.2157
  258POPC   C2B 3647   9.095   0.511   5.782  0.0911  0.3037 -0.0687
  258POPC   C3B 3648   9.043   0.936   6.018  0.1237  0.2385  0.0697
  258POPC   C4B 3649   9.221   1.117   6.381  0.2702 -0.0993 -0.2451
  259POPC   NC3 3650   1.686   8.527   2.815  0.0979 -0.1484 -0.3386
  259POPC   PO4 3651   1.800   8.698   3.264  0.3794 -0.0289  0.2500
  259POPC   GL1 3652   1.625   8.574   3.641  0.2320 -0.2592  0.0841
  259POPC   GL2 3653   1.440   8.816   3.732 -0.3427 -0.1601  0.0777
  259POPC   C1A 3654   1.929   8.687   4.007  0.0278 -0.2444 -0.2811
  259POPC   D2A 3655   2.325   8.733   4.091 -0.2103  0.2345  0.0955
  259POPC   C3A 3656   2.406   9.003   4.366 -0.4789 -0.2480  0.3775
  259POPC   C4A 3657   2.452   9.389   4.099 -0.2318  0.0918 -0.0741
  259POPC   C1B 3658   1.510   9.012   4.129  0.2858  0.0255  0.0692
  259POPC   C2B 3659   1.139   8.885   4.373  0.4566  0.1525 -0.1112
  259POPC   C3B 3660   0.883   8.981   4.730 -0.1535  0.2798 -0.0081
  259POPC   C4B 3661   0.732   8.850   5.077 -0.1339  0.2220  0.2326
  260POPC   NC3 3662   3.239   5.002   5.371 -0.4458 -0.0028 -0.3488
  260POPC   PO4 3663   2.927   5.257   5.494 -0.0103  0.4527 -0.1414
  260POPC   GL1 3664   3.044   5.755   5.621 -0.2907  0.3233  0.0479
  260POPC   GL2 3665   3.254   5.627   5.745 -0.1774  0.1563  0.2617
  260POPC   C1A 3666   2.939   6.068   5.924  0.1748 -0.3197  0.2085
  260POPC   D2A 3667   3.045   6.186   6.276 -0.0662 -0.0474 -0.1373
  260POPC   C3A 3668   3.365   6.450   6.160 -0.4328 -0.1858  0.1350
  260POPC   C4A 3669   3.421   6.760   6.449  0.0817 -0.0745  0.1723
  260POPC   C1B 3670   3.110   5.616   6.125 -0.0098  0.0879  0.0758
  260POPC   C2B 3671   2.819   5.634   6.599 -0.0883 -0.2762  0.3375
  260POPC   C3B 3672   2.502   5.632   6.881  0.2000  0.2575  0.2108
  260POPC   C4B 3673   2.132   5.600   7.166 -0.2108 -0.0179 -0.1301
  261POPC   NC3 3674   8.327   9.013   4.921  0.1397 -0.2086  0.2853
  261POPC   PO4 3675   8.023   8.841   5.092 -0.0520  0.1642  0.0486
  261POPC   GL1 3676   8.245   8.481   5.391  0.0210 -0.0458 -0.1746
  261POPC   GL2 3677   7.942   8.405   5.514  0.1840  0.2370  0.1159
  261POPC   C1A 3678   8.341   8.370   5.800 -0.1067 -0.2073 -0.4066
  261POPC   D2A 3679   8.604   8.361   6.172  0.2000 -0.2431  0.1825
  261POPC   C3A 3680   8.729   8.821   6.281  0.0196  0.1455 -0.1849
  261POPC   C4A 3681   8.871   9.111   5.909  0.0151 -0.1294 -0.0927
  261POPC   C1B 3682   7.879   8.285   5.947 -0.0655 -0.1750  0.2893
  261POPC   C2B 3683   7.691   8.415   6.390  0.0858 -0.0617  0.3418
  261POPC   C3B 3684   7.435   8.552   6.746 -0.1770  0.0500 -0.1474
  261POPC   C4B 3685   7.151   8.554   7.191 -0.1936 -0.1166  0.2871
  262POPC   NC3 3686   0.236   6.550   4.453 -0.0604 -0.0257  0.1505
  262POPC   PO4 3687  -0.196   6.564   4.544  0.1038 -0.0469  0.1945
  262POPC   GL1 3688   0.033   6.767   4.945  0.0596  0.1527  0.2750
  262POPC   GL2 3689  -0.160   6.847   5.157 -0.0771  0.1425 -0.0556
  262POPC   C1A 3690   0.263   6.713   5.346  0.1659 -0.2499  0.1563
  262POPC   D2A 3691   0.152   6.761   5.861 -0.4872  0.0009  0.1823
  262POPC   C3A 3692   0.249   7.134   6.218  0.0631 -0.1937  0.1103
  262POPC   C4A 3693   0.409   7.094   6.633 -0.1122 -0.0143 -0.0691
  262POPC   C1B 3694  -0.494   7.164   5.384  0.3879 -0.0207 -0.0507
  262POPC   C2B 3695  -0.846   7.194   5.691  0.2768  0.0150 -0.0088
  262POPC   C3B 3696  -0.989   7.282   6.115 -0.1409  0.0816  0.1046
  262POPC   C4B 3697  -1.110   7.681   6.388  0.1619  0.3117  0.0066
  263POPC   NC3 3698   5.539   2.580   5.130  0.0717  0.1773  0.2613
  263POPC   PO4 3699   5.513   2.933   5.390 -0.1392 -0.2388  0.0784
  263POPC   GL1 3700   5.451   2.972   5.775  0.0244  0.2269 -0.0630
  263POPC   GL2 3701   5.212   3.076   5.999 -0.2077  0.1847 -0.1222
  263POPC   C1A 3702   5.715   3.216   6.102 -0.0153  0.1445 -0.1555
  263POPC   D2A 3703   5.636   3.234   6.491 -0.2392 -0.2226 -0.3573
  263POPC   C3A 3704   5.391   2.982   6.787  0.0639 -0.1574  0.2103
  263POPC   C4A 3705   5.035   2.673   6.682  0.2186  0.0920  0.0615
  263POPC   C1B 3706   5.282   3.443   6.193 -0.1092 -0.0145  0.0211
  263POPC   C2B 3707   5.573   3.712   6.477 -0.1410 -0.4155 -0.0293
  263POPC   C3B 3708   5.818   3.997   6.689 -0.1806 -0.1687  0.1085
  263POPC   C4B 3709   5.736   3.902   7.081 -0.0015  0.0817 -0.0808
  264POPC   NC3 3710   2.176   0.677   3.743  0.3898  0.0529 -0.1628
  264POPC   PO4 3711   2.605   0.686   3.771  0.3507 -0.1067  0.3248
  264POPC   GL1 3712   2.492   0.504   4.101 -0.2997 -0.3302  0.1858
  264POPC   GL2 3713   2.615   0.202   4.025  0.0302 -0.0310 -0.3116
  264POPC   C1A 3714   2.190   0.279   4.347  0.0649 -0.0522  0.0628
  264POPC   D2A 3715   1.903  -0.016   4.616 -0.2465 -0.3313  0.0069
  264POPC   C3A 3716   1.497  -0.051   4.488 -0.0065 -0.0933  0.0671
  264POPC   C4A 3717   1.244   0.099   4.244  0.0664 -0.2393 -0.1544
  264POPC   C1B 3718   2.672   0.107   4.480  0.1137 -0.0880 -0.0255
  264POPC   C2B 3719   2.348  -0.009   4.776 -0.0849 -0.0117 -0.1507
  264POPC   C3B 3720   2.058  -0.082   5.048 -0.1541  0.1079  0.0621
  264POPC   C4B 3721   1.818  -0.279   5.392 -0.0147  0.0845  0.1275
  265POPC   NC3 3722   3.308   4.147   5.769 -0.0703  0.0358  0.3049
  265POPC   PO4 3723   3.265   4.631   5.752 -0.1472  0.1388 -0.0794
  265POPC   GL1 3724   3.091   4.440   6.224 -0.0191 -0.0987  0.0162
  265POPC   GL2 3725   2.735   4.315   6.159  0.0337 -0.2925  0.2602
  265POPC   C1A 3726   3.056   4.335   6.674  0.1403 -0.0393 -0.4438
  265POPC   D2A 3727   3.222   4.488   7.061 -0.0142 -0.2966  0.1006
  265POPC   C3A 3728   3.570   4.325   7.142  0.4321 -0.1533 -0.0464
  265POPC   C4A 3729   3.530   4.102   6.769 -0.0006  0.1123  0.1325
  265POPC   C1B 3730   2.534   4.243   6.577  0.3417 -0.0275  0.1067
  265POPC   C2B 3731   2.305   4.265   7.025 -0.2158  0.2986  0.0775
  265POPC   C3B 3732   2.479   4.235   7.480  0.0071  0.2464  0.2048
  265POPC   C4B 3733   2.623   4.030   7.776  0.1787  0.0674 -0.0278
  266POPC   NC3 3734   2.620   1.101   4.357 -0.3883 -0.0158 -0.0188
  266POPC   PO4 3735   2.161   0.904   4.194 -0.1013  0.3869 -0.3115
  266POPC   GL1 3736   2.242   0.767   4.617  0.0830  0.0522  0.1446
  266POPC   GL2 3737   2.495   0.588   4.635  0.0247 -0.1400  0.0003
  266POPC   C1A 3738   2.095   0.405   4.918  0.0577 -0.1001 -0.1448
  266POPC   D2A 3739   2.098   0.418   5.345 -0.1222  0.1136 -0.3095
  266POPC   C3A 3740   2.258  -0.026   5.521 -0.0320 -0.2029  0.0301
  266POPC   C4A 3741   2.190  -0.281   5.873 -0.0995  0.2250 -0.0206
  266POPC   C1B 3742   2.632   0.391   4.979 -0.1321  0.2759 -0.1964
  266POPC   C2B 3743   2.638   0.168   5.233 -0.0533 -0.0158  0.2051
  266POPC   C3B 3744   2.781  -0.196   5.399  0.3028 -0.2284  0.0979
  266POPC   C4B 3745   2.909  -0.620   5.356 -0.3455  0.2457  0.2225
  267POPC   NC3 3746   6.990   1.073   4.615 -0.1523  0.0035  0.1789
  267POPC   PO4 3747   7.085   0.912   5.092  0.1997  0.4700 -0.3355
  267POPC   GL1 3748   7.262   0.609   5.425  0.0123  0.2836 -0.4242
  267POPC   GL2 3749   7.295   0.738   5.580  0.4416 -0.2274 -0.1510
  267POPC   C1A 3750   7.216   0.376   5.864  0.0424  0.0274  0.1543
  267POPC   D2A 3751   7.100   0.099   5.926  0.1686 -0.1700 -0.1873
  267POPC   C3A 3752   6.658   0.252   6.057  0.0736 -0.1328 -0.0361
  267POPC   C4A 3753   6.328   0.449   6.337  0.2677 -0.0832 -0.1189
  267POPC   C1B 3754   7.082   0.870   5.902 -0.1210  0.2063  0.0795
  267POPC   C2B 3755   7.143   0.845   6.285 -0.2797  0.0269  0.1655
  267POPC   C3B 3756   7.373   0.663   6.652  0.3471  0.0211  0.2042
  267POPC   C4B 3757   7.594   0.355   6.801  0.2172  0.3887  0.1918
  268POPC   NC3 3758   8.084   7.074   5.158  0.0742  0.1715 -0.0783
  268POPC   PO4 3759   8.288   7.500   5.208  0.2726  0.1249 -0.2177
  268POPC   GL1 3760   8.135   7.328   5.617 -0.0558 -0.2121  0.0306
  268POPC   GL2 3761   8.390   7.393   5.731 -0.0020  0.2565 -0.2061
  268POPC   C1A 3762   7.956   7.508   6.076 -0.0206  0.1826 -0.0387
  268POPC   D2A 3763   8.048   7.539   6.519  0.0476 -0.0903 -0.0416
  268POPC   C3A 3764   7.919   7.196   6.851  0.1622 -0.3653  0.0832
  268POPC   C4A 3765   8.061   7.097   7.152 -0.1553 -0.0221  0.2108
  268POPC   C1B 3766   8.602   7.529   6.152  0.2054  0.0863  0.1567
  268POPC   C2B 3767   8.581   7.463   6.593  0.2172  0.0401  0.1635
  268POPC   C3B 3768   8.615   7.300   6.976  0.1281  0.1054  0.0341
  268POPC   C4B 3769   8.882   7.257   7.448 -0.1190  0.0955 -0.1429
  269POPC   NC3 3770   1.368   2.721   5.314 -0.1118  0.2299  0.0283
  269POPC   PO4 3771   0.966   2.990   5.443 -0.0278 -0.3917  0.1500
  269POPC   GL1 3772   0.757   3.082   5.795  0.3050 -0.0520 -0.0296
  269POPC   GL2 3773   0.941   3.223   6.030 -0.0009  0.2693  0.4157
  269POPC   C1A 3774   0.528   3.044   6.221 -0.1839  0.1645 -0.0362
  269POPC   D2A 3775   0.460   2.727   6.559  0.0014 -0.0604  0.0335
  269POPC   C3A 3776   0.622   2.777   6.955 -0.2356  0.1482 -0.1189
  269POPC   C4A 3777   0.797   2.370   7.244 -0.0109  0.0782 -0.2371
  269POPC   C1B 3778   0.969   3.059   6.375  0.0449 -0.3303  0.1012
  269POPC   C2B 3779   1.165   2.872   6.715 -0.3049  0.1894  0.1661
  269POPC   C3B 3780   1.213   2.666   7.100 -0.1285 -0.1371 -0.3670
  269POPC   C4B 3781   1.603   2.519   7.286 -0.1564  0.3097 -0.1609
  270POPC   NC3 3782   1.588   7.915   3.417 -0.2827 -0.2444 -0.0832
  270POPC   PO4 3783   1.272   8.032   3.651 -0.3152 -0.3927 -0.1615
  270POPC   GL1 3784   1.317   8.396   4.023  0.1248  0.0839 -0.1294
  270POPC   GL2 3785   1.441   8.183   4.198 -0.2352  0.1236  0.2986
  270POPC   C1A 3786   1.547   8.602   4.441  0.1604 -0.2827  0.1100
  270POPC   D2A 3787   1.668   8.425   4.810  0.1577  0.1208  0.3010
  270POPC   C3A 3788   1.695   8.699   5.179 -0.2444 -0.0550  0.2176
  270POPC   C4A 3789   2.044   8.840   5.401 -0.0505 -0.0267  0.0181
  270POPC   C1B 3790   1.320   8.038   4.577 -0.1801  0.3532 -0.0694
  270POPC   C2B 3791   1.076   7.840   4.903  0.1864 -0.0274 -0.2512
  270POPC   C3B 3792   1.216   7.673   5.329 -0.0172 -0.2031 -0.2578
  270POPC   C4B 3793   1.270   7.576   5.714 -0.0673  0.2209 -0.0651
  271POPC   NC3 3794   5.210   8.489   5.044  0.3659  0.1676 -0.1046
  271POPC   PO4 3795   5.517   8.184   5.041  0.1480  0.0072 -0.1099
  271POPC   GL1 3796   5.700   8.324   5.408 -0.0335  0.1395 -0.0474
  271POPC   GL2 3797   6.026   8.177   5.509 -0.0235 -0.0789  0.2526
  271POPC   C1A 3798   5.787   8.437   5.862 -0.4042 -0.1101  0.1799
  271POPC   D2A 3799   5.838   8.242   6.274 -0.2515 -0.2599 -0.1609
  271POPC   C3A 3800   6.272   7.958   6.401 -0.1742  0.3059  0.0307
  271POPC   C4A 3801   6.710   8.082   6.387 -0.3378 -0.1896 -0.1322
  271POPC   C1B 3802   6.289   8.231   5.976  0.1972 -0.1558  0.0564
  271POPC   C2B 3803   6.479   8.509   6.336  0.0830 -0.3044  0.0535
  271POPC   C3B 3804   6.410   8.762   6.700  0.2224  0.4278 -0.0256
  271POPC   C4B 3805   6.731   9.122   6.703 -0.1761 -0.1265 -0.0690
  272POPC   NC3 3806   0.422   2.914   5.229 -0.1288  0.0332 -0.1933
  272POPC   PO4 3807   0.263   3.241   5.009 -0.0727 -0.0834 -0.3815
  272POPC   GL1 3808   0.152   3.262   5.415  0.2061  0.2786 -0.0042
  272POPC   GL2 3809   0.230   2.951   5.695 -0.1027  0.3032  0.3737
  272POPC   C1A 3810  -0.265   3.153   5.755 -0.1090  0.4139 -0.0778
  272POPC   D2A 3811  -0.453   2.828   6.011  0.0081 -0.2212 -0.1038
  272POPC   C3A 3812  -0.179   2.508   6.234 -0.1591 -0.1117 -0.0638
  272POPC   C4A 3813  -0.182   2.104   6.423  0.3591 -0.2454 -0.1155
  272POPC   C1B 3814   0.278   2.663   6.081  0.0131  0.0603 -0.0376
  272POPC   C2B 3815   0.243   2.292   6.408 -0.1103 -0.0538 -0.0724
  272POPC   C3B 3816   0.174   1.950   6.777 -0.1298 -0.0860  0.2981
  272POPC   C4B 3817  -0.026   1.726   6.953 -0.2524  0.1764 -0.0394
  273POPC   NC3 3818   5.024   5.588   5.324 -0.3078  0.2408  0.0182
  273POPC   PO4 3819   4.597   5.376   5.476 -0.1795 -0.0360 -0.0212
  273POPC   GL1 3820   4.356   5.458   5.872  0.1548  0.0816 -0.0763
  273POPC   GL2 3821   4.166   5.727   5.920  0.1950  0.1394 -0.1506
  273POPC   C1A 3822   4.264   5.374   6.288  0.2500  0.2204 -0.2990
  273POPC   D2A 3823   4.212   5.558   6.697  0.1019  0.0726 -0.0497
  273POPC   C3A 3824   4.103   5.319   7.103  0.4022  0.2300  0.2082
  273POPC   C4A 3825   4.207   4.827   7.106  0.0516  0.0671  0.2324
  273POPC   C1B 3826   3.985   5.894   6.312 -0.1051 -0.1177  0.1513
  273POPC   C2B 3827   3.832   6.067   6.621 -0.3413 -0.0382 -0.2523
  273POPC   C3B 3828   3.596   6.181   7.035  0.2235 -0.1580  0.0461
  273POPC   C4B 3829   3.394   6.516   7.305 -0.0106 -0.0268 -0.2009
  274POPC   NC3 3830   7.563   1.861   4.394 -0.1056  0.0037  0.1705
  274POPC   PO4 3831   7.854   1.713   4.702 -0.0163 -0.2040  0.1616
  274POPC   GL1 3832   7.869   1.444   5.220 -0.2109  0.0934 -0.1051
  274POPC   GL2 3833   7.810   1.581   5.532 -0.2969 -0.1478  0.0301
  274POPC   C1A 3834   8.268   1.323   5.485 -0.1055 -0.1210 -0.0602
  274POPC   D2A 3835   8.635   1.425   5.824 -0.1385 -0.1098 -0.2751
  274POPC   C3A 3836   9.024   1.292   5.594  0.1548  0.1152 -0.2300
  274POPC   C4A 3837   9.118   0.912   5.429  0.0476  0.1045  0.1153
  274POPC   C1B 3838   7.852   1.364   5.856  0.1582 -0.2233 -0.0698
  274POPC   C2B 3839   8.114   1.298   6.165 -0.2580  0.2610 -0.0080
  274POPC   C3B 3840   8.067   0.966   6.290 -0.1891  0.1078 -0.1791
  274POPC   C4B 3841   8.002   0.644   6.707 -0.0564 -0.0133 -0.3922
  275POPC   NC3 3842   5.613   4.596   4.834 -0.1445 -0.0186 -0.1802
  275POPC   PO4 3843   5.932   4.344   5.141 -0.0670  0.3802 -0.2287
  275POPC   GL1 3844   5.995   4.198   5.555 -0.2532 -0.0845  0.3124
  275POPC   GL2 3845   5.935   3.817   5.592 -0.0414  0.1702  0.0829
  275POPC   C1A 3846   6.002   4.130   6.066 -0.3315  0.0199 -0.0927
  275POPC   D2A 3847   6.084   4.405   6.478 -0.0452 -0.0156 -0.2129
  275POPC   C3A 3848   6.002   4.524   6.871  0.0294  0.1020  0.0944
  275POPC   C4A 3849   5.704   4.484   7.154  0.0564 -0.0755  0.2935
  275POPC   C1B 3850   6.012   3.616   6.033  0.3087 -0.2688  0.1873
  275POPC   C2B 3851   6.104   3.580   6.414 -0.1122  0.3895  0.3028
  275POPC   C3B 3852   5.929   3.525   6.842 -0.0900  0.0549  0.1115
  275POPC   C4B 3853   5.906   3.356   7.210  0.3825 -0.0806  0.1538
  276POPC   NC3 3854   1.207   4.301   5.622  0.0626 -0.4132 -0.0572
  276POPC   PO4 3855   1.100   4.826   5.696 -0.2249  0.1826 -0.0809
  276POPC   GL1 3856   1.280   4.972   6.099 -0.0347 -0.0348 -0.1496
  276POPC   GL2 3857   1.348   4.627   6.173  0.3021 -0.0189  0.0916
  276POPC   C1A 3858   1.388   5.116   6.514  0.1295 -0.1545 -0.3892
  276POPC   D2A 3859   1.525   5.540   6.590  0.0005 -0.1336 -0.0779
  276POPC   C3A 3860   1.953   5.626   6.667  0.2501 -0.1249  0.0593
  276POPC   C4A 3861   2.212   5.732   6.386  0.1359  0.2236  0.0963
  276POPC   C1B 3862   1.254   4.291   6.470  0.1372 -0.0674  0.2889
  276POPC   C2B 3863   1.031   4.062   6.682  0.1465  0.0444  0.3760
  276POPC   C3B 3864   0.741   3.824   6.815 -0.1064  0.2245  0.0510
  276POPC   C4B 3865   0.383   3.584   6.923  0.1900  0.1021 -0.0964
  277POPC   NC3 3866   2.101   1.894   4.937  0.1663  0.0700 -0.3013
  277POPC   PO4 3867   2.202   2.178   5.167  0.0239  0.0321  0.2488
  277POPC   GL1 3868   2.252   1.855   5.464 -0.2426  0.2041 -0.3067
  277POPC   GL2 3869   1.983   2.132   5.682  0.1571 -0.0294 -0.1924
  277POPC   C1A 3870   2.413   1.580   5.736 -0.2051  0.1120  0.0099
  277POPC   D2A 3871   2.425   1.272   5.986  0.2080  0.0733 -0.2553
  277POPC   C3A 3872   2.314   0.970   6.322 -0.2468  0.3796  0.1859
  277POPC   C4A 3873   2.012   0.910   6.641 -0.0459  0.3731  0.2212
  277POPC   C1B 3874   2.268   1.963   6.013  0.0003 -0.3171 -0.1010
  277POPC   C2B 3875   2.384   1.613   6.341  0.1286  0.0247 -0.0955
  277POPC   C3B 3876   2.107   1.387   6.632  0.1130 -0.0976  0.0201
  277POPC   C4B 3877   1.939   1.377   7.107  0.0166  0.0790 -0.0531
  278POPC   NC3 3878   9.975   5.149   5.192  0.1776  0.0918 -0.1353
  278POPC   PO4 3879  10.242   5.313   5.404 -0.2940 -0.0125  0.0512
  278POPC   GL1 3880  10.349   5.693   5.618 -0.2610 -0.1565  0.0211
  278POPC   GL2 3881  10.653   5.708   5.555  0.1742  0.0856  0.1459
  278POPC   C1A 3882  10.466   5.861   6.011 -0.1573 -0.0585 -0.0887
  278POPC   D2A 3883  10.416   5.692   6.464  0.1879  0.3862  0.0628
  278POPC   C3A 3884  10.184   5.800   6.838 -0.0455 -0.1169 -0.1487
  278POPC   C4A 3885  10.015   6.178   7.086 -0.2097 -0.0133  0.0981
  278POPC   C1B 3886  10.939   5.991   5.852  0.1322  0.0734  0.1426
  278POPC   C2B 3887  10.950   5.950   6.269 -0.2819 -0.0425 -0.1413
  278POPC   C3B 3888  10.670   6.153   6.562 -0.0243  0.1947 -0.1696
  278POPC   C4B 3889  10.340   6.327   6.646  0.1488 -0.0910  0.1070
  279POPC   NC3 3890  10.081   2.302   4.431  0.1882 -0.0781  0.3335
  279POPC   PO4 3891   9.995   2.063   4.599 -0.1815  0.0626 -0.1038
  279POPC   GL1 3892  10.139   2.038   5.010  0.2493 -0.0916 -0.0724
  279POPC   GL2 3893  10.049   1.768   5.119 -0.0009 -0.0212  0.0872
  279POPC   C1A 3894  10.206   2.057   5.564 -0.0795  0.2004 -0.0132
  279POPC   D2A 3895  10.418   2.121   5.892  0.1887 -0.1589 -0.0926
  279POPC   C3A 3896  10.526   1.780   6.188  0.2392 -0.2021 -0.1902
  279POPC   C4A 3897  10.805   1.421   6.138 -0.5106  0.1777 -0.3015
  279POPC   C1B 3898  10.037   1.424   5.502 -0.0301 -0.0728  0.0125
  279POPC   C2B 3899   9.988   1.131   5.746 -0.0103  0.2940 -0.0775
  279POPC   C3B 3900   9.984   1.036   6.217 -0.1093 -0.1140 -0.2495
  279POPC   C4B 3901   9.875   1.111   6.631  0.0100  0.0361  0.1794
  280POPC   NC3 3902   6.680   2.172   5.419 -0.0926  0.0918  0.1151
  280POPC   PO4 3903   6.984   2.044   5.575  0.5304 -0.0629  0.2035
  280POPC   GL1 3904   7.162   2.110   5.936  0.0900 -0.1314 -0.3141
  280POPC   GL2 3905   7.431   1.908   5.850  0.0391  0.1758  0.1149
  280POPC   C1A 3906   7.319   2.436   6.222 -0.3384 -0.1890 -0.0546
  280POPC   D2A 3907   7.527   2.705   6.629 -0.0056 -0.1512 -0.3268
  280POPC   C3A 3908   7.276   2.541   7.034  0.1476 -0.2391  0.0551
  280POPC   C4A 3909   7.162   2.538   7.410 -0.0755  0.0314  0.2253
  280POPC   C1B 3910   7.365   1.838   6.290  0.1292  0.2798 -0.0799
  280POPC   C2B 3911   7.309   1.687   6.593  0.2071 -0.1874 -0.1867
  280POPC   C3B 3912   7.313   1.611   7.008  0.0241  0.1301 -0.0828
  280POPC   C4B 3913   7.444   1.735   7.389  0.5283 -0.0149 -0.0213
  281POPC   NC3 3914   3.493   3.277   5.790 -0.0393  0.1502  0.4894
  281POPC   PO4 3915   3.495   3.675   5.767  0.1847 -0.1423  0.0213
  281POPC   GL1 3916   3.302   3.676   6.114 -0.1624 -0.1022  0.3829
  281POPC   GL2 3917   3.041   3.377   6.189  0.0308  0.1508 -0.1696
  281POPC   C1A 3918   3.355   3.578   6.507 -0.0646  0.1779 -0.5278
  281POPC   D2A 3919   3.329   3.610   6.972  0.2446  0.2637 -0.0331
  281POPC   C3A 3920   3.165   3.891   7.375 -0.1640  0.0802 -0.0959
  281POPC   C4A 3921   3.270   4.054   7.808  0.0770 -0.3473 -0.0164
  281POPC   C1B 3922   2.903   3.169   6.475  0.1553 -0.3881  0.1445
  281POPC   C2B 3923   2.655   2.962   6.731  0.1487  0.1258 -0.0443
  281POPC   C3B 3924   2.437   2.727   7.095 -0.0649  0.1276  0.3354
  281POPC   C4B 3925   2.068   2.434   7.073 -0.0102  0.4013 -0.2604
  282POPC   NC3 3926   4.725   2.183   4.887  0.1629 -0.1399 -0.0464
  282POPC   PO4 3927   4.879   2.121   5.326 -0.2530 -0.0930 -0.0978
  282POPC   GL1 3928   5.018   2.100   5.635  0.1109  0.4196 -0.0651
  282POPC   GL2 3929   4.669   1.853   5.706 -0.2803 -0.0526  0.0148
  282POPC   C1A 3930   5.189   1.859   5.949  0.0617 -0.0502  0.1707
  282POPC   D2A 3931   5.481   1.810   6.249 -0.1740 -0.1922  0.1094
  282POPC   C3A 3932   5.670   1.849   6.731  0.0980  0.1502 -0.0536
  282POPC   C4A 3933   6.082   2.047   6.843  0.1044 -0.4673 -0.2327
  282POPC   C1B 3934   4.629   1.988   6.046 -0.1240  0.3777  0.0531
  282POPC   C2B 3935   4.598   2.035   6.495 -0.0701  0.1585 -0.1309
  282POPC   C3B 3936   4.633   1.803   6.767  0.1528 -0.3906  0.4234
  282POPC   C4B 3937   4.501   1.966   7.185 -0.3607 -0.0180  0.1005
  283POPC   NC3 3938   1.439   3.849   5.609 -0.0538  0.0333 -0.4007
  283POPC   PO4 3939   1.112   3.860   5.799 -0.0825 -0.0362  0.1610
  283POPC   GL1 3940   1.052   3.726   6.159 -0.1695 -0.1359 -0.3414
  283POPC   GL2 3941   0.778   3.776   6.228 -0.2357  0.3161  0.1386
  283POPC   C1A 3942   1.144   3.533   6.545  0.2752  0.2632 -0.4155
  283POPC   D2A 3943   1.212   3.672   7.048 -0.1429 -0.0418 -0.0073
  283POPC   C3A 3944   0.996   4.110   7.195  0.4797  0.0163  0.2062
  283POPC   C4A 3945   0.798   4.386   6.963 -0.1205  0.2203  0.0494
  283POPC   C1B 3946   0.645   3.470   6.474 -0.3299  0.2205  0.0757
  283POPC   C2B 3947   0.780   3.250   6.790 -0.0467  0.3221  0.1908
  283POPC   C3B 3948   0.866   3.132   7.301  0.3259  0.3684  0.2632
  283POPC   C4B 3949   0.944   3.203   7.728 -0.3199 -0.2220 -0.0119
  284POPC   NC3 3950   2.044   4.863   5.436 -0.1954 -0.4119  0.3296
  284POPC   PO4 3951   2.398   4.962   5.188 -0.0688 -0.2143 -0.1588
  284POPC   GL1 3952   2.437   5.092   5.633  0.2264 -0.1670 -0.0154
  284POPC   GL2 3953   2.515   5.555   5.669  0.1140  0.0707 -0.1703
  284POPC   C1A 3954   2.406   5.258   6.033  0.1942  0.0687 -0.0803
  284POPC   D2A 3955   2.400   5.253   6.439  0.2232 -0.1525 -0.1597
  284POPC   C3A 3956   2.499   5.006   6.841 -0.2888  0.0270 -0.3235
  284POPC   C4A 3957   2.765   4.678   6.948  0.0677  0.0445 -0.0936
  284POPC   C1B 3958   2.605   5.771   6.057  0.3487  0.1986 -0.1990
  284POPC   C2B 3959   2.600   6.067   6.430  0.0941  0.1630 -0.4732
  284POPC   C3B 3960   2.774   6.051   6.854 -0.0877 -0.1052  0.2160
  284POPC   C4B 3961   3.030   6.312   7.061  0.4109 -0.0386 -0.0488
  285POPC   NC3 3962   6.442   6.825   4.987  0.0925  0.0675  0.3436
  285POPC   PO4 3963   6.264   7.018   5.238  0.0572  0.1823 -0.1913
  285POPC   GL1 3964   6.215   6.931   5.602 -0.0457  0.3423 -0.0367
  285POPC   GL2 3965   6.012   6.546   5.629 -0.0223 -0.1519 -0.0183
  285POPC   C1A 3966   6.239   6.924   5.953 -0.1285  0.1615  0.0738
  285POPC   D2A 3967   6.411   6.739   6.388  0.2276 -0.4087 -0.1356
  285POPC   C3A 3968   6.163   6.984   6.620 -0.0188 -0.1590  0.0664
  285POPC   C4A 3969   6.098   7.181   7.082  0.1922 -0.0744  0.1109
  285POPC   C1B 3970   6.129   6.443   6.055 -0.1895 -0.4034 -0.1566
  285POPC   C2B 3971   6.052   6.417   6.496  0.0309 -0.1667 -0.0611
  285POPC   C3B 3972   6.053   6.456   6.931  0.2801 -0.1508 -0.0529
  285POPC   C4B 3973   6.279   6.523   7.357  0.1271  0.0406 -0.0652
  286POPC   NC3 3974   3.410   7.457   3.859 -0.2129  0.1546 -0.0080
  286POPC   PO4 3975   3.558   7.178   4.101  0.0240  0.1123 -0.2037
  286POPC   GL1 3976   3.552   7.504   4.475  0.1062  0.1290  0.0812
  286POPC   GL2 3977   3.420   7.328   4.809  0.2329  0.3164 -0.1480
  286POPC   C1A 3978   3.688   7.695   4.783  0.2494 -0.4438 -0.3125
  286POPC   D2A 3979   4.027   7.871   4.989  0.4616  0.2846  0.3458
  286POPC   C3A 3980   4.053   8.288   5.020  0.0318  0.1299 -0.2597
  286POPC   C4A 3981   3.822   8.681   4.916  0.2440  0.0555 -0.1092
  286POPC   C1B 3982   3.289   7.487   5.221 -0.1387 -0.4671 -0.0962
  286POPC   C2B 3983   3.263   7.816   5.633 -0.0893 -0.2415  0.3626
  286POPC   C3B 3984   3.120   8.210   5.783  0.2785 -0.1134  0.0833
  286POPC   C4B 3985   3.000   8.621   5.585 -0.1045  0.2821 -0.1094
  287POPC   NC3 3986   4.350   9.358   4.366  0.3453 -0.1302 -0.0512
  287POPC   PO4 3987   4.208   9.807   4.442 -0.0728 -0.3567 -0.1774
  287POPC   GL1 3988   3.879   9.687   4.575 -0.0581 -0.0772  0.2728
  287POPC   GL2 3989   4.053   9.599   4.903  0.1666 -0.1718 -0.3093
  287POPC   C1A 3990   3.526   9.571   4.765 -0.1728 -0.0607 -0.3072
  287POPC   D2A 3991   3.599   9.855   5.116 -0.2980  0.4413  0.0987
  287POPC   C3A 3992   3.717   9.645   5.493 -0.1601 -0.2331  0.2900
  287POPC   C4A 3993   3.846   9.563   5.884  0.2105  0.0060 -0.0602
  287POPC   C1B 3994   3.885   9.239   5.098  0.0344  0.0923 -0.1637
  287POPC   C2B 3995   3.540   8.901   5.274  0.1055 -0.1333 -0.0841
  287POPC   C3B 3996   3.497   8.487   5.324  0.0849 -0.2493 -0.0057
  287POPC   C4B 3997   3.609   8.154   5.579  0.3598  0.0260 -0.2252
  288POPC   NC3 3998   1.654   7.294   4.142  0.3527  0.4093  0.0705
  288POPC   PO4 3999   2.110   7.179   3.920  0.0129 -0.0056 -0.0779
  288POPC   GL1 4000   2.012   7.161   4.491  0.0203 -0.0404  0.1379
  288POPC   GL2 4001   2.350   7.194   4.550 -0.0983  0.0871 -0.0629
  288POPC   C1A 4002   2.016   7.390   4.853 -0.2501 -0.0518 -0.0462
  288POPC   D2A 4003   2.076   7.534   5.279 -0.1008 -0.1439  0.5511
  288POPC   C3A 4004   1.832   7.875   5.483 -0.0911 -0.1179 -0.1298
  288POPC   C4A 4005   1.662   8.181   5.254  0.2007  0.2156 -0.1454
  288POPC   C1B 4006   2.488   7.234   4.995 -0.0646  0.1061  0.0587
  288POPC   C2B 4007   2.499   7.191   5.465 -0.2031 -0.0212  0.1611
  288POPC   C3B 4008   2.102   7.163   5.648 -0.4157 -0.1164  0.1996
  288POPC   C4B 4009   1.793   7.210   5.990  0.0581  0.0126 -0.0146
  289POPC   NC3 4010   2.948  10.149   3.678 -0.2265  0.3420  0.1439
  289POPC   PO4 4011   2.627   9.990   3.319  0.2043  0.1273 -0.0373
  289POPC   GL1 4012   2.393   9.950   3.710  0.1192 -0.2156  0.0389
  289POPC   GL2 4013   2.660   9.853   3.916 -0.0875  0.1088 -0.0010
  289POPC   C1A 4014   2.259   9.951   4.205 -0.0903 -0.4038 -0.0066
  289POPC   D2A 4015   2.280   9.599   4.514 -0.0779 -0.2178  0.1541
  289POPC   C3A 4016   1.985   9.491   4.823 -0.0129 -0.1218 -0.0211
  289POPC   C4A 4017   1.706   9.796   4.928 -0.1590 -0.0753  0.0121
  289POPC   C1B 4018   2.734   9.857   4.248  0.0940 -0.1689 -0.0874
  289POPC   C2B 4019   2.780   9.485   4.540 -0.2107  0.1361  0.3451
  289POPC   C3B 4020   3.052   9.435   4.941  0.0526 -0.1185 -0.0609
  289POPC   C4B 4021   3.361   9.385   5.183  0.1679 -0.0449  0.0919
  290POPC   NC3 4022   0.879   7.583   3.576  0.0609 -0.1353 -0.0415
  290POPC   PO4 4023   0.807   7.465   4.022  0.1351  0.3592  0.1970
  290POPC   GL1 4024   0.728   7.647   4.420 -0.0751 -0.1449  0.2136
  290POPC   GL2 4025   0.489   7.444   4.657  0.0855  0.1651  0.2203
  290POPC   C1A 4026   0.549   7.891   4.854  0.2470 -0.0233 -0.1322
  290POPC   D2A 4027   0.207   8.099   4.989 -0.0530 -0.1441 -0.1985
  290POPC   C3A 4028   0.239   8.503   5.262 -0.0500  0.1601 -0.1123
  290POPC   C4A 4029   0.444   8.524   5.662  0.0999  0.0438  0.0687
  290POPC   C1B 4030   0.759   7.421   4.939 -0.2874 -0.0307  0.0924
  290POPC   C2B 4031   1.028   7.181   5.108 -0.0197 -0.0849 -0.1265
  290POPC   C3B 4032   1.381   7.106   5.403 -0.0840 -0.1689 -0.2212
  290POPC   C4B 4033   1.696   7.360   5.483 -0.0100 -0.1969  0.2014
  291POPC   NC3 4034   6.055   1.928   4.865  0.1358 -0.0686 -0.0315
  291POPC   PO4 4035   6.234   1.947   5.301  0.0504  0.2326  0.1432
  291POPC   GL1 4036   6.294   1.790   5.752  0.0753 -0.2195 -0.0867
  291POPC   GL2 4037   6.631   1.875   5.844  0.0597  0.2759 -0.2236
  291POPC   C1A 4038   6.457   1.450   6.075 -0.0866 -0.0703 -0.2618
  291POPC   D2A 4039   6.856   1.343   6.179  0.3149 -0.0067 -0.2054
  291POPC   C3A 4040   7.149   1.240   6.590 -0.3532 -0.0263 -0.1708
  291POPC   C4A 4041   7.454   1.106   6.888 -0.1545 -0.1899 -0.0857
  291POPC   C1B 4042   6.820   1.852   6.355 -0.0131  0.0947 -0.0643
  291POPC   C2B 4043   6.854   1.655   6.760  0.1059  0.3309 -0.1183
  291POPC   C3B 4044   6.587   1.272   6.877  0.1496 -0.2834  0.3403
  291POPC   C4B 4045   6.528   0.970   7.133 -0.2279 -0.1963  0.0443
  292POPC   NC3 4046   5.323   6.736   5.396  0.1871  0.0120  0.2255
  292POPC   PO4 4047   5.686   6.819   5.384  0.1617 -0.0930 -0.0430
  292POPC   GL1 4048   5.768   7.018   5.859 -0.1040  0.1995 -0.0837
  292POPC   GL2 4049   5.920   7.338   5.727  0.1188  0.1314  0.1319
  292POPC   C1A 4050   5.777   6.771   6.292 -0.3423 -0.0789  0.2007
  292POPC   D2A 4051   5.469   6.606   6.464  0.1322 -0.2224  0.0727
  292POPC   C3A 4052   5.029   6.817   6.595 -0.4175  0.2169  0.0853
  292POPC   C4A 4053   4.843   6.967   6.895  0.0404 -0.0071  0.0915
  292POPC   C1B 4054   6.064   7.409   6.145 -0.0983 -0.1191 -0.0714
  292POPC   C2B 4055   6.095   7.458   6.614  0.0125 -0.0139 -0.2524
  292POPC   C3B 4056   6.249   7.654   7.035  0.1317  0.0306 -0.2551
  292POPC   C4B 4057   6.331   7.968   7.347  0.2284  0.1696 -0.1401
  293POPC   NC3 4058   8.827   2.705   5.210  0.0967  0.3501  0.0624
  293POPC   PO4 4059   8.585   2.352   5.116  0.1690  0.3754  0.1923
  293POPC   GL1 4060   8.736   2.124   5.408 -0.2992 -0.0739 -0.0992
  293POPC   GL2 4061   8.914   2.336   5.611  0.0512 -0.3420 -0.3404
  293POPC   C1A 4062   8.867   1.836   5.735 -0.0298  0.0231  0.2773
  293POPC   D2A 4063   8.942   1.667   6.167 -0.2490  0.1428 -0.0472
  293POPC   C3A 4064   9.061   1.897   6.605  0.1940  0.2451  0.0618
  293POPC   C4A 4065   9.184   1.949   7.061 -0.0902 -0.2896  0.0616
  293POPC   C1B 4066   9.299   2.607   5.738 -0.0957  0.1048 -0.1963
  293POPC   C2B 4067   9.430   2.488   6.226 -0.0463  0.2020  0.1754
  293POPC   C3B 4068   9.566   2.440   6.603 -0.2305 -0.1155  0.2933
  293POPC   C4B 4069   9.905   2.206   6.907  0.1453  0.1539 -0.1011
  294POPC   NC3 4070   2.600   4.488   5.463  0.0592 -0.0067  0.3336
  294POPC   PO4 4071   2.149   4.312   5.358  0.0116 -0.1590 -0.0829
  294POPC   GL1 4072   2.182   4.500   5.762 -0.0225 -0.4762 -0.1915
  294POPC   GL2 4073   2.117   4.333   6.031 -0.2948 -0.0587 -0.2442
  294POPC   C1A 4074   2.395   4.744   6.078 -0.0591  0.1121 -0.1340
  294POPC   D2A 4075   2.174   4.729   6.565 -0.0508 -0.1544 -0.0235
  294POPC   C3A 4076   1.932   4.268   6.544  0.2543  0.1949 -0.0296
  294POPC   C4A 4077   2.020   3.822   6.715  0.4296 -0.0206  0.4127
  294POPC   C1B 4078   1.869   4.670   6.144 -0.0340  0.2155 -0.0171
  294POPC   C2B 4079   1.682   4.758   6.555  0.0317  0.0697  0.0747
  294POPC   C3B 4080   1.542   5.008   7.006 -0.0784 -0.4574 -0.3844
  294POPC   C4B 4081   1.463   4.848   7.329 -0.2056  0.4890  0.1291
  295POPC   NC3 4082   3.103   1.733   4.433 -0.0932  0.0800 -0.1495
  295POPC   PO4 4083   2.898   1.437   4.668 -0.1306 -0.4172 -0.2703
  295POPC   GL1 4084   2.642   1.102   4.855  0.3369 -0.2998 -0.1652
  295POPC   GL2 4085   2.890   0.937   4.991 -0.1258  0.1294 -0.0399
  295POPC   C1A 4086   2.363   0.879   5.142  0.1853 -0.0191 -0.0519
  295POPC   D2A 4087   2.008   0.892   5.179 -0.0082  0.2396 -0.1336
  295POPC   C3A 4088   1.621   0.607   5.326 -0.0187 -0.2255  0.0865
  295POPC   C4A 4089   1.385   0.506   5.686 -0.4003  0.3424  0.0694
  295POPC   C1B 4090   2.799   0.723   5.337  0.0200 -0.0298 -0.3732
  295POPC   C2B 4091   2.566   0.438   5.653  0.2413 -0.0503  0.1742
  295POPC   C3B 4092   2.629   0.052   5.824 -0.0820 -0.0008  0.0034
  295POPC   C4B 4093   2.671  -0.399   5.866  0.3337 -0.0617  0.0107
  296POPC   NC3 4094   6.137  10.063   5.443  0.1476  0.2040 -0.0678
  296POPC   PO4 4095   5.700   9.928   5.234  0.1841 -0.1585  0.1590
  296POPC   GL1 4096   5.668  10.123   5.655  0.0527 -0.2526  0.1657
  296POPC   GL2 4097   5.435  10.357   5.658 -0.1411  0.2350  0.1599
  296POPC   C1A 4098   5.852  10.351   5.933 -0.4056 -0.4674 -0.0803
  296POPC   D2A 4099   5.806  10.313   6.355  0.1388  0.2249 -0.1328
  296POPC   C3A 4100   6.067  10.375   6.767  0.1133  0.1658 -0.2378
  296POPC   C4A 4101   6.367  10.282   7.123  0.0137 -0.0689  0.0260
  296POPC   C1B 4102   5.262  10.480   5.976 -0.2172 -0.0175  0.1144
  296POPC   C2B 4103   5.298  10.519   6.388  0.1753  0.1194 -0.1099
  296POPC   C3B 4104   5.346  10.521   6.805  0.0126 -0.1525  0.1223
  296POPC   C4B 4105   5.392  10.601   7.309 -0.1265  0.0670 -0.2961
  297POPC   NC3 4106   4.903   6.396   4.816  0.0724 -0.1481 -0.0193
  297POPC   PO4 4107   4.466   6.487   5.007 -0.1359  0.0959 -0.2728
  297POPC   GL1 4108   4.320   6.626   5.431  0.2018  0.0039 -0.0059
  297POPC   GL2 4109   4.510   6.693   5.577  0.0038 -0.0271  0.0348
  297POPC   C1A 4110   4.081   6.695   5.783  0.4226  0.0449  0.5549
  297POPC   D2A 4111   3.733   6.919   5.994  0.0258 -0.2641  0.1413
  297POPC   C3A 4112   3.758   7.142   6.323 -0.4552 -0.0609 -0.0248
  297POPC   C4A 4113   3.638   7.214   6.671 -0.0431  0.0808  0.0995
  297POPC   C1B 4114   4.608   6.699   6.005 -0.0612 -0.2625 -0.1909
  297POPC   C2B 4115   4.565   6.773   6.458  0.1074  0.0163  0.1021
  297POPC   C3B 4116   4.276   6.573   6.702  0.0913  0.1076  0.0515
  297POPC   C4B 4117   4.060   6.377   6.937  0.2914  0.0061  0.2966
  298POPC   NC3 4118   8.491   5.435   5.220  0.2300  0.0788 -0.2277
  298POPC   PO4 4119   8.197   5.722   5.140 -0.0582  0.0019  0.0520
  298POPC   GL1 4120   8.360   5.848   5.475  0.0963  0.1533  0.2588
  298POPC   GL2 4121   8.336   6.162   5.696 -0.1877 -0.0693  0.0804
  298POPC   C1A 4122   8.670   5.865   5.844  0.0401 -0.0554 -0.1569
  298POPC   D2A 4123   8.935   6.141   6.171  0.0965  0.1676  0.0062
  298POPC   C3A 4124   8.865   6.088   6.624  0.1190 -0.3603  0.1900
  298POPC   C4A 4125   9.057   5.913   6.941  0.0730 -0.3304 -0.0915
  298POPC   C1B 4126   8.221   6.025   6.031 -0.0236 -0.3058 -0.0382
  298POPC   C2B 4127   8.465   5.993   6.409  0.2599  0.0040 -0.0070
  298POPC   C3B 4128   8.477   5.878   6.882 -0.1098  0.0315  0.4063
  298POPC   C4B 4129   8.295   5.626   7.103 -0.1492 -0.0318  0.0386
  299POPC   NC3 4130   3.699   9.851   3.684 -0.0640  0.3189 -0.1081
  299POPC   PO4 4131   3.365   9.936   3.704  0.1385 -0.1294 -0.0800
  299POPC   GL1 4132   3.398   9.793   4.127  0.0099 -0.1375 -0.0604
  299POPC   GL2 4133   3.537  10.053   4.468 -0.1365 -0.0073 -0.1270
  299POPC   C1A 4134   3.234   9.483   4.370  0.2716 -0.1454  0.0822
  299POPC   D2A 4135   3.067   9.081   4.485 -0.0923  0.2279  0.1726
  299POPC   C3A 4136   2.625   9.056   4.808 -0.2950 -0.2595  0.1373
  299POPC   C4A 4137   2.447   9.153   5.264 -0.0747 -0.1868  0.2121
  299POPC   C1B 4138   3.150   9.903   4.618 -0.0935 -0.0290  0.2214
  299POPC   C2B 4139   2.787   9.832   4.916  0.1099  0.0611  0.2661
  299POPC   C3B 4140   2.460   9.652   4.997 -0.0845  0.0913  0.0393
  299POPC   C4B 4141   2.394   9.599   5.453 -0.1314 -0.2119  0.0183
  300POPC   NC3 4142   6.437   7.932   5.219 -0.2979  0.4883  0.0685
  300POPC   PO4 4143   6.790   8.072   5.308  0.1752 -0.1729  0.0414
  300POPC   GL1 4144   6.671   8.317   5.558 -0.1276 -0.3317  0.3005
  300POPC   GL2 4145   6.650   8.750   5.504  0.2566  0.1416 -0.1950
  300POPC   C1A 4146   6.842   8.494   5.868  0.0519  0.1381 -0.4503
  300POPC   D2A 4147   6.952   8.757   6.281 -0.2470  0.0277  0.1042
  300POPC   C3A 4148   6.865   8.598   6.787 -0.1630 -0.1358 -0.1883
  300POPC   C4A 4149   6.783   8.841   7.133  0.2542 -0.0521 -0.1004
  300POPC   C1B 4150   6.604   8.939   5.916  0.1264 -0.0838  0.0304
  300POPC   C2B 4151   6.380   9.010   6.297  0.0347  0.0345  0.1041
  300POPC   C3B 4152   6.186   9.237   6.647  0.0647 -0.0090 -0.2018
  300POPC   C4B 4153   5.915   9.420   6.932  0.2457  0.0728 -0.2592
  301POPC   NC3 4154   7.242   9.394   5.133  0.2115 -0.0308  0.1798
  301POPC   PO4 4155   6.856   9.034   5.170  0.1239 -0.0473  0.1592
  301POPC   GL1 4156   6.951   9.232   5.561  0.1756 -0.2566 -0.1007
  301POPC   GL2 4157   7.341   9.423   5.653 -0.1479  0.1319 -0.2170
  301POPC   C1A 4158   6.837   9.481   5.917  0.0541  0.0745  0.0766
  301POPC   D2A 4159   7.054   9.394   6.246 -0.0334 -0.2734  0.0744
  301POPC   C3A 4160   7.296   9.181   6.083 -0.2314  0.4045  0.0407
  301POPC   C4A 4161   7.411   8.751   5.895  0.0048 -0.0999 -0.0619
  301POPC   C1B 4162   7.237   9.764   5.964  0.0505  0.1360 -0.0011
  301POPC   C2B 4163   7.242   9.873   6.416 -0.0728  0.0396 -0.0765
  301POPC   C3B 4164   7.153  10.182   6.863 -0.0516  0.0875 -0.5321
  301POPC   C4B 4165   6.958  10.536   7.055  0.0243 -0.3825  0.0896
  302POPC   NC3 4166   6.291   0.061   4.912  0.1112 -0.0208 -0.1212
  302POPC   PO4 4167   5.956   0.404   5.099  0.0372  0.2618  0.2283
  302POPC   GL1 4168   5.844   0.487   5.576  0.0895  0.1225 -0.2061
  302POPC   GL2 4169   5.642   0.747   5.671 -0.1805 -0.0507  0.1211
  302POPC   C1A 4170   6.115   0.653   5.906 -0.1083 -0.1595  0.0915
  302POPC   D2A 4171   6.586   0.876   5.954  0.1319  0.1036 -0.0641
  302POPC   C3A 4172   6.680   0.784   6.319 -0.1766 -0.0910 -0.0954
  302POPC   C4A 4173   6.890   0.836   6.783  0.0017 -0.1425  0.1129
  302POPC   C1B 4174   5.634   0.645   6.091  0.0878  0.2817  0.1917
  302POPC   C2B 4175   5.723   0.661   6.436 -0.0032 -0.1089  0.0160
  302POPC   C3B 4176   5.923   0.635   6.864 -0.0996 -0.0837 -0.0047
  302POPC   C4B 4177   6.426   0.512   6.845  0.2752 -0.3427 -0.1443
  303POPC   NC3 4178   9.413   4.260   5.282 -0.1518  0.0701 -0.3172
  303POPC   PO4 4179   9.724   4.710   5.256 -0.1468  0.0063  0.1903
  303POPC   GL1 4180   9.426   4.730   5.596  0.1100  0.0189 -0.1173
  303POPC   GL2 4181   9.752   4.690   5.811  0.0029 -0.0672 -0.0804
  303POPC   C1A 4182   9.126   4.648   5.921 -0.1697  0.1497 -0.1169
  303POPC   D2A 4183   8.995   4.565   6.400 -0.0562 -0.0025 -0.1766
  303POPC   C3A 4184   9.169   4.325   6.742  0.0830  0.0446  0.0030
  303POPC   C4A 4185   9.012   3.926   7.024 -0.3650  0.3642  0.1249
  303POPC   C1B 4186   9.668   4.612   6.289  0.0747 -0.0606 -0.0245
  303POPC   C2B 4187   9.506   4.630   6.611 -0.0411 -0.2267 -0.0720
  303POPC   C3B 4188   9.352   4.770   7.034  0.3501 -0.2461  0.1902
  303POPC   C4B 4189   9.288   4.621   7.518 -0.3961 -0.1160  0.4552
  304POPC   NC3 4190   4.309   2.195   5.469 -0.1831 -0.0850  0.0911
  304POPC   PO4 4191   4.673   2.484   5.635  0.0246  0.0112  0.0101
  304POPC   GL1 4192   4.755   2.576   6.056 -0.2415  0.2462  0.1378
  304POPC   GL2 4193   5.048   2.634   6.011 -0.3336  0.0131 -0.2269
  304POPC   C1A 4194   4.575   2.652   6.471 -0.2076 -0.0564  0.3551
  304POPC   D2A 4195   4.597   2.509   6.852 -0.0229  0.0952  0.0565
  304POPC   C3A 4196   4.927   2.186   7.043  0.1626  0.0881  0.0694
  304POPC   C4A 4197   5.095   1.663   6.950 -0.1198 -0.0768  0.2105
  304POPC   C1B 4198   5.062   2.259   6.274  0.3010  0.0586 -0.0665
  304POPC   C2B 4199   5.083   1.973   6.549 -0.0801  0.3866  0.0295
  304POPC   C3B 4200   4.952   1.650   6.357  0.1282 -0.0278 -0.2337
  304POPC   C4B 4201   4.897   1.304   6.551  0.4227 -0.3386 -0.1930
  305POPC   NC3 4202   9.895  10.049   3.848  0.0923 -0.2390 -0.0177
  305POPC   PO4 4203  10.326  10.085   3.806 -0.2666 -0.1110  0.0194
  305POPC   GL1 4204  10.207  10.316   4.071 -0.0781 -0.0984 -0.1691
  305POPC   GL2 4205   9.903  10.453   4.106  0.2544  0.0559 -0.1316
  305POPC   C1A 4206  10.333  10.417   4.455  0.1084 -0.3626 -0.0109
  305POPC   D2A 4207  10.205  10.565   4.907 -0.0056  0.0356 -0.1254
  305POPC   C3A 4208  10.424  10.380   5.296 -0.1598  0.3914  0.1659
  305POPC   C4A 4209  10.198  10.313   5.657  0.0081  0.2151 -0.1608
  305POPC   C1B 4210   9.843  10.627   4.545  0.2018  0.1777 -0.1815
  305POPC   C2B 4211   9.742  10.795   4.849 -0.2082  0.0831 -0.1110
  305POPC   C3B 4212   9.636  11.182   5.122 -0.1658 -0.2604  0.1083
  305POPC   C4B 4213   9.730  11.624   5.037 -0.1303  0.2419  0.0803
  306POPC   NC3 4214   2.865   5.668   4.524  0.0638  0.3267 -0.3917
  306POPC   PO4 4215   3.066   5.775   4.826  0.3615  0.0570 -0.0511
  306POPC   GL1 4216   3.024   6.118   5.178 -0.1624  0.0542 -0.0071
  306POPC   GL2 4217   3.341   6.138   5.361 -0.1892 -0.0466 -0.1734
  306POPC   C1A 4218   3.103   6.536   5.379  0.0279 -0.0566  0.2820
  306POPC   D2A 4219   2.878   6.621   5.720  0.2343  0.0352 -0.0513
  306POPC   C3A 4220   2.535   6.810   5.744 -0.2390 -0.0639 -0.1923
  306POPC   C4A 4221   2.083   6.685   5.568  0.0474 -0.1144 -0.3408
  306POPC   C1B 4222   3.432   6.152   5.760 -0.0100 -0.1498 -0.0099
  306POPC   C2B 4223   3.510   5.963   6.187 -0.3643  0.2077  0.1231
  306POPC   C3B 4224   3.352   5.849   6.664  0.2074 -0.0098  0.0838
  306POPC   C4B 4225   3.232   5.687   7.049  0.2363 -0.2608  0.0224
  307POPC   NC3 4226   0.860   5.524   4.225  0.1090  0.0020  0.0968
  307POPC   PO4 4227   0.755   5.801   4.673 -0.1368 -0.1255 -0.0298
  307POPC   GL1 4228   0.654   5.873   5.129  0.1005 -0.1568 -0.2942
  307POPC   GL2 4229   1.004   5.884   5.280  0.2471  0.0613 -0.1309
  307POPC   C1A 4230   0.740   6.301   5.381 -0.1214  0.0270  0.3735
  307POPC   D2A 4231   0.625   6.595   5.739  0.1299  0.0111 -0.2732
  307POPC   C3A 4232   0.851   6.963   5.946  0.0325  0.2055  0.1117
  307POPC   C4A 4233   0.862   7.305   5.621  0.1633 -0.0393  0.1944
  307POPC   C1B 4234   1.287   6.276   5.240  0.0187 -0.1505 -0.1774
  307POPC   C2B 4235   1.601   6.604   5.330 -0.0837  0.2638  0.0024
  307POPC   C3B 4236   1.615   6.772   5.731  0.0500  0.0550 -0.0164
  307POPC   C4B 4237   1.347   7.120   5.893 -0.4077 -0.0207 -0.0316
  308POPC   NC3 4238   3.982   3.583   5.615  0.3497 -0.2380 -0.2492
  308POPC   PO4 4239   3.995   3.134   5.716 -0.0052  0.1897  0.2312
  308POPC   GL1 4240   3.913   3.221   6.160 -0.1809 -0.0725 -0.2288
  308POPC   GL2 4241   3.810   3.514   6.122  0.0659 -0.0556 -0.0432
  308POPC   C1A 4242   3.875   3.302   6.608 -0.0340 -0.0516 -0.1712
  308POPC   D2A 4243   4.080   3.255   6.946 -0.0671 -0.0506  0.0806
  308POPC   C3A 4244   4.534   3.228   7.146 -0.5156 -0.1910  0.1357
  308POPC   C4A 4245   4.938   3.014   7.147 -0.0280 -0.2498  0.0689
  308POPC   C1B 4246   3.799   3.759   6.420  0.2864 -0.1933  0.2012
  308POPC   C2B 4247   3.807   3.727   6.922  0.1568 -0.0882 -0.0944
  308POPC   C3B 4248   3.763   3.347   7.269 -0.1752 -0.1263  0.1235
  308POPC   C4B 4249   3.594   2.985   7.469 -0.0380  0.1472 -0.0167
  309POPC   NC3 4250   7.436   2.878   5.405 -0.0419  0.0981  0.1546
  309POPC   PO4 4251   7.242   2.510   5.385  0.1219 -0.1938  0.1004
  309POPC   GL1 4252   7.066   2.557   5.699  0.5127  0.1428  0.0182
  309POPC   GL2 4253   7.200   2.829   5.868  0.1361 -0.2164  0.1801
  309POPC   C1A 4254   6.908   2.808   6.251  0.3652  0.0765  0.0940
  309POPC   D2A 4255   6.928   3.141   6.658 -0.1382  0.3295  0.0310
  309POPC   C3A 4256   7.146   3.010   7.022 -0.2187 -0.0590  0.1254
  309POPC   C4A 4257   7.555   2.880   7.121  0.0354 -0.1810 -0.0659
  309POPC   C1B 4258   7.381   2.933   6.246  0.3101 -0.2202 -0.4983
  309POPC   C2B 4259   7.662   3.147   6.521  0.2142 -0.2355 -0.0137
  309POPC   C3B 4260   7.845   3.115   6.761  0.2696 -0.0099  0.0547
  309POPC   C4B 4261   7.874   3.291   7.165 -0.2896 -0.0897  0.2890
  310POPC   NC3 4262   7.183   4.214   4.626 -0.0752 -0.4050  0.1591
  310POPC   PO4 4263   7.364   4.465   4.959 -0.0563  0.0157 -0.2318
  310POPC   GL1 4264   7.333   4.404   5.403  0.0291 -0.1593 -0.0213
  310POPC   GL2 4265   7.483   4.553   5.549 -0.3486  0.3932 -0.1933
  310POPC   C1A 4266   7.308   4.286   5.906  0.2573  0.2328 -0.2717
  310POPC   D2A 4267   7.147   3.975   6.125 -0.0281  0.2546  0.0780
  310POPC   C3A 4268   6.965   3.687   5.952  0.0618 -0.0505 -0.2640
  310POPC   C4A 4269   6.969   3.300   6.159 -0.0496  0.0405  0.2164
  310POPC   C1B 4270   7.332   4.844   5.916  0.0535  0.1081 -0.0062
  310POPC   C2B 4271   7.346   4.841   6.300 -0.0392 -0.1951  0.0900
  310POPC   C3B 4272   7.723   4.735   6.531  0.2668 -0.0625 -0.1033
  310POPC   C4B 4273   8.063   4.456   6.397  0.0435 -0.1784 -0.1514
  311POPC   NC3 4274   9.053   3.453   5.249 -0.3195 -0.1370  0.3024
  311POPC   PO4 4275   9.323   3.766   5.455 -0.2533 -0.1260  0.2819
  311POPC   GL1 4276   9.315   4.104   5.764 -0.1784  0.0156 -0.0611
  311POPC   GL2 4277   8.966   4.228   5.775  0.0815 -0.1849  0.2274
  311POPC   C1A 4278   9.268   4.196   6.230 -0.1067 -0.1208 -0.0969
  311POPC   D2A 4279   9.271   3.886   6.494  0.1566 -0.0079 -0.0285
  311POPC   C3A 4280   9.498   3.808   6.881 -0.0176 -0.0195 -0.1184
  311POPC   C4A 4281   9.512   3.686   7.206 -0.0428  0.0166 -0.0805
  311POPC   C1B 4282   8.650   4.558   5.703 -0.0833 -0.1196 -0.0591
  311POPC   C2B 4283   8.404   4.848   5.961  0.0383  0.0198 -0.2404
  311POPC   C3B 4284   8.119   5.019   6.213 -0.0942  0.0342  0.1129
  311POPC   C4B 4285   7.772   5.136   6.079 -0.0001  0.0973  0.3097
  312POPC   NC3 4286   9.065   8.300   4.168  0.0429 -0.0169  0.2435
  312POPC   PO4 4287   9.201   8.136   4.587 -0.0751 -0.0653 -0.0777
  312POPC   GL1 4288   9.527   7.988   4.893 -0.2480  0.1827  0.0759
  312POPC   GL2 4289   9.921   7.974   4.805 -0.0820  0.0534 -0.0635
  312POPC   C1A 4290   9.752   7.621   5.197  0.0769  0.0449 -0.0993
  312POPC   D2A 4291   9.758   7.613   5.553 -0.1616  0.0504 -0.1013
  312POPC   C3A 4292   9.790   7.993   5.885  0.0142 -0.0679 -0.0223
  312POPC   C4A 4293  10.067   8.316   6.173 -0.3846 -0.2971  0.0558
  312POPC   C1B 4294   9.995   8.154   5.296 -0.3361  0.0879  0.1036
  312POPC   C2B 4295  10.172   8.179   5.575 -0.0684  0.1076  0.0538
  312POPC   C3B 4296  10.613   8.012   5.744 -0.0489 -0.1374  0.1076
  312POPC   C4B 4297  10.940   7.747   5.869  0.1701  0.4061  0.0212
  313POPC   NC3 4298   6.981   5.569   4.613 -0.3815 -0.2077 -0.2707
  313POPC   PO4 4299   7.226   5.682   4.871 -0.0509  0.0237  0.1368
  313POPC   GL1 4300   7.222   5.481   5.271  0.0975  0.1851  0.0731
  313POPC   GL2 4301   7.147   5.639   5.406 -0.0438  0.0352 -0.1611
  313POPC   C1A 4302   7.477   5.334   5.774  0.2753 -0.0060  0.5458
  313POPC   D2A 4303   7.285   5.337   6.240 -0.1501 -0.0419 -0.2030
  313POPC   C3A 4304   7.559   5.221   6.576 -0.1657  0.0001  0.0514
  313POPC   C4A 4305   7.992   5.140   6.824 -0.0861 -0.2619  0.1813
  313POPC   C1B 4306   6.929   5.528   5.827 -0.2590  0.0058 -0.2524
  313POPC   C2B 4307   6.849   5.536   6.276 -0.1621  0.0276 -0.1174
  313POPC   C3B 4308   6.590   5.462   6.694 -0.2078 -0.2154 -0.0135
  313POPC   C4B 4309   6.239   5.554   7.006 -0.0355 -0.0887  0.1796
  314POPC   NC3 4310   8.441   8.199   4.904  0.0164 -0.2058 -0.0717
  314POPC   PO4 4311   8.723   8.441   5.119  0.1753  0.2144  0.0389
  314POPC   GL1 4312   8.688   8.591   5.547 -0.0090 -0.2402  0.0664
  314POPC   GL2 4313   8.513   8.907   5.473 -0.3145  0.0159 -0.3689
  314POPC   C1A 4314   9.095   8.591   5.894  0.1368 -0.1765  0.0044
  314POPC   D2A 4315   9.193   8.557   6.332 -0.0446 -0.1172 -0.2467
  314POPC   C3A 4316   8.972   8.210   6.559  0.0212 -0.0959  0.0820
  314POPC   C4A 4317   8.618   7.957   6.474  0.1242  0.3039 -0.3652
  314POPC   C1B 4318   8.225   8.868   5.700  0.2378 -0.2292  0.1664
  314POPC   C2B 4319   8.214   8.731   6.154 -0.0453 -0.0927  0.0371
  314POPC   C3B 4320   8.268   8.810   6.556  0.2102  0.1415 -0.1692
  314POPC   C4B 4321   8.573   8.554   6.776  0.0713  0.5194 -0.0005
  315POPC   NC3 4322   4.504   3.681   4.871  0.1840  0.1787  0.1409
  315POPC   PO4 4323   4.517   3.734   5.326  0.1972 -0.3145  0.0447
  315POPC   GL1 4324   4.460   3.857   5.768 -0.2229 -0.2311 -0.0145
  315POPC   GL2 4325   4.298   3.655   5.967  0.0000 -0.3442 -0.2905
  315POPC   C1A 4326   4.511   4.053   6.203 -0.1830 -0.1595 -0.0715
  315POPC   D2A 4327   4.621   4.021   6.607 -0.2828  0.0241  0.2362
  315POPC   C3A 4328   4.912   4.337   6.794 -0.1847 -0.0253 -0.0507
  315POPC   C4A 4329   4.653   4.651   7.072 -0.0254 -0.1350 -0.4005
  315POPC   C1B 4330   4.273   3.612   6.490  0.0877  0.2550  0.3188
  315POPC   C2B 4331   4.303   3.720   7.005  0.0144  0.1535 -0.1970
  315POPC   C3B 4332   4.566   4.093   7.100 -0.2822 -0.1121  0.2291
  315POPC   C4B 4333   4.845   4.185   7.497  0.0463 -0.1503  0.0555
  316POPC   NC3 4334   8.339   4.002   4.885  0.2941  0.0866  0.0788
  316POPC   PO4 4335   8.635   3.674   5.092 -0.2841 -0.0209  0.0384
  316POPC   GL1 4336   8.868   3.751   5.588 -0.4300 -0.5932  0.2336
  316POPC   GL2 4337   8.985   3.535   5.786 -0.1155  0.0694 -0.1767
  316POPC   C1A 4338   8.906   3.875   6.127  0.1576 -0.2324  0.2990
  316POPC   D2A 4339   8.803   4.040   6.502 -0.0600  0.2673  0.1625
  316POPC   C3A 4340   8.708   3.702   6.751  0.1244  0.1114  0.0214
  316POPC   C4A 4341   8.586   3.494   7.015 -0.2439 -0.0237 -0.2539
  316POPC   C1B 4342   9.081   3.441   6.270  0.1705  0.1514 -0.0175
  316POPC   C2B 4343   9.104   3.374   6.664 -0.2481 -0.0529  0.2496
  316POPC   C3B 4344   8.871   3.079   7.027  0.2812  0.0029  0.0742
  316POPC   C4B 4345   9.174   2.851   7.021  0.0981 -0.0914  0.1690
  317POPC   NC3 4346   1.613   2.015   4.703  0.1443 -0.2763 -0.3032
  317POPC   PO4 4347   1.670   2.204   5.079  0.1000  0.1167 -0.3016
  317POPC   GL1 4348   1.319   2.132   5.428  0.4332  0.0530 -0.1276
  317POPC   GL2 4349   1.185   2.343   5.608 -0.1360 -0.0242 -0.0301
  317POPC   C1A 4350   1.527   1.909   5.760 -0.1460 -0.2129 -0.0593
  317POPC   D2A 4351   1.798   1.739   6.143 -0.0849  0.0774  0.0080
  317POPC   C3A 4352   1.630   1.909   6.542  0.0814  0.2323  0.2829
  317POPC   C4A 4353   1.658   2.194   6.954 -0.0097 -0.2916 -0.2577
  317POPC   C1B 4354   1.204   2.139   6.066 -0.1131 -0.2837 -0.0798
  317POPC   C2B 4355   1.179   2.132   6.544 -0.2918 -0.2017 -0.0881
  317POPC   C3B 4356   1.071   1.971   6.970 -0.2235 -0.1967  0.1945
  317POPC   C4B 4357   0.950   1.666   7.265  0.0159  0.1062  0.1863
  318POPC   NC3 4358   2.027   3.816   5.369 -0.1302  0.2087  0.3351
  318POPC   PO4 4359   1.876   4.057   5.691 -0.1673  0.4177  0.0887
  318POPC   GL1 4360   1.960   3.833   6.087 -0.3163  0.1684  0.2057
  318POPC   GL2 4361   2.275   3.909   6.289 -0.0598  0.0575 -0.0001
  318POPC   C1A 4362   1.992   3.528   6.312  0.0621 -0.1989 -0.1045
  318POPC   D2A 4363   2.103   3.313   6.714 -0.0650 -0.0934 -0.3254
  318POPC   C3A 4364   2.037   2.955   6.852  0.1806  0.1872  0.0287
  318POPC   C4A 4365   1.934   2.850   7.300  0.0462 -0.2640 -0.0670
  318POPC   C1B 4366   2.531   3.711   6.574 -0.0988 -0.1047 -0.0981
  318POPC   C2B 4367   2.654   3.423   6.835 -0.1447  0.1678 -0.0786
  318POPC   C3B 4368   2.371   3.249   7.226 -0.1797 -0.5636  0.3031
  318POPC   C4B 4369   2.332   2.916   7.535 -0.3842 -0.0074 -0.2929
  319W        W 4370   0.977   2.009   3.886 -0.1650  0.0616  0.2126
  320W        W 4371   1.216   3.430  13.703  0.1117 -0.2799 -0.2903
  321W        W 4372   9.271   3.783   4.884 -0.0678  0.1443  0.1243
  322W        W 4373   1.098  10.053   0.717 -0.0820  0.1238  0.2490
  323W        W 4374   6.312   3.630   0.191 -0.1208  0.1212 -0.1150
  324W        W 4375   6.307   6.172  10.399 -0.0368  0.3029  0.0552
  325W        W 4376   7.039   0.960  13.747 -0.2502  0.0414 -0.0698
  326W        W 4377   7.407   7.725   5.511  0.2038 -0.0978  0.3049
  327W        W 4378   5.107   7.786   2.326  0.1839  0.0911 -0.4298
  328W        W 4379   3.882   4.793   4.826 -0.1817  0.2017 -0.1114
  329W        W 4380   3.224   6.755  10.083 -0.0793  0.0536 -0.1823
  330W        W 4381   3.938   3.784   0.106  0.0512  0.0549  0.0507
  331W        W 4382   1.073   4.125   1.292 -0.0550  0.0521  0.0074
  332W        W 4383   4.457   6.097  10.716  0.1078 -0.0340  0.0774
  333W        W 4384   7.334   8.825  11.810 -0.2502 -0.2338  0.2441
  334W        W 4385   9.714   8.503  11.909 -0.2871 -0.1509 -0.1394
  335W        W 4386   4.745   5.230   2.963  0.2039 -0.1526  0.0705
  336W        W 4387   7.774   5.326  11.419  0.1781  0.0371  0.1883
  337W        W 4388   6.470   4.288  11.513  0.0531 -0.0747 -0.0829
  338W        W 4389   4.072   9.865   9.873 -0.2414  0.0355 -0.0141
  339W        W 4390   3.755   3.375   1.917  0.2108  0.0352 -0.1324
  340W        W 4391  10.002   3.062   1.498 -0.1721  0.1261  0.2498
  341W        W 4392   1.231   1.088   4.432  0.0373  0.1230  0.0276
  342W        W 4393   1.996   6.802  13.547  0.2207  0.0802  0.3726
  343W        W 4394   8.481   8.604  12.437 -0.0830  0.3229  0.0309
  344W        W 4395   3.527   4.045   0.990 -0.1502  0.0683  0.0909
  345W        W 4396   5.924   6.598   9.466  0.3175  0.2331 -0.0890
  346W        W 4397   0.365   6.072  11.439  0.2048  0.0195 -0.3129
  347W        W 4398   2.920   6.703   3.769  0.1916  0.4773 -0.1021
  348W        W 4399   7.588   2.087   2.558  0.0982  0.1777 -0.0322
  349W        W 4400   3.770   8.534   2.061  0.2250  0.0699  0.1952
  350W        W 4401   1.010   1.523   4.806 -0.2578 -0.0803 -0.2407
  351W        W 4402   8.196   8.361  11.058 -0.2695  0.0812  0.0895
  352W        W 4403   1.114   2.522  11.067  0.1924 -0.1848 -0.0250
  353W        W 4404   3.940   0.528   4.646 -0.0294 -0.2303  0.2046
  354W        W 4405   9.094   2.262  10.929 -0.1009 -0.4650  0.1319
  355W        W 4406   8.121   3.340   2.831  0.1126 -0.2734  0.0540
  356W        W 4407   4.191   7.090   5.421  0.0156 -0.3892  0.0645
  357W        W 4408   6.815   0.856  11.019  0.0296 -0.3658 -0.1867
  358W        W 4409   5.172   9.285   1.892 -0.1212 -0.0034 -0.0466
  359W        W 4410   1.781   1.038  13.307 -0.1677  0.2085  0.0949
  360W        W 4411   8.268   2.490   3.875  0.3956  0.1318 -0.2642
  361W        W 4412   7.619   4.484  10.980  0.0118 -0.1996 -0.3410
  362W        W 4413   9.320   1.538   2.577 -0.0546 -0.2386  0.1161
  363W        W 4414   9.415   8.181  12.214 -0.0689  0.0210  0.1130
  364W        W 4415   8.306   9.202   0.840  0.2802  0.0233 -0.0287
  365W        W 4416   4.533   7.236  13.499  0.0627 -0.1916 -0.0709
  366W        W 4417   4.533   1.709   2.048  0.1617  0.0650  0.1601
  367W        W 4418   5.940   4.275  13.003  0.2391  0.1929  0.4817
  368W        W 4419   3.621   2.014   1.358 -0.1704  0.1707  0.1821
  369W        W 4420   2.134   6.498   3.629  0.1186 -0.0950  0.2900
  370W        W 4421   2.562   9.482  12.076 -0.0716 -0.2048  0.0526
  371W        W 4422   4.356   3.382  10.608  0.2288  0.1389  0.3190
  372W        W 4423   5.272   5.268   9.572  0.0498 -0.2161 -0.2731
  373W        W 4424   6.576   2.034   2.368 -0.5780 -0.0526  0.1309
  374W        W 4425   8.762   8.410   4.600 -0.2827  0.0547  0.0757
  375W        W 4426   6.099   9.192  12.590  0.3430  0.0189 -0.1472
  376W        W 4427   0.980   4.425   3.917 -0.1822  0.0083 -0.2170
  377W        W 4428   0.295   9.921   9.604 -0.0365 -0.2736  0.0773
  378W        W 4429   1.231   0.433   2.252 -0.2034 -0.1643 -0.3017
  379W        W 4430   0.214   7.912  10.773  0.0131  0.0684  0.1536
  380W        W 4431   0.950   3.909   2.248 -0.1299 -0.0844 -0.0657
  381W        W 4432   0.922   3.291   3.606  0.3677 -0.0657  0.0362
  382W        W 4433   8.113  10.093   0.488  0.0178 -0.3126 -0.1180
  383W        W 4434   7.283   8.785   3.772 -0.5351 -0.1676  0.0477
  384W        W 4435   3.629   1.531   2.277 -0.1368 -0.0864  0.1225
  385W        W 4436   1.193   9.427  12.557  0.0674  0.0086  0.1282
  386W        W 4437   8.603   7.517  13.865 -0.3540  0.0143  0.1594
  387W        W 4438   5.430   4.723   0.241  0.0643 -0.2007  0.0696
  388W        W 4439   3.832   3.615  11.376 -0.1141 -0.0699  0.0905
  389W        W 4440   2.619   7.839  11.561 -0.0921  0.0008 -0.1801
  390W        W 4441   8.962   7.085  13.604  0.0270  0.2074  0.0517
  391W        W 4442   6.774   5.696   4.184  0.0283  0.3328  0.0139
  392W        W 4443   1.113   6.236   1.975 -0.3043  0.1575  0.0669
  393W        W 4444   4.206   7.781  11.649  0.0973  0.0015  0.2619
  394W        W 4445   7.512   5.070   4.141  0.2235 -0.0020 -0.1796
  395W        W 4446   2.127   1.686  10.633  0.1741 -0.0073 -0.0145
  396W        W 4447   7.005   8.393   4.052 -0.3702  0.0457 -0.2112
  397W        W 4448   5.955   5.920   0.305  0.2796  0.0176  0.0389
  398W        W 4449   5.431   6.307  10.802  0.3240  0.3133  0.3809
  399W        W 4450   7.001   7.680   0.840  0.0674 -0.0864  0.2432
  400W        W 4451   2.930   3.248   0.200  0.2448  0.1309 -0.0855
  401W        W 4452   6.661   1.043   0.373 -0.0724  0.0480  0.1145
  402W        W 4453   4.001   3.836   1.510  0.4024  0.1631 -0.0322
  403W        W 4454   5.329   3.611   3.158 -0.2199  0.1076  0.0572
  404W        W 4455   9.709   8.437  11.264  0.1882  0.1072  0.0488
  405W        W 4456   4.285   6.046   1.818 -0.2187  0.0912  0.0871
  406W        W 4457   1.344   2.643   1.491 -0.1096  0.1547  0.0351
  407W        W 4458   3.091   2.237   9.668 -0.1967  0.2271 -0.1887
  408W        W 4459   2.382   6.451   9.678 -0.2562  0.1018  0.1352
  409W        W 4460   3.596   0.552  12.251 -0.0611  0.0317  0.3650
  410W        W 4461   9.483   0.146   1.860  0.1299 -0.1299 -0.0073
  411W        W 4462   9.627   3.496   9.654 -0.2309  0.0394 -0.1218
  412W        W 4463   9.806   8.673   0.540  0.1806 -0.0968 -0.2150
  413W        W 4464   6.475   0.605   2.003  0.2276 -0.0990 -0.1715
  414W        W 4465   9.158   8.217  10.127  0.0593  0.2067 -0.1967
  415W        W 4466   1.711   3.642   0.766  0.0957  0.0068  0.0059
  416W        W 4467   2.781   9.561   1.962  0.1987  0.3980  0.0587
  417W        W 4468   6.528   5.325  12.488 -0.2061 -0.3556 -0.1167
  418W        W 4469   9.808   1.233  11.636  0.0769 -0.4839  0.3402
  419W        W 4470   0.757   3.586  10.136 -0.4378  0.2009 -0.0203
  420W        W 4471   7.616   6.751   3.493  0.2308  0.1611 -0.1183
  421W        W 4472   2.784   2.296  11.363 -0.0992  0.2222  0.1312
  422W        W 4473   8.985   4.327   0.867  0.1361 -0.1007  0.1393
  423W        W 4474   0.008   7.909   3.576 -0.0449 -0.0517  0.0494
  424W        W 4475   6.820   8.974  10.803 -0.2435 -0.0727 -0.1831
  425W        W 4476   8.572   0.105  11.966  0.0397 -0.4679  0.1664
  426W        W 4477   4.094   3.968  13.299 -0.3070 -0.1699  0.2287
  427W        W 4478   2.588   0.585   2.639 -0.2949 -0.3349  0.0531
  428W        W 4479   3.731   8.022  13.715  0.2265  0.3569 -0.3368
  429W        W 4480   8.408   6.451  10.414  0.0748  0.1235  0.3930
  430W        W 4481   0.274   0.134  11.746  0.0778  0.0860  0.0442
  431W        W 4482   9.879   2.803  13.841 -0.0617 -0.2520 -0.2092
  432W        W 4483   2.975   9.654   1.106 -0.0931 -0.0923  0.0318
  433W        W 4484   0.316   9.560   3.060 -0.0098  0.0632  0.3530
  434W        W 4485   2.310   2.550   9.289  0.6259  0.0281  0.1401
  435W        W 4486   8.864   3.046  12.201  0.3848  0.3221 -0.0176
  436W        W 4487   7.570   0.669   5.076  0.1017  0.1869  0.2388
  437W        W 4488   9.007   2.520   2.623  0.3083 -0.0383  0.1865
  438W        W 4489   9.367   9.983   1.546 -0.1248  0.2089  0.0851
  439W        W 4490   4.262   0.505   1.368 -0.1527 -0.3395 -0.3494
  440W        W 4491   6.492   5.830   2.300 -0.0755  0.2024 -0.1770
  441W        W 4492   4.778   7.949  10.663 -0.0761 -0.0929 -0.0029
  442W        W 4493   5.560   9.323   4.338 -0.1620 -0.2549  0.0044
  443W        W 4494   2.028   1.914   4.441  0.3149  0.2551  0.4772
  444W        W 4495   9.270   3.176  10.330  0.0970 -0.0021 -0.1735
  445W        W 4496   4.570   4.036   3.512  0.0918 -0.0639  0.1835
  446W        W 4497   0.753   2.400  10.265 -0.0964  0.2659  0.2260
  447W        W 4498   4.189   2.113   2.116 -0.0780  0.0959 -0.0590
  448W        W 4499   7.877   6.661  10.799 -0.1827  0.0836 -0.1310
  449W        W 4500   3.695   3.115  13.906  0.1513 -0.1173 -0.2077
  450W        W 4501   7.638   7.469   2.622  0.1439 -0.0557  0.2074
  451W        W 4502   6.122   8.399   1.770 -0.1219 -0.2108  0.2450
  452W        W 4503   1.876   4.204   0.659 -0.2537 -0.3506  0.2067
  453W        W 4504   4.402   5.774  10.311  0.0790  0.1751 -0.0604
  454W        W 4505   7.026   5.390  12.704 -0.2345 -0.0004  0.1272
  455W        W 4506   2.822   9.977  11.484  0.0970  0.2085  0.2147
  456W        W 4507   3.937   5.522  10.295  0.3652  0.1781 -0.2680
  457W        W 4508   3.547   7.667   1.849 -0.0994 -0.0522 -0.0133
  458W        W 4509   8.453   5.384  13.932  0.1888  0.0566 -0.2209
  459W        W 4510   2.021   9.359   3.147 -0.4855  0.0216  0.3484
  460W        W 4511   1.014   0.586  13.230  0.0576 -0.2618  0.0949
  461W        W 4512   2.315   7.511   1.090  0.3718  0.0211  0.0845
  462W        W 4513   1.488   1.729  12.014  0.2008  0.0016 -0.0323
  463W        W 4514   1.614   5.176   3.555 -0.2447 -0.0645 -0.5360
  464W        W 4515   2.417   6.570   1.483  0.1012  0.0928 -0.0513
  465W        W 4516   6.785   0.648   5.584  0.0967  0.0784 -0.0618
  466W        W 4517   1.501   2.204  11.221 -0.0982  0.1306  0.2633
  467W        W 4518   7.354   0.416   3.749 -0.2958  0.0249  0.1790
  468W        W 4519   3.178   7.688  10.474  0.0678 -0.2348 -0.1521
  469W        W 4520   1.746   4.991   2.312 -0.0522  0.3308 -0.1973
  470W        W 4521   7.729   8.530  11.286  0.0462  0.0665  0.0155
  471W        W 4522   0.235   0.652  12.544 -0.3232 -0.4628 -0.0649
  472W        W 4523   4.237   0.640   9.658  0.0764  0.2574  0.1381
  473W        W 4524   3.840   8.340  10.688  0.2457 -0.1812  0.1746
  474W        W 4525   6.812   2.023  12.495 -0.0700  0.0372  0.1159
  475W        W 4526   4.648   7.407   1.880  0.0717  0.1472 -0.2801
  476W        W 4527   9.895   8.590   3.731 -0.0180  0.0632 -0.1414
  477W        W 4528   1.622   4.003   2.940 -0.0059 -0.0163  0.4647
  478W        W 4529   8.997  10.053   4.512 -0.2786 -0.3564  0.0057
  479W        W 4530   4.228   4.189   4.397  0.0947 -0.3022 -0.2052
  480W        W 4531   2.954   8.866   1.708 -0.1394  0.1510  0.0409
  481W        W 4532   1.412   5.854   2.067 -0.1094  0.1341 -0.0402
  482W        W 4533   2.736   2.807   3.808  0.0864 -0.1874  0.2465
  483W        W 4534   4.980   4.466  13.246  0.0915 -0.4224 -0.0427
  484W        W 4535   0.698   5.380  10.607 -0.0332  0.1232  0.3789
  485W        W 4536   0.255   5.088   2.488  0.2544  0.0550  0.2960
  486W        W 4537   9.356   7.339   2.610 -0.1893  0.1520  0.0303
  487W        W 4538   6.996   1.335  11.628  0.3581  0.2578  0.0285
  488W        W 4539   3.080   5.519  10.726  0.3298 -0.1384 -0.2052
  489W        W 4540   4.662   1.847   3.185 -0.2286  0.0240  0.0912
  490W        W 4541   1.663   2.922   1.788 -0.2487  0.0558  0.1263
  491W        W 4542   0.647   0.396   3.108  0.0510 -0.0226 -0.3083
  492W        W 4543   7.943   8.510  13.920 -0.2228  0.0266 -0.0974
  493W        W 4544   0.602   5.952   1.316 -0.3296 -0.0636  0.0776
  494W        W 4545   6.868   1.566   4.552 -0.0439 -0.0559  0.2271
  495W        W 4546   2.321   6.113   0.552 -0.1772  0.2030 -0.1723
  496W        W 4547   7.269   0.172   4.572 -0.0249  0.3615  0.1041
  497W        W 4548   8.728   6.591  12.967 -0.2344  0.2408 -0.0479
  498W        W 4549   1.093   2.341   1.894 -0.0381 -0.2188  0.1156
  499W        W 4550   0.513   6.504  11.547 -0.1019 -0.1209  0.1231
  500W        W 4551   1.070   2.158   2.960  0.1601 -0.2506 -0.2774
  501W        W 4552   3.106   0.407   3.792 -0.1822 -0.0400  0.2903
  502W        W 4553   6.078   7.327   0.064  0.0411  0.1391  0.1215
  503W        W 4554   0.532   1.914   2.062  0.0718  0.0997 -0.1647
  504W        W 4555   3.546   1.809   2.801 -0.0766  0.0102 -0.0132
  505W        W 4556   7.139   1.349   2.160 -0.3672  0.0269 -0.1632
  506W        W 4557   6.343   1.714   0.415 -0.0104  0.2676 -0.1604
  507W        W 4558   6.291   6.693   2.832  0.2023  0.2106  0.0684
  508W        W 4559   3.535   1.495   4.578  0.0316  0.3538  0.0711
  509W        W 4560   5.849   4.859  11.244 -0.1296 -0.0575 -0.0936
  510W        W 4561   4.399   2.098  11.035  0.1732  0.1066 -0.0725
  511W        W 4562   4.669   6.905   9.862 -0.2231  0.3124 -0.0797
  512W        W 4563   2.539   1.571   2.074 -0.1088  0.4014 -0.0297
  513W        W 4564   2.329   8.622   1.974 -0.0198 -0.1000  0.1175
  514W        W 4565   5.098  10.137  12.801 -0.3369 -0.0627  0.0807
  515W        W 4566   0.137   7.175   3.357  0.1476  0.3286 -0.0216
  516W        W 4567   2.099   3.326  12.767  0.3744  0.0449  0.1655
  517W        W 4568   1.144   9.084   1.196  0.1266 -0.3147 -0.4082
  518W        W 4569   1.385   7.872   6.571  0.0776  0.0857 -0.0111
  519W        W 4570   3.997   2.486  11.152 -0.1777 -0.1688  0.0585
  520W        W 4571   9.505   4.518   3.189  0.1969 -0.0604 -0.0639
  521W        W 4572   4.201   8.377   0.300 -0.5267  0.3059  0.1141
  522W        W 4573   7.685   6.967  13.375  0.1535  0.1233 -0.0062
  523W        W 4574   1.452   2.756  12.552 -0.3228 -0.1057  0.1285
  524W        W 4575   5.640   7.877   2.587  0.0331  0.0118 -0.0709
  525W        W 4576  10.019   0.609   1.931  0.2896 -0.0285  0.2105
  526W        W 4577   8.160   0.180   4.872  0.2499 -0.1436  0.0791
  527W        W 4578   5.146   2.558   5.424  0.0864  0.1007 -0.0531
  528W        W 4579   2.723   8.917  10.521 -0.3611 -0.1837 -0.3171
  529W        W 4580  10.158   0.900  11.474  0.2821  0.0476  0.1250
  530W        W 4581   9.197   5.910  12.563 -0.2457 -0.0173  0.0828
  531W        W 4582   3.264   7.611   0.839  0.3732 -0.3255 -0.1109
  532W        W 4583   5.118   5.092   0.435 -0.0226  0.1288 -0.1128
  533W        W 4584   0.858   1.539  10.840 -0.0956  0.0645 -0.2163
  534W        W 4585   1.522   7.043   3.293  0.0116  0.0044 -0.1394
  535W        W 4586   0.338   4.635   1.429 -0.1787  0.0666 -0.0461
  536W        W 4587   6.701   4.424  11.027 -0.1178  0.1193  0.0353
  537W        W 4588   7.050   3.575  10.107  0.1021  0.0313 -0.3888
  538W        W 4589   3.555   0.820  10.680 -0.0168  0.3968 -0.2097
  539W        W 4590   5.173   6.119  12.263  0.0432  0.0642  0.4413
  540W        W 4591   3.640   9.818   0.584  0.0568 -0.1935 -0.0119
  541W        W 4592   9.584   0.562  13.638  0.1101  0.0389 -0.1650
  542W        W 4593   2.217   5.866   1.581 -0.0569  0.3343 -0.3814
  543W        W 4594   4.447   7.594  12.716  0.0666  0.2153 -0.1731
  544W        W 4595   1.923   7.215   2.107  0.0839 -0.0516 -0.1055
  545W        W 4596   5.664   2.140   0.716  0.0571  0.2400  0.0045
  546W        W 4597   5.043   7.572  12.734 -0.1724  0.2830 -0.1088
  547W        W 4598   1.442   9.646  13.504  0.2481  0.0901  0.0429
  548W        W 4599   7.349   2.675  10.964 -0.0279 -0.0386 -0.0085
  549W        W 4600   2.337   4.223  11.233  0.2437  0.2861  0.0803
  550W        W 4601   1.299   4.669   4.395 -0.2026 -0.2667  0.3666
  551W        W 4602   1.598   9.922  11.302  0.2224 -0.1403  0.0935
  552W        W 4603   4.083   2.239  11.965 -0.3008  0.0171 -0.4435
  553W        W 4604   2.532   2.377   4.802  0.0015  0.0798 -0.0312
  554W        W 4605   3.067   4.681  11.192  0.0918 -0.0577 -0.2683
  555W        W 4606   0.253   2.944   0.174  0.0774  0.0356  0.2225
  556W        W 4607   5.986   2.448   4.918  0.2074 -0.1486 -0.0887
  557W        W 4608   6.615   7.406  11.871 -0.3114 -0.3204 -0.1287
  558W        W 4609   6.937   5.580   3.275  0.2151  0.1548  0.0714
  559W        W 4610   9.763   8.335   2.792 -0.1308  0.1383 -0.4228
  560W        W 4611   9.306   6.441   0.574  0.2031 -0.0090 -0.4295
  561W        W 4612   8.736   8.301   0.608 -0.1631  0.4777 -0.0478
  562W        W 4613   8.454   6.165   0.255  0.2306  0.1125 -0.1721
  563W        W 4614   6.220   1.977   2.839 -0.2541  0.2962  0.0765
  564W        W 4615   8.772  10.109   1.660 -0.0131  0.1234 -0.0155
  565W        W 4616   6.572   4.962   4.636  0.1716  0.0274  0.0333
  566W        W 4617   5.804   8.461   4.088  0.1590  0.2595 -0.1519
  567W        W 4618   7.664   0.181  10.999  0.4145 -0.3550  0.0936
  568W        W 4619   7.191   2.388   4.069 -0.0331 -0.2959  0.2343
  569W        W 4620   1.291   0.359  13.616 -0.3246 -0.2817 -0.0942
  570W        W 4621   2.762   5.622   5.210 -0.0730  0.0797 -0.0860
  571W        W 4622   4.938   4.063   8.970 -0.1367  0.1402 -0.3219
  572W        W 4623   5.090   8.756  11.370  0.0632 -0.1092  0.1419
  573W        W 4624   8.711   2.653  11.993 -0.0486 -0.0464 -0.2474
  574W        W 4625   7.038  10.076  13.804  0.1196  0.0337  0.2312
  575W        W 4626   0.901   1.439  13.434  0.0911 -0.1103 -0.0077
  576W        W 4627   5.756   4.204  10.996 -0.0579 -0.0263  0.0194
  577W        W 4628   8.338   7.740  13.511  0.1487  0.1882 -0.1578
  578W        W 4629   8.727   3.708   2.398  0.0997 -0.2328  0.1912
  579W        W 4630   9.439   3.571  10.604  0.1426 -0.0994 -0.0749
  580W        W 4631   4.743   1.161  12.701  0.3588 -0.0556  0.0758
  581W        W 4632   5.681   0.710   9.758  0.2388 -0.3008  0.3702
  582W        W 4633   3.067   6.957  13.865  0.2878 -0.0429 -0.1960
  583W        W 4634   4.051   4.385   1.483  0.1818 -0.2443  0.2495
  584W        W 4635   8.723   2.380  10.356 -0.0197 -0.1934  0.0138
  585W        W 4636   4.068   4.953   4.128  0.0648 -0.1955 -0.2358
  586W        W 4637   6.451   8.862   8.949  0.0529  0.1618  0.0749
  587W        W 4638   8.561   0.513  12.919  0.2106  0.1984 -0.2518
  588W        W 4639   0.847   6.708  11.878  0.3779  0.1175 -0.1177
  589W        W 4640   8.571   2.189   0.444 -0.0329 -0.2406  0.0275
  590W        W 4641   3.451   9.525   3.417 -0.1036 -0.0210 -0.1398
  591W        W 4642   1.493   4.914   9.934 -0.0306 -0.0631 -0.0276
  592W        W 4643   6.208   4.398   0.783  0.0276  0.4501 -0.2733
  593W        W 4644   8.668   4.179  11.411 -0.3991  0.1579 -0.0799
  594W        W 4645   7.598   1.498  12.565  0.3571  0.0723 -0.2777
  595W        W 4646   2.371   2.437  11.078 -0.1297 -0.1908  0.5248
  596W        W 4647   8.801   8.148   5.532  0.0037  0.1895 -0.3101
  597W        W 4648   5.714   2.299   2.097 -0.0931 -0.1599  0.1639
  598W        W 4649   5.785   4.273   0.225  0.0563  0.0034 -0.6080
  599W        W 4650   3.163   6.116   4.346  0.0163 -0.1499  0.1411
  600W        W 4651   0.131   8.675   0.427  0.2538  0.2943 -0.0152
  601W        W 4652   7.811   8.678  11.757 -0.2257  0.2949 -0.0278
  602W        W 4653   6.318   0.682  10.769  0.1159  0.0336  0.1966
  603W        W 4654   5.813   2.014   3.179 -0.0766  0.1740 -0.1115
  604W        W 4655   9.122   2.358   0.642  0.0072  0.0715  0.1166
  605W        W 4656   2.375   6.740   4.753  0.2039  0.2633  0.1682
  606W        W 4657   4.168   9.248  10.932  0.1540 -0.0983  0.1438
  607W        W 4658   3.098   8.416  11.092  0.0412  0.5129  0.3028
  608W        W 4659   2.092   4.295  11.721 -0.1730  0.0424 -0.1648
  609W        W 4660   4.274   7.385   0.231  0.1347 -0.0615  0.2575
  610W        W 4661   1.538   4.531   2.452  0.3826 -0.0595 -0.0245
  611W        W 4662   5.155   1.409  12.794  0.1591  0.1316  0.1897
  612W        W 4663   9.045   0.960  13.017  0.0338  0.3768  0.3904
  613W        W 4664   3.384   4.409   9.847 -0.1066 -0.1006 -0.0384
  614W        W 4665   2.811   6.569  10.363 -0.1417  0.1253  0.2877
  615W        W 4666   6.557   7.502   0.119  0.0005  0.0253 -0.1930
  616W        W 4667   0.719   5.003  12.344  0.0270 -0.3301 -0.0017
  617W        W 4668  10.123   4.472   1.772  0.0478  0.1438  0.1743
  618W        W 4669   0.542   3.036   2.686  0.1634  0.0663 -0.1789
  619W        W 4670   6.404   4.377   2.162  0.0542  0.0735  0.1983
  620W        W 4671   1.686   2.330  12.632 -0.2805  0.0682 -0.0662
  621W        W 4672   3.494   8.353   1.250 -0.0199 -0.0468  0.1274
  622W        W 4673   2.539   7.367   3.438 -0.0442 -0.0488  0.2849
  623W        W 4674   2.187   3.460  13.997  0.0807  0.0247 -0.1168
  624W        W 4675   0.980   4.693  12.088  0.0469 -0.0178  0.3879
  625W        W 4676   7.673   3.495   2.632 -0.0341 -0.2344  0.0141
  626W        W 4677   0.408   4.918  10.458  0.1816 -0.0085 -0.0451
  627W        W 4678   4.699   3.255   1.411 -0.1216 -0.3458 -0.5472
  628W        W 4679   4.691   6.860  10.355  0.0285 -0.2323 -0.0814
  629W        W 4680   1.811   4.397  10.294  0.0797 -0.1030 -0.0822
  630W        W 4681   0.690   9.448  10.477  0.0906  0.1949  0.0941
  631W        W 4682   6.365   0.167   9.512  0.2180  0.1462 -0.3775
  632W        W 4683   5.393   3.469  11.460  0.0250 -0.0851 -0.0373
  633W        W 4684   9.973   5.434   2.669 -0.3231 -0.2638 -0.1051
  634W        W 4685   2.887   8.460  10.540  0.0896 -0.3179 -0.0987
  635W        W 4686   8.941   5.106  12.982 -0.1845 -0.1281 -0.1280
  636W        W 4687   1.823   6.227   2.077  0.1683  0.0316 -0.4095
  637W        W 4688   2.985   5.013   0.817 -0.0332  0.0854 -0.2041
  638W        W 4689  10.107   4.491   0.028  0.0437  0.2400  0.0945
  639W        W 4690   0.469   7.769   3.743  0.2976  0.3003  0.1189
  640W        W 4691   8.041   6.196  10.752 -0.2360 -0.4078 -0.3226
  641W        W 4692   4.242   1.820  12.221 -0.2194  0.0660  0.1158
  642W        W 4693  10.059   2.833  13.356  0.0910 -0.0643  0.1248
  643W        W 4694   4.652   5.698   1.808 -0.1239  0.1717  0.3607
  644W        W 4695   1.920  10.171  12.223 -0.3767 -0.3384  0.0173
  645W        W 4696   3.207   3.434  12.652 -0.1850  0.1807  0.1310
  646W        W 4697   5.897   5.385   2.893 -0.1378  0.1655  0.0038
  647W        W 4698   1.493   6.680   0.319  0.3674 -0.1243 -0.0786
  648W        W 4699   1.221   6.619  10.554  0.3790  0.3202  0.0805
  649W        W 4700   0.394   1.788   2.559 -0.1947 -0.1314  0.1459
  650W        W 4701   6.485   2.268   4.930 -0.2646 -0.1233 -0.0826
  651W        W 4702   5.717   9.012  10.945  0.0805  0.3486  0.1990
  652W        W 4703   7.034   2.683   1.533 -0.0694 -0.0964  0.1197
  653W        W 4704   1.812   4.078   3.406 -0.1064 -0.0128  0.2051
  654W        W 4705   3.818   6.766  10.690  0.1282 -0.0269  0.4052
  655W        W 4706   3.267   9.422  13.124  0.0843 -0.2877 -0.0438
  656W        W 4707   3.028   1.193  13.443  0.2359  0.1330 -0.0322
  657W        W 4708   4.382  10.028  12.206 -0.0336  0.1155 -0.2855
  658W        W 4709   0.280   6.584   2.077 -0.0883 -0.0982  0.0947
  659W        W 4710  10.168   8.667   2.734  0.2741  0.0060 -0.0193
  660W        W 4711   7.762   1.124   2.729  0.0417  0.3202  0.0029
  661W        W 4712   4.749   4.199   2.571  0.1232  0.1222  0.0557
  662W        W 4713   3.361   4.503   1.960 -0.1702  0.2805  0.3481
  663W        W 4714   2.043   1.217  10.332 -0.1874 -0.1674 -0.1618
  664W        W 4715   3.897   1.157  10.877 -0.0748  0.2382 -0.0971
  665W        W 4716   0.397   7.196  10.267 -0.2226 -0.0040  0.1366
  666W        W 4717   2.825   5.689   4.035  0.0390  0.2221  0.1361
  667W        W 4718   6.551   3.440   2.640 -0.1852 -0.1762 -0.0534
  668W        W 4719   6.396   7.067  13.744  0.0537  0.2015  0.0536
  669W        W 4720   2.137   8.452   3.525  0.2482  0.0816  0.0135
  670W        W 4721   8.385   7.530   2.274  0.1106  0.0171 -0.0822
  671W        W 4722   2.883   6.875   2.835 -0.1436 -0.1092 -0.3419
  672W        W 4723   4.750   1.137   4.765 -0.1554  0.2169  0.0254
  673W        W 4724   7.188   8.256  13.556  0.0051  0.3079 -0.0197
  674W        W 4725   7.437   0.650   8.798  0.0042 -0.1181  0.2710
  675W        W 4726   9.325   5.449  12.466  0.0217  0.0997  0.0720
  676W        W 4727   1.689   7.897   1.587 -0.0732  0.3548  0.0862
  677W        W 4728   8.332   8.901  13.851  0.1768 -0.0108 -0.0310
  678W        W 4729   9.522   0.276   1.212  0.2375  0.2758 -0.0534
  679W        W 4730   2.024   6.014   3.516  0.0680 -0.2145 -0.2225
  680W        W 4731   7.318   3.596  13.473  0.1548 -0.2481 -0.2242
  681W        W 4732   2.686   5.175  13.023 -0.0565  0.1495 -0.0351
  682W        W 4733   3.490   2.042   2.371  0.0852 -0.0356  0.1055
  683W        W 4734   8.084   5.633   8.977 -0.2159  0.0221  0.2877
  684W        W 4735   8.378   3.530   4.708  0.0365  0.1534 -0.1416
  685W        W 4736   5.558   1.907  13.924  0.0673  0.0608 -0.0633
  686W        W 4737   1.008   1.138   3.952  0.0681 -0.3693  0.0273
  687W        W 4738   2.384   7.923  13.071  0.2344 -0.1602  0.1592
  688W        W 4739   0.672   0.759   3.925 -0.3459  0.1223  0.1728
  689W        W 4740   0.327   9.065   1.315 -0.0470  0.1433  0.1516
  690W        W 4741   6.878   1.959   9.694 -0.1318  0.1206 -0.1494
  691W        W 4742   1.209   7.752   0.517  0.1239  0.0884  0.2421
  692W        W 4743   4.015   8.295  12.420 -0.3268  0.0194 -0.0821
  693W        W 4744   2.154   5.806   2.188 -0.1295 -0.0277  0.0135
  694W        W 4745   1.229   6.666   3.550 -0.2867  0.1139  0.1209
  695W        W 4746   3.484   1.224   0.192  0.0609  0.2778  0.2059
  696W        W 4747   1.602   4.549  12.722 -0.1261 -0.2044  0.3094
  697W        W 4748   1.680   3.906   1.509 -0.2200 -0.2930  0.2264
  698W        W 4749   0.660   3.454  11.032  0.2051  0.1408 -0.0750
  699W        W 4750   1.014   2.858   4.984 -0.0797  0.0875 -0.0337
  700W        W 4751   2.114   8.801  11.772  0.0894  0.1253 -0.2494
  701W        W 4752   5.380   1.403   0.647  0.1048  0.2038 -0.1965
  702W        W 4753   3.793   7.413   0.534 -0.0676 -0.4489 -0.0814
  703W        W 4754   9.347   2.496   4.148  0.2045  0.3790  0.1944
  704W        W 4755   7.970   7.261  13.662  0.1280 -0.0266 -0.1141
  705W        W 4756   7.881   9.597  13.639 -0.1998 -0.1721 -0.1475
  706W        W 4757   7.707   5.562   0.079 -0.2603 -0.1028 -0.0908
  707W        W 4758   7.947   1.847   2.212  0.2932  0.0070 -0.0844
  708W        W 4759   5.551   0.870   1.507 -0.0159  0.1097 -0.0686
  709W        W 4760   8.365   4.329  10.459 -0.0381  0.1525 -0.1928
  710W        W 4761   3.645   6.514  11.305  0.3034 -0.2446  0.3313
  711W        W 4762   6.438   9.305   4.798  0.1577 -0.1436  0.0745
  712W        W 4763   6.895   9.169   2.571  0.0693 -0.1005  0.0904
  713W        W 4764   3.253   0.263   0.398  0.3116 -0.1338 -0.0662
  714W        W 4765   3.355   7.060   3.178 -0.2611  0.2004  0.0561
  715W        W 4766   8.810   4.443  10.717 -0.0744  0.0855 -0.1540
  716W        W 4767   1.428   5.351  13.079  0.1975  0.0180 -0.2880
  717W        W 4768   5.585   5.769   2.585 -0.1896  0.2209  0.1298
  718W        W 4769   5.987   0.304  13.788  0.0544 -0.1127 -0.2491
  719W        W 4770   7.041   1.631   5.817 -0.1253 -0.2122 -0.1039
  720W        W 4771   7.380   1.314  13.742 -0.1350 -0.0180 -0.2240
  721W        W 4772   6.284   7.557   2.338  0.1318 -0.0749  0.0049
  722W        W 4773   6.756   2.222   1.336 -0.2119 -0.1374 -0.0470
  723W        W 4774   9.616   1.371  12.241  0.1149 -0.0561  0.1447
  724W        W 4775   1.018   7.167   2.500 -0.2807  0.1978 -0.2838
  725W        W 4776   3.318   2.264   1.088 -0.1195 -0.0387  0.4690
  726W        W 4777   7.148   8.840   1.915  0.0303 -0.0862 -0.1296
  727W        W 4778   7.627   9.639  10.458 -0.0178 -0.0266  0.0861
  728W        W 4779   6.961   0.450   4.902 -0.1716 -0.0596  0.0015
  729W        W 4780  10.009   9.100   0.343  0.1999  0.3677  0.2122
  730W        W 4781   8.948   4.099   5.142 -0.0890 -0.1181 -0.0813
  731W        W 4782   6.680   7.682   1.847 -0.0279  0.3073  0.3187
  732W        W 4783   8.347   9.847   2.502 -0.3905  0.2716  0.0002
  733W        W 4784   6.016   1.704   8.809 -0.2879 -0.1024 -0.0851
  734W        W 4785   8.763   9.604   3.259 -0.3542  0.1822  0.0485
  735W        W 4786   2.001   1.758   2.134 -0.2303  0.0494 -0.0160
  736W        W 4787   8.070   1.047   3.500 -0.0271  0.1949 -0.1068
  737W        W 4788   5.361   8.183   3.650 -0.1395 -0.3375  0.1310
  738W        W 4789   8.065   1.470   1.868 -0.1482 -0.2891  0.4367
  739W        W 4790   9.310   7.465   1.317 -0.0507  0.0848 -0.1408
  740W        W 4791   8.306   0.270   3.708  0.0966  0.2218  0.1438
  741W        W 4792   9.147   1.758  13.450  0.3729  0.3116 -0.0948
  742W        W 4793   4.531   4.306  11.636  0.0846 -0.4892  0.2207
  743W        W 4794   1.964   3.050   0.933  0.0612 -0.2137  0.3567
  744W        W 4795   4.821   3.684   2.339 -0.0598 -0.1843 -0.0468
  745W        W 4796  10.140   1.446  11.301  0.0510  0.0936  0.2579
  746W        W 4797   5.589   3.056   1.055 -0.1469  0.0780  0.3067
  747W        W 4798   1.834   1.478   0.943 -0.2508  0.1795 -0.0298
  748W        W 4799   7.736   4.087  12.358 -0.1510 -0.0394 -0.1853
  749W        W 4800   7.924   5.176  10.058 -0.2098  0.0919 -0.3320
  750W        W 4801   0.928   7.937  13.483 -0.2627 -0.1767  0.1258
  751W        W 4802   0.767   0.668   0.605 -0.0477  0.1387 -0.0249
  752W        W 4803   8.071   8.905   3.435 -0.0728  0.1013  0.1348
  753W        W 4804   8.355   1.085   2.114 -0.1448 -0.0156 -0.0490
  754W        W 4805   0.024   6.436  13.504 -0.1383  0.0108 -0.0699
  755W        W 4806   5.612   6.254   5.409  0.0657 -0.0280  0.0239
  756W        W 4807   5.634   3.163   9.056 -0.1869  0.0422 -0.1319
  757W        W 4808   5.970   5.173   2.444  0.1466 -0.1398  0.2016
  758W        W 4809   8.627   0.233  12.527  0.2521  0.1123 -0.0444
  759W        W 4810   5.782   4.210   2.334 -0.0682 -0.2359 -0.2625
  760W        W 4811   2.359   8.642  10.241 -0.1526 -0.0186  0.0851
  761W        W 4812   1.568   3.364   1.874  0.0641  0.0449  0.0122
  762W        W 4813   4.801   5.747   3.056 -0.1382  0.1449  0.2737
  763W        W 4814   0.767   9.785   1.019 -0.1433 -0.2334  0.0648
  764W        W 4815   6.811   0.964   2.851  0.0335  0.4241  0.0731
  765W        W 4816   7.039   2.266  12.125 -0.3002  0.0259  0.1288
  766W        W 4817   0.881   8.223  13.944  0.0889 -0.1915 -0.0381
  767W        W 4818   2.071   2.039  12.726 -0.1255 -0.0776 -0.0311
  768W        W 4819   5.970   0.400  10.436 -0.2384 -0.1286  0.4375
  769W        W 4820   4.505   1.797   0.158  0.0342  0.0947 -0.1687
  770W        W 4821   3.969   2.901   2.224  0.2215 -0.2877 -0.0799
  771W        W 4822   1.967   2.280  11.364  0.0032 -0.1294  0.0099
  772W        W 4823   7.387   5.865   2.378  0.3774 -0.0877 -0.1772
  773W        W 4824   0.890   8.772   2.676 -0.2461  0.4929 -0.1215
  774W        W 4825   6.708   8.860   3.341 -0.0846 -0.1221 -0.1615
  775W        W 4826   6.445   1.497   9.348  0.0524 -0.0259 -0.0193
  776W        W 4827   5.056   6.421   2.114 -0.0889  0.1886 -0.1817
  777W        W 4828   8.811   1.114   2.638 -0.3099  0.2006 -0.2458
  778W        W 4829   2.448  10.049  10.981 -0.0829  0.3376 -0.0477
  779W        W 4830   6.079   1.367  12.053  0.0376 -0.2636  0.3463
  780W        W 4831   5.068   0.102   9.939 -0.2600  0.1831 -0.0356
  781W        W 4832   2.967   2.988  12.650  0.1696  0.1366  0.2039
  782W        W 4833   8.961   2.212  12.271 -0.2470  0.0753  0.1747
  783W        W 4834   0.242   1.811   1.670 -0.0544 -0.2047 -0.3509
  784W        W 4835   2.079   6.365   5.196  0.2671  0.1702  0.0051
  785W        W 4836   5.144   7.479  13.995  0.3699  0.0812  0.0738
  786W        W 4837   5.612   9.724   0.799  0.2063  0.3856 -0.2171
  787W        W 4838   2.580   0.224  12.268  0.2922 -0.2798  0.1160
  788W        W 4839   7.031   5.326  13.540 -0.1921 -0.3226 -0.0121
  789W        W 4840   8.547   8.561   0.234 -0.0954 -0.1220  0.0911
  790W        W 4841   0.240   0.468  11.412 -0.1609 -0.3164 -0.1488
  791W        W 4842   7.207   7.360   2.969  0.2923  0.1291  0.1262
  792W        W 4843   0.790  10.000  11.042  0.0987  0.0546  0.1293
  793W        W 4844   9.660   4.324  10.111 -0.1761 -0.1280 -0.2311
  794W        W 4845   0.916  10.136   3.290  0.1522  0.1277 -0.2613
  795W        W 4846   2.400   5.136  10.193 -0.0836 -0.0879 -0.2432
  796W        W 4847   3.759   2.804  13.258 -0.0967 -0.0118  0.2382
  797W        W 4848   9.111   7.037  10.847  0.5194  0.0532  0.3619
  798W        W 4849   7.028   2.846   3.573  0.0937 -0.0741  0.0557
  799W        W 4850   2.831   5.965   1.913 -0.1189 -0.1167 -0.0923
  800W        W 4851   3.285   2.395   2.064 -0.3333 -0.2757 -0.0382
  801W        W 4852   7.217   0.400   2.330  0.3903 -0.0194 -0.3414
  802W        W 4853   6.150   2.368  12.118 -0.0514 -0.2064  0.0604
  803W        W 4854  10.051   8.223   0.477 -0.0566  0.2571  0.1733
  804W        W 4855   8.602   0.587   1.919  0.0092  0.4529  0.2619
  805W        W 4856   2.248   6.920  12.024 -0.1122  0.0608  0.2387
  806W        W 4857   4.804   8.321  11.073 -0.0834 -0.3627  0.0822
  807W        W 4858   0.652   0.223  13.516 -0.0909  0.2480  0.1686
  808W        W 4859   0.655   2.378  10.778 -0.1498 -0.0837  0.0220
  809W        W 4860   3.935   8.584   1.586  0.0157  0.1888 -0.0074
  810W        W 4861   4.377   9.586  12.446 -0.3732 -0.1372  0.0968
  811W        W 4862   3.803   4.169  11.204 -0.1019 -0.2162  0.2503
  812W        W 4863   6.468   5.662  10.479 -0.1520  0.0183  0.2367
  813W        W 4864   6.676   7.641   2.714  0.0319 -0.2784 -0.2231
  814W        W 4865   8.889   5.739   5.405  0.0288  0.1103 -0.1497
  815W        W 4866   3.042   5.471   0.604  0.1066  0.1258 -0.1437
  816W        W 4867   5.264   1.874   0.509 -0.1853  0.0786 -0.0983
  817W        W 4868   0.498   0.307   1.677 -0.1308  0.0050 -0.1017
  818W        W 4869   9.899   7.120   3.092 -0.2209 -0.1705 -0.4934
  819W        W 4870   0.566  10.019   2.037  0.1386  0.0871 -0.1795
  820W        W 4871   2.290   3.041  13.579 -0.1733  0.0958 -0.1045
  821W        W 4872   5.268   7.419   4.634  0.0896 -0.2506 -0.2026
  822W        W 4873   3.976   6.336  10.959 -0.0504 -0.0304 -0.2664
  823W        W 4874   6.639   0.516   0.373  0.1150  0.3591  0.2023
  824W        W 4875   6.652   6.788   1.797  0.2096  0.1595 -0.1387
  825W        W 4876   8.733   0.717   2.954 -0.3224  0.0423  0.2057
  826W        W 4877   0.091   5.007   4.794  0.0867  0.2656 -0.2468
  827W        W 4878   8.621   9.751  11.858  0.0056 -0.2474  0.1753
  828W        W 4879   6.981   8.137   3.051 -0.3066  0.1741 -0.2486
  829W        W 4880   7.173   1.415   3.250  0.1784  0.0997 -0.3302
  830W        W 4881   3.926   5.584   4.895  0.5197  0.0440 -0.2064
  831W        W 4882   6.276   7.056  10.707 -0.1407 -0.0840  0.0269
  832W        W 4883   1.909   1.677   1.370  0.1879  0.0296 -0.0325
  833W        W 4884   8.511   3.880   0.721 -0.2057 -0.4548  0.1881
  834W        W 4885   2.252   3.437   8.586  0.1535  0.1771 -0.0252
  835W        W 4886   7.946   2.886   2.042  0.0501 -0.0825  0.0739
  836W        W 4887   8.294   1.724   4.510 -0.0046 -0.1496  0.0884
  837W        W 4888   2.887   2.685  11.012 -0.2097  0.0907  0.0126
  838W        W 4889   9.150   4.735  12.072 -0.0382  0.1257 -0.0331
  839W        W 4890   4.501   3.897   1.590 -0.1629  0.1650  0.1000
  840W        W 4891   4.356   5.642   3.632  0.0485 -0.0572 -0.0377
  841W        W 4892   1.497   9.444   1.908 -0.2352 -0.2656 -0.3156
  842W        W 4893   9.552   3.444  14.006 -0.1345 -0.0470 -0.1253
  843W        W 4894   0.755   3.268   4.025  0.0363  0.1251 -0.0081
  844W        W 4895   8.168   6.750   3.091 -0.0755 -0.2362  0.1094
  845W        W 4896   5.503   5.378   2.260  0.0324  0.1060 -0.2552
  846W        W 4897   8.827   3.261   9.966 -0.0133  0.0827 -0.0938
  847W        W 4898   2.765   1.763  11.229 -0.2028  0.1603  0.2847
  848W        W 4899   7.249   3.101  10.409  0.0881 -0.2800  0.2689
  849W        W 4900   9.593   7.145   0.276  0.3498 -0.0356  0.0496
  850W        W 4901   6.760   7.431   4.453  0.0448 -0.0818 -0.0074
  851W        W 4902   9.178   2.104   2.362  0.0759  0.0687  0.0003
  852W        W 4903   9.144   9.064  11.203 -0.2857 -0.0215  0.0069
  853W        W 4904   4.160   0.064  13.860  0.2825  0.1411  0.1919
  854W        W 4905   7.131   4.134  12.017 -0.0069  0.0684 -0.1222
  855W        W 4906   5.477   6.280   2.394  0.0637 -0.0487 -0.0884
  856W        W 4907   8.408   7.923   3.402  0.1357 -0.0092  0.0549
  857W        W 4908   1.631   9.345   1.348  0.2048  0.2800 -0.3075
  858W        W 4909   1.911   2.252   2.411 -0.3476 -0.4755  0.1597
  859W        W 4910   4.195   5.326  11.586 -0.0031 -0.2046 -0.1268
  860W        W 4911   7.283   7.880   0.407 -0.1775 -0.0343 -0.0021
  861W        W 4912   5.785   5.559   0.614  0.3337 -0.0390  0.3122
  862W        W 4913   8.491   3.011   0.742  0.1023  0.2381 -0.0494
  863W        W 4914   4.079   0.736  12.199  0.1395  0.1761  0.0860
  864W        W 4915   3.458   1.707  12.134 -0.2694 -0.0883 -0.0715
  865W        W 4916   0.821   2.034   9.278  0.0419 -0.1857  0.0190
  866W        W 4917   1.436   6.146   0.196 -0.1812 -0.1946  0.3233
  867W        W 4918   6.207   9.535  12.224  0.0084  0.1348 -0.1508
  868W        W 4919   2.116   5.142   4.795  0.0885 -0.3559  0.1232
  869W        W 4920   5.741   8.035  11.109  0.2401 -0.1413 -0.0909
  870W        W 4921   2.141   6.371   2.448 -0.0921  0.1385  0.2532
  871W        W 4922   8.870   4.474  11.723 -0.2721 -0.1614 -0.1372
  872W        W 4923  10.155   9.907  10.066 -0.2197  0.1669 -0.0532
  873W        W 4924   8.604   0.146   0.637  0.3092 -0.1017  0.0188
  874W        W 4925   4.432   2.648  13.661 -0.0747 -0.1162  0.1832
  875W        W 4926   8.271   6.977  12.981 -0.2923  0.0681 -0.1055
  876W        W 4927   4.814   4.248  11.981 -0.3636  0.0559 -0.2086
  877W        W 4928   1.967   2.905  11.454  0.0854 -0.2639 -0.0108
  878W        W 4929   6.086   6.886   1.879 -0.3046 -0.0747 -0.1086
  879W        W 4930   4.618  10.155   0.900  0.2563 -0.0472 -0.4188
  880W        W 4931   7.657   8.154  13.734  0.1909  0.1070 -0.0331
  881W        W 4932   1.172   3.749   1.745 -0.1177  0.2421  0.1889
  882W        W 4933   7.078   2.449   0.552 -0.0884  0.1093 -0.2633
  883W        W 4934   9.329   6.689  11.226  0.2387  0.1969  0.1998
  884W        W 4935   6.032   4.318   4.667  0.3568 -0.0482 -0.0470
  885W        W 4936   1.235   1.379  12.671 -0.0965 -0.1710  0.4076
  886W        W 4937   3.536   8.189  12.587 -0.2006  0.1664 -0.1201
  887W        W 4938   4.039   1.387   0.443  0.2540  0.0934  0.1366
  888W        W 4939  10.005   8.219  10.113 -0.2593 -0.1614  0.1892
  889W        W 4940   0.048   0.640   3.300 -0.0319  0.0333  0.2034
  890W        W 4941   3.305   0.680  11.098  0.2048 -0.3673  0.0409
  891W        W 4942   6.808   9.581  12.841 -0.2142 -0.1902 -0.0837
  892W        W 4943   6.799   2.147  11.507 -0.0613 -0.2244  0.0582
  893W        W 4944   7.785   2.981   2.495  0.1345  0.0707  0.4129
  894W        W 4945   0.659   9.168  13.869 -0.0971  0.0052  0.0506
  895W        W 4946   4.670   5.479   4.416 -0.0514  0.0693  0.1490
  896W        W 4947   9.764   6.914  10.569 -0.0056  0.1347  0.3440
  897W        W 4948  10.120   5.105  10.456 -0.1140 -0.0479  0.0864
  898W        W 4949   9.224   9.603   0.725 -0.5210  0.0469 -0.3606
  899W        W 4950   7.161   8.050  10.867  0.0541 -0.2500  0.4654
  900W        W 4951   8.025   9.927  13.295 -0.0948 -0.2467  0.3793
  901W        W 4952   3.940   5.446  11.143  0.0348 -0.2913  0.0513
  902W        W 4953   3.363   6.952   3.686  0.1803  0.1789  0.1629
  903W        W 4954   7.663   3.965  11.199  0.3214  0.2292  0.0810
  904W        W 4955   1.483   6.109   3.118  0.0803  0.0418  0.1806
  905W        W 4956   1.550   2.912   4.772 -0.0749 -0.1425  0.2391
  906W        W 4957   4.506   9.360  12.875 -0.0434  0.1937  0.0207
  907W        W 4958   7.441   8.319   0.819  0.4104 -0.1387 -0.2619
  908W        W 4959   4.812   9.347  10.184  0.0323 -0.0163 -0.1559
  909W        W 4960   9.433   3.960   9.729  0.1270  0.4111 -0.2397
  910W        W 4961   4.604   6.436  12.270 -0.1574 -0.1225 -0.5651
  911W        W 4962   5.044   1.235  12.314  0.0098 -0.2174  0.1240
  912W        W 4963   4.086   1.484   2.624 -0.3550 -0.5088  0.1949
  913W        W 4964   2.993   5.656   3.465 -0.0393  0.0727 -0.2655
  914W        W 4965   5.268   6.771   4.570  0.5210  0.0310  0.0547
  915W        W 4966   0.204   6.690   3.884 -0.1258 -0.1424 -0.1739
  916W        W 4967   2.067   5.397   3.563 -0.0664 -0.0247 -0.0417
  917W        W 4968   7.082   8.694  10.511 -0.3199  0.0851  0.0653
  918W        W 4969   9.356   7.563   0.437  0.1420 -0.1878  0.0395
  919W        W 4970   9.680   5.096   0.245  0.0507  0.0984  0.0572
  920W        W 4971   6.582   1.803  13.325  0.1169 -0.0255 -0.0248
  921W        W 4972   9.918   8.409   1.870  0.3371  0.4169 -0.0957
  922W        W 4973   6.479   6.035   0.123  0.0203 -0.1165 -0.1174
  923W        W 4974   5.952   5.618  11.942 -0.1154  0.1516  0.0087
  924W        W 4975   3.345   6.037  12.327  0.1679  0.2016 -0.1650
  925W        W 4976   4.553   4.132  13.031  0.1007  0.1251 -0.5682
  926W        W 4977   1.056   9.010  12.869  0.1867  0.0401 -0.2916
  927W        W 4978   9.683   7.642   2.245  0.0588  0.0771  0.1240
  928W        W 4979   5.722   5.376  12.914 -0.1214 -0.0075  0.2377
  929W        W 4980   8.318   2.365   3.342  0.2107 -0.0708 -0.1923
  930W        W 4981   7.702   9.093   3.662 -0.1911  0.1266  0.1092
  931W        W 4982   5.012   6.528   0.592 -0.2687 -0.2697  0.3560
  932W        W 4983   9.070   4.905   2.128 -0.3432  0.1580  0.2036
  933W        W 4984   6.525   2.713  13.603 -0.0400  0.1304  0.0193
  934W        W 4985   6.206   9.605   0.042 -0.0854  0.0702 -0.1052
  935W        W 4986   4.182   6.596   3.259 -0.1140 -0.1024  0.0842
  936W        W 4987   7.953   4.913  11.005  0.2295 -0.1880 -0.0759
  937W        W 4988   3.995   4.098   2.948  0.1372 -0.1197 -0.4669
  938W        W 4989   7.969   7.114   3.444  0.1814 -0.1295  0.2735
  939W        W 4990   5.922   5.913  12.722  0.1168  0.0908  0.1346
  940W        W 4991   1.239   9.477  13.067  0.1440 -0.1880 -0.0783
  941W        W 4992   3.050   3.338   3.123 -0.3546  0.0785  0.1141
  942W        W 4993   1.037   5.049  10.590 -0.1714 -0.0810 -0.0172
  943W        W 4994   3.023   3.481   5.704 -0.3577  0.1688  0.0329
  944W        W 4995   5.323   1.744   2.052 -0.2590  0.0245  0.1173
  945W        W 4996   7.651   7.974  12.180  0.0301  0.1804 -0.0741
  946W        W 4997   8.065   1.325  10.379 -0.0319 -0.1751 -0.1015
  947W        W 4998   5.866   5.465  12.458 -0.0719 -0.0213 -0.2076
  948W        W 4999   5.889   2.418  13.762 -0.2342  0.0336  0.1636
  949W        W 5000   7.168   9.739  11.410  0.2273 -0.2202 -0.1554
  950W        W 5001   0.906   7.408   0.740  0.1968  0.0791 -0.2548
  951W        W 5002   9.157   1.289   4.214  0.0810 -0.1215 -0.0709
  952W        W 5003   9.719   5.337   3.820 -0.3086  0.0403 -0.0017
  953W        W 5004   2.895   1.817  11.690  0.0857  0.0610  0.0623
  954W        W 5005   3.658   9.023   2.022  0.0354 -0.0032  0.0028
  955W        W 5006   4.088   0.407   2.896  0.1312 -0.0767 -0.0007
  956W        W 5007   5.398   2.042  10.746 -0.0184  0.0915  0.0629
  957W        W 5008   6.097   1.661   9.728 -0.0290 -0.2297  0.1880
  958W        W 5009   4.330   0.405   0.911  0.1028  0.0027 -0.1447
  959W        W 5010   7.166   3.656   0.243 -0.1236  0.1533 -0.2757
  960W        W 5011   3.157   0.065   4.172 -0.0695  0.3019  0.1256
  961W        W 5012   5.257   9.152  13.592 -0.0902 -0.2750 -0.2179
  962W        W 5013   8.622   3.546   1.370 -0.1685 -0.2385  0.1963
  963W        W 5014   9.036   1.749   1.203  0.1354 -0.0154 -0.0385
  964W        W 5015   9.379   5.544   1.025 -0.2341 -0.0268  0.1039
  965W        W 5016   0.860   2.499  13.481 -0.3460  0.1949 -0.0326
  966W        W 5017   6.829   6.276   2.839 -0.1147 -0.0318 -0.2716
  967W        W 5018   8.026   1.111   9.461  0.0093 -0.1103 -0.0047
  968W        W 5019   2.819   4.859   5.884 -0.2530  0.2360 -0.1717
  969W        W 5020   6.666   0.193  14.012  0.2036  0.0854  0.1319
  970W        W 5021   3.856   0.722   1.542  0.1085 -0.1152 -0.1177
  971W        W 5022   9.105   8.413   8.813 -0.1539 -0.0921 -0.0268
  972W        W 5023   1.244   2.234  12.517  0.2349 -0.1620 -0.0756
  973W        W 5024   7.057   9.726  13.241 -0.0074  0.4590 -0.0292
  974W        W 5025   4.266   8.844   0.100  0.0945 -0.0166  0.0178
  975W        W 5026   0.513   1.919  11.137 -0.0411  0.3883 -0.0312
  976W        W 5027   7.787   9.435   3.193 -0.1586  0.1809  0.2281
  977W        W 5028   6.563   1.877   3.665  0.2485  0.0387 -0.2946
  978W        W 5029   0.379   9.574   6.303 -0.2109  0.1083 -0.0825
  979W        W 5030   4.652   5.047   4.686 -0.3237  0.0876 -0.1700
  980W        W 5031   6.280   8.496  10.411  0.1916  0.0053 -0.4997
  981W        W 5032   6.768   7.829   4.802  0.0840 -0.1584 -0.1243
  982W        W 5033   4.440   3.213  13.197  0.1774  0.0555  0.1783
  983W        W 5034   2.775   6.458  11.946  0.2845  0.0858  0.1706
  984W        W 5035   2.193   8.883  13.945 -0.1122 -0.1181 -0.1140
  985W        W 5036   1.671   9.651   3.018  0.0847 -0.0716  0.4023
  986W        W 5037   9.360   3.073   1.413  0.2733  0.1123  0.4967
  987W        W 5038   8.627   3.109   3.934  0.0468 -0.0329  0.1776
  988W        W 5039   6.309   8.152  10.889  0.1715  0.3444  0.2527
  989W        W 5040   1.953   9.288   1.746 -0.2121  0.1217 -0.0635
  990W        W 5041   8.752   9.322   4.652 -0.0534 -0.1399  0.1557
  991W        W 5042   9.347  10.110   2.489  0.1976 -0.0870 -0.2521
  992W        W 5043  10.052   9.946   3.354  0.3281 -0.2978 -0.1792
  993W        W 5044   1.593   1.962   1.118  0.3864  0.4346 -0.4737
  994W        W 5045   8.147   8.761  13.407 -0.0436 -0.1930  0.1394
  995W        W 5046   3.189   8.709  11.837  0.4533  0.0009  0.0806
  996W        W 5047   5.885   1.447  10.755  0.3486 -0.1828  0.0239
  997W        W 5048   7.956   4.694   0.485 -0.0070 -0.1698  0.3167
  998W        W 5049   2.558   8.703  11.462  0.0386  0.0190  0.0748
  999W        W 5050   2.529   7.717   0.516  0.0662  0.0528 -0.2401
 1000W        W 5051   1.533   3.306  11.127  0.0922 -0.0019 -0.2475
 1001W        W 5052   5.297  10.159   0.134 -0.2253 -0.0899 -0.0540
 1002W        W 5053   5.083   2.545  12.105  0.0175  0.0894 -0.1878
 1003W        W 5054   0.070   0.131   2.515 -0.1649 -0.0502 -0.1904
 1004W        W 5055   2.528   3.514  10.283  0.1191  0.0176 -0.1762
 1005W        W 5056   8.641   7.786   1.634  0.1182 -0.1097 -0.2473
 1006W        W 5057   6.908   0.365  11.422 -0.2506  0.0796  0.0193
 1007W        W 5058   6.824   6.772  12.907  0.0237 -0.0423  0.2952
 1008W        W 5059   3.284   8.828  10.740 -0.1314  0.0185 -0.1893
 1009W        W 5060   3.567   3.839  11.720  0.3071 -0.0698  0.0175
 1010W        W 5061   2.015   0.318  10.276  0.2143  0.1429 -0.2134
 1011W        W 5062   1.822   8.252   1.159 -0.1509 -0.2041  0.3635
 1012W        W 5063   8.511   3.296   2.234 -0.4815 -0.3241 -0.3078
 1013W        W 5064   0.027   9.540  10.995 -0.2250 -0.0730  0.1621
 1014W        W 5065   8.577   2.226   1.678 -0.1589  0.0513  0.1444
 1015W        W 5066   5.782   6.047   4.332 -0.1302 -0.1485  0.0233
 1016W        W 5067   7.190   1.531  10.766 -0.1667 -0.2514  0.2126
 1017W        W 5068   2.403   6.464  10.750 -0.1767  0.0842 -0.0411
 1018W        W 5069   6.569   3.016  11.722  0.0104  0.2150 -0.3165
 1019W        W 5070   6.985   9.280   4.734 -0.0709  0.0165  0.2566
 1020W        W 5071   3.548   7.629  13.548  0.1164  0.1223  0.1739
 1021W        W 5072   1.081   4.224  11.745 -0.2116 -0.0148 -0.1129
 1022W        W 5073   7.225   2.847   3.147 -0.2608 -0.0195  0.0472
 1023W        W 5074   9.707   9.098  13.631 -0.0188 -0.3489 -0.0203
 1024W        W 5075   3.616   6.446   1.094  0.1716  0.1395  0.4221
 1025W        W 5076   3.607   4.222   3.279  0.2014 -0.1278  0.2129
 1026W        W 5077   0.568   8.979  12.535 -0.1337  0.0308 -0.1351
 1027W        W 5078  10.035   6.642  12.915  0.0873 -0.0033 -0.0141
 1028W        W 5079   1.984   4.656   4.935 -0.5166  0.0215 -0.0736
 1029W        W 5080   4.380   5.294   1.249  0.1828  0.3405  0.0325
 1030W        W 5081   4.557   4.918   9.745 -0.1210 -0.1103  0.1633
 1031W        W 5082   7.381   1.633   0.422 -0.4310  0.3773  0.0651
 1032W        W 5083   2.044   6.817   2.932 -0.2957 -0.0599  0.1291
 1033W        W 5084   1.749   4.441   0.160  0.3152 -0.0288  0.0262
 1034W        W 5085   0.885   9.565   1.967  0.0602  0.0164 -0.2437
 1035W        W 5086   5.502   5.116   9.162  0.0822  0.0592  0.1966
 1036W        W 5087   6.455   4.132   8.846  0.0831 -0.2837 -0.0362
 1037W        W 5088   1.396   7.346  12.351 -0.0102 -0.3212  0.1793
 1038W        W 5089   0.649   6.259  12.874  0.1335  0.2589  0.3605
 1039W        W 5090   7.031   9.693   3.836 -0.0311 -0.0622 -0.0370
 1040W        W 5091   9.986   1.730   4.202 -0.1126 -0.3101  0.0082
 1041W        W 5092   2.571   4.540   2.463  0.0186 -0.2411 -0.3141
 1042W        W 5093   0.866   2.972  11.270 -0.2479  0.0618 -0.1861
 1043W        W 5094   6.435   1.228   4.148 -0.2673  0.0211  0.0166
 1044W        W 5095   4.589   6.493   4.147 -0.1235 -0.0119  0.0897
 1045W        W 5096   9.955   2.597  10.833  0.4584 -0.0044  0.1551
 1046W        W 5097   3.366   3.519   1.020  0.0664  0.0515 -0.0246
 1047W        W 5098   4.483   1.268   0.566 -0.2851 -0.2066 -0.2198
 1048W        W 5099   5.040   2.118   3.395  0.2601 -0.0370 -0.1565
 1049W        W 5100   7.781   8.647   9.179 -0.0925  0.1464  0.3763
 1050W        W 5101   2.696   8.274  13.751 -0.1935 -0.2256  0.1126
 1051W        W 5102   7.726   8.562   3.555  0.0661 -0.2892  0.5713
 1052W        W 5103   3.177   9.079  13.873  0.0164 -0.0119  0.0855
 1053W        W 5104   8.952   6.556   4.038  0.2035  0.2626 -0.1659
 1054W        W 5105   6.347   7.325   3.440  0.0466 -0.1907 -0.0663
 1055W        W 5106   3.152   0.661   2.606 -0.0565 -0.2359  0.0041
 1056W        W 5107   9.418   2.371   0.219  0.0702  0.1955  0.0233
 1057W        W 5108   6.521   7.717   0.718 -0.1624 -0.0660  0.2035
 1058W        W 5109   4.211   5.594  10.757  0.3362  0.2401  0.3178
 1059W        W 5110   4.799   7.797   9.717  0.0374 -0.1346  0.1809
 1060W        W 5111   4.717   5.666  10.855  0.0655 -0.0238  0.3395
 1061W        W 5112   0.824   0.641  10.545  0.4531  0.3384 -0.1240
 1062W        W 5113   8.960   8.864   9.601  0.0369  0.2218 -0.1169
 1063W        W 5114   5.117   1.000   1.848 -0.2957  0.1696 -0.0023
 1064W        W 5115   6.431   6.339  13.159  0.1501 -0.1552 -0.2189
 1065W        W 5116   0.042   5.033   0.144 -0.1623  0.0163  0.1336
 1066W        W 5117   1.357   2.475   4.825  0.1735  0.4985 -0.2680
 1067W        W 5118   3.217   5.607   1.651  0.3773 -0.0757 -0.3465
 1068W        W 5119   8.885   4.955   0.611 -0.1960 -0.2321  0.0737
 1069W        W 5120   8.471   2.135   1.000 -0.2310  0.1788  0.3441
 1070W        W 5121   3.151   3.989   3.048 -0.1973 -0.3084  0.0098
 1071W        W 5122   6.163   5.891   4.705  0.0429  0.1618  0.0535
 1072W        W 5123   5.717   3.823   4.423  0.1500 -0.0147  0.0815
 1073W        W 5124   7.551   3.113   4.777  0.1259 -0.0534 -0.1312
 1074W        W 5125   4.469   6.836  13.862 -0.1727  0.1877 -0.0299
 1075W        W 5126   5.432   3.600  12.368 -0.1131 -0.0440  0.1448
 1076W        W 5127   9.353   6.214  13.428  0.3609 -0.0661 -0.1197
 1077W        W 5128   1.086   3.742  12.723  0.0744 -0.2877  0.0403
 1078W        W 5129   5.692   5.422   1.634  0.2396  0.3139  0.5672
 1079W        W 5130   6.337   6.390   0.977  0.2533 -0.0218 -0.0959
 1080W        W 5131   7.325   3.978   1.626 -0.1111  0.2611 -0.2123
 1081W        W 5132   3.993   4.634   2.699 -0.3381 -0.1446  0.0232
 1082W        W 5133   9.295   3.289  12.635  0.0300  0.2562 -0.1675
 1083W        W 5134   3.925   7.742   0.855 -0.1364 -0.2011 -0.0085
 1084W        W 5135   1.978   7.445   1.663  0.0069 -0.2623  0.0873
 1085W        W 5136   4.219   6.160   4.120 -0.0883 -0.1948 -0.0226
 1086W        W 5137   6.497   0.281   5.465  0.1882 -0.0336  0.1307
 1087W        W 5138   8.724   9.452   2.677  0.2708 -0.0627  0.3651
 1088W        W 5139   4.014   4.218   2.461 -0.0612 -0.0746  0.0520
 1089W        W 5140   6.932   4.057   5.578  0.1082 -0.0297 -0.0579
 1090W        W 5141   0.722   4.938   3.180  0.2037  0.0954  0.2101
 1091W        W 5142   5.672   7.823  10.380 -0.3172  0.1672 -0.0874
 1092W        W 5143   9.352   4.246  12.057  0.1709 -0.1456  0.0511
 1093W        W 5144   2.737   5.810  10.956  0.0851  0.0335 -0.2748
 1094W        W 5145   5.894   5.669   9.543  0.0922 -0.1615 -0.1226
 1095W        W 5146  10.082   1.274  13.172  0.1971  0.0898  0.0587
 1096W        W 5147   4.867   4.578   0.159 -0.1535  0.0189  0.2191
 1097W        W 5148   0.745   3.415   0.433  0.0969  0.0457 -0.0805
 1098W        W 5149  10.018   2.194  13.336 -0.0200 -0.0746  0.3381
 1099W        W 5150   3.819   1.944   5.481  0.0249 -0.0271 -0.2843
 1100W        W 5151   6.338   2.817   9.181  0.1552 -0.1366 -0.2818
 1101W        W 5152   6.907   1.548   3.666  0.1911 -0.0035 -0.1303
 1102W        W 5153   2.542   3.910  12.515 -0.4696  0.3243  0.0383
 1103W        W 5154   4.748   2.766  11.437 -0.0521 -0.5233 -0.0128
 1104W        W 5155   1.107   6.131   4.819  0.3140  0.1126 -0.3210
 1105W        W 5156   2.693   8.108  12.693  0.0457  0.1937 -0.1686
 1106W        W 5157   0.486   7.438  10.725  0.2641  0.1487 -0.1504
 1107W        W 5158   2.628   5.199   9.407  0.0768  0.0511 -0.0931
 1108W        W 5159   3.642   7.663  11.595 -0.0262 -0.0856 -0.1955
 1109W        W 5160   9.026   1.400   1.803  0.0886 -0.1033  0.3796
 1110W        W 5161   5.535   5.777   5.471  0.3376  0.3255 -0.0988
 1111W        W 5162   5.200   2.748  12.928 -0.0096 -0.0897  0.0963
 1112W        W 5163   7.489   1.128   9.381  0.3823  0.1355  0.0952
 1113W        W 5164   4.635   7.046  12.619 -0.0305  0.2539  0.3180
 1114W        W 5165   8.811   6.118   1.841  0.1561  0.1325  0.1107
 1115W        W 5166   1.974   9.785  12.798 -0.0497  0.1635  0.4835
 1116W        W 5167   1.673   1.715  12.528 -0.1715  0.1568  0.2176
 1117W        W 5168   7.803   5.105   0.724 -0.1209 -0.0996  0.0154
 1118W        W 5169   2.011   2.519   1.579 -0.0463 -0.1289 -0.0313
 1119W        W 5170   5.241   2.477  11.579  0.1062 -0.1652 -0.3804
 1120W        W 5171   8.758   6.403   2.279  0.0656 -0.0643 -0.3083
 1121W        W 5172   0.550   8.241   1.281 -0.0425  0.4618 -0.1234
 1122W        W 5173   2.311   9.598   1.668 -0.4232 -0.0338  0.1211
 1123W        W 5174   7.672   8.912   3.147 -0.4342  0.1538 -0.1982
 1124W        W 5175   0.681   5.832  13.307 -0.1202  0.4712 -0.0295
 1125W        W 5176   2.267   7.588  13.555 -0.0826 -0.0089  0.2207
 1126W        W 5177   3.267   0.999  11.565 -0.1859 -0.1140  0.2615
 1127W        W 5178   8.074   8.746   0.310  0.3240  0.1184 -0.1576
 1128W        W 5179   9.726   2.885  12.526  0.2272 -0.0931  0.0048
 1129W        W 5180   3.243   1.986  10.071 -0.0183  0.0042  0.0255
 1130W        W 5181   4.714   9.575   9.149 -0.2011 -0.1250  0.0843
 1131W        W 5182   8.123   0.686   3.910 -0.0540  0.0215  0.0478
 1132W        W 5183   9.486   6.886   9.508 -0.1169  0.2551 -0.0325
 1133W        W 5184   8.197   8.200   2.446  0.1284  0.2093  0.0277
 1134W        W 5185   6.126   7.990   1.032  0.0909  0.1288 -0.0531
 1135W        W 5186   3.985   2.016   2.525  0.0430 -0.0318  0.1893
 1136W        W 5187   2.473   5.712   3.686  0.0136 -0.0786 -0.0127
 1137W        W 5188  10.043   2.976   5.135 -0.3707  0.3642 -0.1133
 1138W        W 5189   6.535   1.542   1.481  0.1222  0.2501 -0.0555
 1139W        W 5190   2.672   3.918   1.756 -0.3591 -0.2559 -0.4000
 1140W        W 5191   9.723   6.360  11.873 -0.2138  0.3375 -0.0805
 1141W        W 5192   0.809   5.591  12.054  0.0069 -0.2572 -0.1906
 1142W        W 5193   5.935   6.385  12.595 -0.0874 -0.3044  0.0621
 1143W        W 5194   5.995   8.358  12.414 -0.1689  0.1865  0.2726
 1144W        W 5195   6.859   8.355  13.956 -0.0651  0.1429 -0.0455
 1145W        W 5196   6.061   5.624   1.133  0.2299 -0.1913  0.0626
 1146W        W 5197   8.753   3.764   4.037  0.0756 -0.1043  0.2594
 1147W        W 5198   0.132   1.520   9.407 -0.2179 -0.3154 -0.1418
 1148W        W 5199   5.166   3.487   0.236  0.1021  0.2144 -0.1660
 1149W        W 5200   6.275   3.746  13.254 -0.1174  0.1288  0.0618
 1150W        W 5201   4.129   1.029   1.270 -0.1683 -0.0258  0.1254
 1151W        W 5202   4.056   6.261   0.930  0.0878 -0.3442 -0.0433
 1152W        W 5203   9.010   3.798  11.039  0.1759  0.2141 -0.0613
 1153W        W 5204   9.039   5.354  13.431 -0.1522 -0.1713 -0.4680
 1154W        W 5205   0.977   7.489   1.324 -0.0433  0.1636 -0.0432
 1155W        W 5206  10.025   9.901  11.574 -0.3510 -0.1857  0.2048
 1156W        W 5207   9.992   3.997   1.560  0.0926 -0.2969 -0.5931
 1157W        W 5208   8.973   9.932  13.349  0.1103 -0.0272  0.0979
 1158W        W 5209   9.317   7.711   0.915 -0.1113  0.0542  0.2093
 1159W        W 5210   8.116   0.515   2.045 -0.1114  0.1342 -0.1560
 1160W        W 5211   4.282   5.098   5.155 -0.1448  0.2196  0.1914
 1161W        W 5212   7.159   7.399   0.186  0.1484  0.2399  0.2764
 1162W        W 5213   3.701   7.399   2.335 -0.1951  0.0407  0.1389
 1163W        W 5214   8.161   4.757   3.752 -0.1285 -0.2549  0.0552
 1164W        W 5215   4.596   2.363   0.993 -0.3104 -0.2163 -0.0449
 1165W        W 5216   6.314   7.510  11.005 -0.2401  0.1489 -0.2551
 1166W        W 5217   0.782   2.545   3.198  0.0910  0.0372 -0.0580
 1167W        W 5218   5.628   9.229   5.717  0.2135  0.1474 -0.1996
 1168W        W 5219   0.831   9.942   0.295  0.1779 -0.1058  0.1885
 1169W        W 5220   7.917   2.961  13.576 -0.2427 -0.0631  0.0992
 1170W        W 5221   0.946   6.309  10.203 -0.0298 -0.1268  0.0388
 1171W        W 5222   3.834   2.030   3.804 -0.2328  0.1692  0.1453
 1172W        W 5223   2.032   9.541  10.588 -0.1034 -0.0726 -0.1701
 1173W        W 5224   9.239   0.737   1.195  0.2551 -0.0869  0.0048
 1174W        W 5225   7.533   6.354  10.517 -0.0079  0.1399 -0.1466
 1175W        W 5226   4.140   2.534  12.719  0.1027 -0.5062 -0.2134
 1176W        W 5227   3.546   8.836   1.201 -0.0140 -0.0714 -0.2127
 1177W        W 5228   9.416   6.692   0.142 -0.1851  0.2145  0.0203
 1178W        W 5229   7.004   4.973  13.103  0.0008  0.0391 -0.3396
 1179W        W 5230   1.901   2.707   5.303  0.2803 -0.0822  0.1016
 1180W        W 5231   8.572   4.477   0.473  0.0608 -0.2870  0.0114
 1181W        W 5232   7.091   0.204  12.218  0.0514  0.2686  0.0324
 1182W        W 5233   6.388   9.334  10.573  0.1044  0.0490  0.3748
 1183W        W 5234   8.107   2.309  13.015  0.1835 -0.4717  0.2153
 1184W        W 5235   1.271   2.207   4.390  0.0641 -0.2438  0.0932
 1185W        W 5236   0.542   6.862  13.491 -0.1229 -0.3542 -0.1730
 1186W        W 5237   7.915   2.039  11.860 -0.0011 -0.3907 -0.0155
 1187W        W 5238   8.537   9.203  13.182  0.1789  0.1651 -0.2135
 1188W        W 5239   4.907   0.467  10.193 -0.0721 -0.1669 -0.0235
 1189W        W 5240   4.979   4.539  10.644 -0.0756  0.2481 -0.2546
 1190W        W 5241   1.975   5.873   0.268 -0.0381 -0.1818 -0.1457
 1191W        W 5242   2.586   1.314  13.197 -0.0713 -0.0589  0.0067
 1192W        W 5243   0.617   7.049  12.254  0.1333 -0.0077  0.2788
 1193W        W 5244   0.586   0.459   1.055  0.1358  0.0429  0.3299
 1194W        W 5245   0.551   3.031   3.254 -0.4795 -0.1238  0.2248
 1195W        W 5246   1.472   5.643   3.352  0.1638  0.0049  0.0483
 1196W        W 5247   3.134   9.142  10.315  0.0252 -0.1577  0.1655
 1197W        W 5248   3.921   7.650   1.393  0.3288 -0.2516  0.0004
 1198W        W 5249   7.171   1.731  13.443 -0.0049  0.0905 -0.0780
 1199W        W 5250   4.154   0.392  13.480 -0.2626  0.1810  0.0955
 1200W        W 5251   1.064   6.531   0.070  0.0335 -0.0780  0.1093
 1201W        W 5252   3.132   0.057  12.176  0.0089 -0.0504 -0.0465
 1202W        W 5253   5.111  10.004   3.321 -0.2858 -0.2632  0.1211
 1203W        W 5254   3.927   4.706   9.223 -0.1393 -0.1722 -0.2861
 1204W        W 5255   8.100   2.797   3.485  0.2238 -0.0144  0.0490
 1205W        W 5256   8.532   6.041  12.847 -0.2264 -0.1779 -0.2169
 1206W        W 5257   1.782   6.670   2.247  0.2034 -0.1222 -0.4286
 1207W        W 5258   7.072   6.963   4.982 -0.0106 -0.0437 -0.0541
 1208W        W 5259   0.347   9.562   1.968 -0.0477 -0.1986 -0.0715
 1209W        W 5260   4.201   4.831  12.689  0.3042  0.1635 -0.0447
 1210W        W 5261   7.796   4.204   4.941  0.1477 -0.0835  0.1335
 1211W        W 5262   6.493   7.967   3.155  0.1845 -0.0660 -0.0137
 1212W        W 5263   7.119   7.250   4.008  0.0875  0.1597 -0.1244
 1213W        W 5264   9.932   3.155   3.620 -0.3521 -0.1142 -0.4507
 1214W        W 5265   9.489   1.321  13.316  0.0750  0.1001  0.0297
 1215W        W 5266   7.251   7.823   2.763  0.0454 -0.0503  0.0152
 1216W        W 5267   2.406   8.486  12.879 -0.0577  0.1497  0.3232
 1217W        W 5268   1.729   0.680   2.102 -0.1342 -0.1883  0.1417
 1218W        W 5269   6.264   3.314   4.435  0.0472  0.1660  0.1362
 1219W        W 5270   8.156   6.738  13.383  0.0242 -0.2141  0.0443
 1220W        W 5271   5.960   7.138  12.008 -0.0328  0.1259  0.1768
 1221W        W 5272   6.420   4.749   3.968  0.3346  0.0116 -0.1747
 1222W        W 5273   1.350   6.917  10.901 -0.3627  0.0644  0.1011
 1223W        W 5274   1.564   7.489  11.872 -0.1271 -0.0990  0.0179
 1224W        W 5275   3.641   2.790   1.189  0.3304  0.4023  0.0940
 1225W        W 5276   7.142   6.949  11.364 -0.0936 -0.2275  0.0602
 1226W        W 5277   3.563   5.476   0.538 -0.3250 -0.0593  0.1388
 1227W        W 5278   7.541   4.710  13.164  0.0952 -0.1162 -0.0799
 1228W        W 5279   6.137   0.733  13.514 -0.0121  0.0600 -0.1344
 1229W        W 5280   0.632   4.248  13.985 -0.4162  0.0629 -0.1414
 1230W        W 5281   3.913   3.563  10.442  0.0045 -0.0587  0.3759
 1231W        W 5282   1.801   1.603  11.036 -0.1866 -0.1696  0.0334
 1232W        W 5283   8.711   4.578  10.154 -0.1823  0.2239 -0.3486
 1233W        W 5284   7.496   1.915  12.116 -0.1073 -0.1346 -0.3988
 1234W        W 5285   6.080   0.833  13.010  0.0624 -0.3342 -0.2390
 1235W        W 5286   0.935   8.056  12.021 -0.2551  0.1713  0.0513
 1236W        W 5287   7.589   3.937   0.307  0.1986  0.0766 -0.1615
 1237W        W 5288   7.931   8.555  13.039  0.0827 -0.0289  0.0824
 1238W        W 5289   8.747   0.514  10.829 -0.1010  0.2946 -0.0392
 1239W        W 5290   9.912   5.760  10.047  0.0458  0.2201 -0.0185
 1240W        W 5291   4.915   9.469  13.819 -0.0753  0.3130 -0.1533
 1241W        W 5292   6.381   0.582   1.488  0.1158 -0.2657 -0.2120
 1242W        W 5293   5.628   0.002  11.713  0.1414 -0.1532  0.0660
 1243W        W 5294   1.386   0.905  11.588 -0.0564 -0.1366 -0.0593
 1244W        W 5295   8.376   8.262   2.947  0.3610  0.0651 -0.0871
 1245W        W 5296   2.345   7.192  13.783 -0.0926  0.0516 -0.1602
 1246W        W 5297   4.519   9.811   1.302 -0.3518 -0.0318 -0.1617
 1247W        W 5298   7.610   0.676   2.923 -0.3144  0.1133 -0.0174
 1248W        W 5299   2.877   2.420   3.172  0.0003 -0.3419 -0.0392
 1249W        W 5300   8.161   2.990  10.078  0.0148  0.4538  0.2649
 1250W        W 5301   4.273   5.969  11.826  0.0254  0.0556  0.0892
 1251W        W 5302   7.371   0.658   1.494  0.0732  0.2866 -0.1246
 1252W        W 5303   8.422   8.879  10.321  0.0782 -0.1260 -0.0032
 1253W        W 5304   3.147   2.810   1.140 -0.3545  0.2408 -0.3467
 1254W        W 5305   3.693   1.882   4.276 -0.2308 -0.1999 -0.3543
 1255W        W 5306   5.648   9.898   3.717  0.2999 -0.0385 -0.1956
 1256W        W 5307   1.333   0.141   3.661  0.1856 -0.1024 -0.0413
 1257W        W 5308   8.417   1.641   0.061 -0.3595  0.1300 -0.3261
 1258W        W 5309   0.534   2.682  13.852  0.0039  0.0249 -0.0716
 1259W        W 5310   5.253   5.900  11.004  0.0300  0.1070 -0.4547
 1260W        W 5311   8.099   0.804   2.437 -0.3268  0.0828  0.2348
 1261W        W 5312   2.838   3.412  13.330  0.1514  0.0088  0.1554
 1262W        W 5313   6.920   6.219  13.877  0.2089  0.3177 -0.3417
 1263W        W 5314   4.906   6.750  12.970  0.2444 -0.1386  0.2984
 1264W        W 5315   1.791   3.810   1.975  0.0872 -0.0441  0.1040
 1265W        W 5316   8.021   3.694  12.164  0.3956 -0.0255 -0.0919
 1266W        W 5317   3.950   6.928   0.870 -0.1011  0.0379  0.0140
 1267W        W 5318   6.431  10.118   9.963 -0.2148  0.3990 -0.2171
 1268W        W 5319   2.394   4.903   4.483  0.0466 -0.2407 -0.1542
 1269W        W 5320   1.494   4.435   4.800 -0.0086  0.0313 -0.0351
 1270W        W 5321   0.855   3.459   9.113  0.0346 -0.0127  0.1507
 1271W        W 5322   7.624   3.581   3.355  0.0903 -0.2226 -0.1738
 1272W        W 5323   4.205   4.829  10.217 -0.2716  0.0008  0.0361
 1273W        W 5324   3.618   9.689   2.136  0.0840 -0.1007 -0.0874
 1274W        W 5325   7.600   9.505   0.095  0.0637 -0.1219 -0.1738
 1275W        W 5326   4.098   5.443   2.141 -0.1621 -0.0779 -0.0586
 1276W        W 5327   9.682   9.453   1.602  0.2177 -0.0587 -0.0408
 1277W        W 5328   3.319   8.615   0.785  0.0689 -0.1401  0.0786
 1278W        W 5329   4.259   3.939   3.899  0.0553  0.3353 -0.0309
 1279W        W 5330   3.694   2.181  10.854 -0.2578 -0.0520  0.2816
 1280W        W 5331   1.562   7.295   1.419  0.0584  0.1574 -0.3645
 1281W        W 5332   7.512   9.861   3.482  0.1063 -0.0425  0.0472
 1282W        W 5333   6.170   0.538  12.608 -0.1427  0.0106 -0.3436
 1283W        W 5334   5.196   7.516   3.313  0.1351  0.2144  0.1938
 1284W        W 5335   8.558   9.326   4.130 -0.1673  0.1592 -0.0177
 1285W        W 5336   7.008   9.191  13.309 -0.0470 -0.1835 -0.0235
 1286W        W 5337   5.995   4.278   2.845  0.1260  0.1160  0.1339
 1287W        W 5338   5.294   8.995   3.211  0.1064 -0.1836  0.1111
 1288W        W 5339   8.224   2.584   4.363 -0.0986 -0.5185 -0.0901
 1289W        W 5340   0.266   2.276   1.516  0.0822  0.1884  0.1133
 1290W        W 5341   9.323   1.749   4.278  0.0491 -0.1256  0.0413
 1291W        W 5342   1.929   9.646   2.106 -0.0567 -0.0650  0.0237
 1292W        W 5343   0.206  10.137   0.402  0.2319 -0.1937  0.0907
 1293W        W 5344   5.873  10.034   2.182  0.0459 -0.0231 -0.0421
 1294W        W 5345   4.394   0.978   3.506 -0.2162 -0.4303  0.1068
 1295W        W 5346   7.706   8.374   1.247 -0.1723 -0.0418 -0.2062
 1296W        W 5347   4.345   0.559  10.198  0.1693 -0.1085  0.0066
 1297W        W 5348   2.815   1.474   4.119 -0.1108  0.4848  0.1237
 1298W        W 5349   2.635   0.415   3.360  0.2955 -0.2254 -0.0737
 1299W        W 5350   3.949   1.312   0.910 -0.2583 -0.1736 -0.1660
 1300W        W 5351   2.858   9.767  13.912 -0.1373  0.0183 -0.2010
 1301W        W 5352   5.568   5.505   4.023  0.0933  0.1618 -0.0614
 1302W        W 5353   0.074   5.154   1.065 -0.0608  0.2936  0.3652
 1303W        W 5354   1.292   2.410   3.872  0.1978  0.0256 -0.0696
 1304W        W 5355   2.367   8.575  13.474 -0.1166 -0.1070  0.2834
 1305W        W 5356  10.072   9.744   1.777 -0.0542  0.0012  0.0115
 1306W        W 5357   8.533   6.344  11.791 -0.1955  0.1101  0.0486
 1307W        W 5358   2.557   6.877   1.776  0.0411  0.0362 -0.2571
 1308W        W 5359   8.876   9.938   1.196  0.1231 -0.0932  0.2321
 1309W        W 5360   5.847   4.441  11.515  0.1045 -0.0704  0.3770
 1310W        W 5361   0.746   8.462  11.871 -0.1754  0.0778  0.0729
 1311W        W 5362   6.719   2.370  10.502  0.1511  0.0774  0.1250
 1312W        W 5363   2.848  10.014  10.643 -0.1487 -0.2277 -0.0987
 1313W        W 5364   9.821   4.966   0.908  0.0837 -0.0792 -0.0940
 1314W        W 5365   6.670   6.899  10.407  0.0400 -0.0072  0.1333
 1315W        W 5366   7.178   9.425   9.958  0.0281 -0.0896  0.1279
 1316W        W 5367   5.608   0.872   1.998 -0.0516  0.0537  0.1158
 1317W        W 5368   5.854   0.916  10.619  0.1022  0.0656  0.4864
 1318W        W 5369   9.772   1.906   1.311  0.1131  0.2474 -0.2324
 1319W        W 5370   0.785   7.147   9.869 -0.0847 -0.0887  0.1747
 1320W        W 5371   8.501   3.602   3.223 -0.1690 -0.4330 -0.0698
 1321W        W 5372   6.083   5.365   9.882 -0.0715 -0.1853 -0.0862
 1322W        W 5373   1.369   4.177   2.030  0.1914  0.1037 -0.0917
 1323W        W 5374   6.727   5.217   3.692 -0.1279 -0.0058 -0.2243
 1324W        W 5375   8.781   6.518  10.035  0.2131  0.3381 -0.3719
 1325W        W 5376   6.902   5.434   1.660 -0.2104 -0.0065 -0.0875
 1326W        W 5377   2.849   2.174   2.337  0.3612 -0.0084 -0.0753
 1327W        W 5378   2.376   5.538   3.139 -0.0048 -0.0351 -0.0612
 1328W        W 5379   0.256   0.739   0.797  0.0823  0.4522  0.1334
 1329W        W 5380   7.454   4.180  11.613  0.0022 -0.1676  0.0803
 1330W        W 5381   4.761   9.016   0.051  0.1732 -0.0164 -0.3708
 1331W        W 5382   7.980   3.389  10.505  0.0986 -0.0860 -0.2052
 1332W        W 5383   0.434   2.453  12.573 -0.0640 -0.4004 -0.1155
 1333W        W 5384   7.672   4.501   4.524  0.1233  0.1236 -0.3263
 1334W        W 5385   3.007   3.512  10.223  0.2204  0.1446 -0.0565
 1335W        W 5386   1.378   1.834  10.892  0.0420  0.0540 -0.2388
 1336W        W 5387   3.954   5.121  10.706  0.0092 -0.0901  0.0541
 1337W        W 5388   1.999   7.128  10.292  0.3895  0.0760  0.0193
 1338W        W 5389   0.312   3.670  11.478  0.0302 -0.0543 -0.2652
 1339W        W 5390   2.717   8.516   0.231 -0.1935  0.0551  0.2295
 1340W        W 5391   0.186   4.614   2.259  0.0238 -0.0545  0.2499
 1341W        W 5392   5.139   3.750  13.852  0.0613  0.0221 -0.1218
 1342W        W 5393   0.220   8.699  10.546 -0.1928 -0.2498  0.0737
 1343W        W 5394   1.559   6.872  12.608 -0.1581  0.1955 -0.2849
 1344W        W 5395   1.337   0.159  12.225 -0.1516  0.2033  0.2991
 1345W        W 5396   4.472   4.396  12.575 -0.1637 -0.3809 -0.1639
 1346W        W 5397   8.683   3.631   1.875  0.1956  0.1938  0.1865
 1347W        W 5398   8.174   9.033  12.836 -0.1077 -0.4270  0.3046
 1348W        W 5399   5.226   5.805  13.577 -0.1169 -0.2224  0.3070
 1349W        W 5400   9.147   9.507  10.327  0.1356 -0.2563  0.1231
 1350W        W 5401   4.153   5.281   9.899 -0.1619  0.0693 -0.1080
 1351W        W 5402   2.903   2.694  11.959 -0.0174  0.4695  0.0921
 1352W        W 5403   3.541   0.214   2.926  0.1890 -0.0953 -0.0542
 1353W        W 5404   7.434   6.036   1.787 -0.0344 -0.1062  0.1134
 1354W        W 5405   7.122   8.604  13.185 -0.2266 -0.1524  0.0965
 1355W        W 5406   8.985   4.184   2.544  0.0022 -0.0646  0.4539
 1356W        W 5407   3.878   0.834   3.803  0.2103  0.1159  0.3686
 1357W        W 5408   4.676   5.451   9.947 -0.0476  0.2487  0.2189
 1358W        W 5409   5.975   5.146   4.078 -0.0537  0.0595 -0.2300
 1359W        W 5410   7.942   4.117  11.899  0.0834 -0.1916  0.1283
 1360W        W 5411   6.941   3.272  12.840 -0.1394  0.2041  0.1233
 1361W        W 5412   5.451   2.558  12.478  0.0232  0.0542 -0.1144
 1362W        W 5413   4.309   8.616  13.533  0.1121  0.2039 -0.1765
 1363W        W 5414   7.601   9.095   5.273 -0.1422 -0.1351  0.1060
 1364W        W 5415   2.720   0.823   3.028 -0.1889 -0.0450  0.1471
 1365W        W 5416   6.279   9.704  11.259  0.2862  0.2369 -0.0704
 1366W        W 5417   7.562   2.112   3.951  0.0783  0.3956 -0.1357
 1367W        W 5418   1.322   9.310   2.722 -0.1360  0.0319 -0.1767
 1368W        W 5419   7.491   5.347   2.531 -0.1290 -0.0823  0.0355
 1369W        W 5420   6.680   2.740   3.232  0.0593  0.2213  0.1335
 1370W        W 5421   1.429  10.097   3.248  0.2223  0.0903  0.0793
 1371W        W 5422   5.679   2.187   9.311 -0.0229  0.0660 -0.2174
 1372W        W 5423   2.041   3.325  10.570 -0.3801  0.2565  0.1935
 1373W        W 5424   2.324   1.959  11.030  0.0541  0.0230  0.1836
 1374W        W 5425   6.998   8.994  10.104  0.0529  0.1029  0.2827
 1375W        W 5426   9.029   4.953  11.621 -0.1722 -0.0879  0.1270
 1376W        W 5427   7.577   7.389   2.048  0.3513 -0.2766  0.1214
 1377W        W 5428   8.900   4.052  12.055 -0.0630  0.0242 -0.2403
 1378W        W 5429   9.965   9.997  10.828 -0.3978  0.0328 -0.2536
 1379W        W 5430   7.022  10.079  12.666  0.0706 -0.0105  0.0236
 1380W        W 5431   6.958   8.622   0.712  0.0577 -0.0372  0.3228
 1381W        W 5432   7.742   3.960   9.761 -0.2097  0.2445 -0.0789
 1382W        W 5433   4.739   1.642   5.188 -0.2281 -0.2167  0.0921
 1383W        W 5434   1.995   0.071   1.699 -0.0108 -0.0266  0.0681
 1384W        W 5435   4.752   4.408   8.551 -0.0056  0.2751  0.3382
 1385W        W 5436   9.244   2.905   2.421  0.1166  0.3819  0.2023
 1386W        W 5437   7.524   6.280   3.652  0.1155 -0.1466 -0.3317
 1387W        W 5438   0.150   8.691  11.033 -0.1431  0.4467  0.1702
 1388W        W 5439   5.025   8.659  10.685 -0.1230  0.0938 -0.2532
 1389W        W 5440   6.896   9.410  10.406 -0.0497 -0.0706 -0.0201
 1390W        W 5441   2.231   1.073  12.248  0.0754  0.0101 -0.0810
 1391W        W 5442   7.958   8.245   9.666 -0.0236 -0.0164  0.3443
 1392W        W 5443   6.495   9.200  13.910 -0.2415  0.1514  0.0023
 1393W        W 5444   9.143   4.543   1.276  0.0051 -0.0667  0.2536
 1394W        W 5445   7.113   0.173   0.194 -0.3896  0.0196 -0.3011
 1395W        W 5446   2.910   6.152  10.649  0.0301 -0.2079 -0.0957
 1396W        W 5447   0.603   0.872  12.166  0.2748 -0.0374 -0.1957
 1397W        W 5448   3.487   8.972  12.254 -0.0293 -0.1118  0.1000
 1398W        W 5449   5.075   8.773   2.748 -0.1514 -0.0252 -0.3408
 1399W        W 5450   0.638   3.786   1.429 -0.1798  0.0028  0.0757
 1400W        W 5451   7.679   2.676   9.325 -0.0614 -0.0812  0.2583
 1401W        W 5452   8.853   0.963   3.767  0.0730  0.2433  0.1726
 1402W        W 5453   4.683   2.209  13.666  0.1638 -0.1744 -0.1022
 1403W        W 5454   3.192   2.260  13.822  0.0979 -0.1280  0.1713
 1404W        W 5455   4.812   5.462   0.454 -0.2167  0.1205  0.3062
 1405W        W 5456   9.671   1.538   0.559 -0.3086 -0.3134  0.2562
 1406W        W 5457   0.936   8.992   3.380 -0.0608  0.0413 -0.0633
 1407W        W 5458   0.261   5.644   2.784  0.2770  0.0226  0.0154
 1408W        W 5459   0.777   6.689  11.022  0.2479 -0.1533 -0.0020
 1409W        W 5460   3.890   9.840  12.425  0.2296  0.0044  0.1949
 1410W        W 5461   6.462   6.117  11.777 -0.0090  0.0740 -0.2841
 1411W        W 5462   2.105   7.764  11.742 -0.0788 -0.1853 -0.2330
 1412W        W 5463   8.620   1.646  12.863  0.0406 -0.2318  0.0205
 1413W        W 5464   4.391   5.256   2.528  0.1090 -0.1402 -0.2276
 1414W        W 5465   1.383   9.302   0.381 -0.1467 -0.1769  0.3160
 1415W        W 5466   9.788   5.816   0.898 -0.0648  0.2734 -0.0728
 1416W        W 5467   2.309   3.532   2.538 -0.1927  0.1373 -0.1868
 1417W        W 5468   7.670   5.948  13.297 -0.0774 -0.0383  0.0299
 1418W        W 5469   6.203   8.040  10.248 -0.0987 -0.2287 -0.0660
 1419W        W 5470   2.617  10.075   2.477  0.1005  0.1361 -0.1588
 1420W        W 5471   6.289   1.159  10.444  0.0452  0.0147  0.0042
 1421W        W 5472   2.676   7.000   1.325  0.2948  0.0599  0.0926
 1422W        W 5473   0.748   0.858   0.166 -0.0405 -0.1930  0.1522
 1423W        W 5474   7.634   3.138   0.415 -0.2072  0.2902  0.0037
 1424W        W 5475   5.002   8.371   0.223  0.0772 -0.0951  0.3521
 1425W        W 5476   8.295   1.668  11.091 -0.3582  0.0222  0.2678
 1426W        W 5477   1.710   9.677  12.221  0.0997  0.2024 -0.0309
 1427W        W 5478   9.826   0.061   0.859  0.0371 -0.3171  0.0398
 1428W        W 5479   3.920   8.563  13.935  0.2168  0.0046  0.0750
 1429W        W 5480   4.446   2.170  10.122  0.2055 -0.1613 -0.0316
 1430W        W 5481   8.470   7.038   2.078  0.0590  0.0158  0.0949
 1431W        W 5482   5.211   2.757   2.452 -0.0429 -0.0179 -0.2569
 1432W        W 5483   7.200   4.853  13.562  0.0079 -0.1326  0.1601
 1433W        W 5484   3.198   2.767   4.006  0.1567  0.0557 -0.1930
 1434W        W 5485   4.406   0.103   4.127 -0.0834 -0.0130  0.2458
 1435W        W 5486   8.100   9.804   9.428  0.1390  0.0365  0.2283
 1436W        W 5487   9.842   2.403   1.202 -0.0420  0.0918  0.1225
 1437W        W 5488   8.072   6.066   4.836  0.1640 -0.2220 -0.1650
 1438W        W 5489   3.560   9.154   3.105 -0.0418 -0.2124 -0.2189
 1439W        W 5490   9.665   4.902  10.653  0.3061 -0.0300  0.0056
 1440W        W 5491  10.164   5.504  11.775 -0.1584  0.0278 -0.1998
 1441W        W 5492   1.965   1.188   3.793  0.2436  0.4789  0.2619
 1442W        W 5493   6.449   7.622  10.105 -0.1141  0.0156  0.0169
 1443W        W 5494   2.873   0.323  10.846  0.0368  0.1394 -0.2201
 1444W        W 5495   9.072   9.522  11.891  0.0914 -0.0246  0.2775
 1445W        W 5496   2.405   9.204  11.676 -0.0601 -0.1208 -0.0208
 1446W        W 5497   1.130   5.649  13.540 -0.0148  0.0743  0.2612
 1447W        W 5498   6.011   3.777  12.218  0.0302 -0.1646  0.1550
 1448W        W 5499   2.623   4.891   1.102 -0.1048  0.0343  0.0787
 1449W        W 5500   3.152   0.900   0.440  0.1506 -0.1021 -0.1379
 1450W        W 5501   6.979   0.788  12.946 -0.2392  0.2924 -0.0483
 1451W        W 5502   0.554   6.659   9.038  0.0544 -0.2849  0.0075
 1452W        W 5503   7.963   0.770   0.144 -0.0907  0.0273  0.1044
 1453W        W 5504   2.599   0.121   1.733 -0.0093 -0.1396  0.0307
 1454W        W 5505   7.076   4.578   3.357 -0.1097 -0.2103 -0.2069
 1455W        W 5506   3.096   4.653   2.339 -0.1340 -0.2421  0.3021
 1456W        W 5507   5.632   2.013  11.661  0.2234  0.1243  0.1074
 1457W        W 5508   4.891   8.669   1.403 -0.1344  0.1224 -0.0973
 1458W        W 5509   6.758   6.317   4.296 -0.1385  0.0639 -0.1895
 1459W        W 5510   7.338   6.570  11.550  0.4223  0.2024  0.0421
 1460W        W 5511   6.397   0.622  11.793 -0.1719  0.2908  0.0168
 1461W        W 5512   5.061   6.000   0.665 -0.2518  0.0508  0.0202
 1462W        W 5513   6.629   3.468  11.470  0.0335  0.0855 -0.1136
 1463W        W 5514   3.014   9.657  10.323 -0.0972  0.0528  0.1493
 1464W        W 5515   4.098   9.582   0.628  0.0866 -0.0788 -0.1081
 1465W        W 5516   4.670   0.867  10.424 -0.0929  0.0491  0.1154
 1466W        W 5517   4.396   3.185   9.158 -0.1753  0.0353  0.1716
 1467W        W 5518   5.865   3.741  10.839 -0.1353  0.2062  0.0109
 1468W        W 5519   9.968   5.336   2.121 -0.0316  0.2806  0.0374
 1469W        W 5520   9.631   3.156   3.164 -0.0646  0.4132 -0.0729
 1470W        W 5521   7.330   8.101   3.839  0.0301 -0.0272  0.4354
 1471W        W 5522   1.268   1.824   2.661 -0.1554  0.0608  0.1179
 1472W        W 5523   2.479   4.299   9.734  0.0026  0.4901  0.0538
 1473W        W 5524   9.108   4.405  13.862  0.1390 -0.1590 -0.1058
 1474W        W 5525   2.142  10.005   2.751 -0.1933 -0.0188 -0.0428
 1475W        W 5526   4.899   0.070   1.932  0.1878  0.0102 -0.0998
 1476W        W 5527   3.355   0.401  12.908  0.1737 -0.3276 -0.0301
 1477W        W 5528   4.170   9.947   2.856  0.5245  0.3532 -0.0545
 1478W        W 5529   3.720   4.158   4.033 -0.1224  0.1364  0.1313
 1479W        W 5530   8.578   8.357  13.288 -0.1547  0.0581 -0.1562
 1480W        W 5531   1.590   9.829   1.151 -0.0445  0.0900  0.0941
 1481W        W 5532   5.912   4.822   2.814 -0.1018 -0.0448 -0.2915
 1482W        W 5533   9.089   6.238   9.610 -0.1130 -0.2182 -0.1486
 1483W        W 5534   7.457   2.088   5.403  0.0060  0.0799  0.1617
 1484W        W 5535   5.920   6.340   2.713  0.0233  0.1526  0.0766
 1485W        W 5536   8.292   8.695  11.439 -0.1678  0.1090  0.3608
 1486W        W 5537   6.028   2.807  10.441  0.0169 -0.0634 -0.2550
 1487W        W 5538   6.136   0.735   0.096  0.2808 -0.2281 -0.2073
 1488W        W 5539   5.876   5.470   3.562  0.4843  0.2094 -0.3663
 1489W        W 5540   3.328   8.240   2.076 -0.1547 -0.0403  0.2655
 1490W        W 5541   0.965   1.139  11.397 -0.1098  0.0582  0.1138
 1491W        W 5542   8.058   1.455   8.939 -0.0087  0.1042  0.1006
 1492W        W 5543   0.721   0.935   1.030  0.0780  0.1680 -0.0924
 1493W        W 5544   6.996   3.333  11.770  0.0364  0.3867 -0.1029
 1494W        W 5545   6.881   7.131   0.967  0.1993 -0.3699 -0.0298
 1495W        W 5546   8.669   6.923   0.737 -0.0192 -0.2215 -0.4508
 1496W        W 5547   9.770  10.060  12.644  0.0944  0.1732 -0.0755
 1497W        W 5548   8.749   0.478   0.222 -0.2347 -0.0927 -0.1053
 1498W        W 5549   9.375   1.991  10.060 -0.0948 -0.1246 -0.1622
 1499W        W 5550   5.233   0.837   2.425  0.0265 -0.2689 -0.0931
 1500W        W 5551   8.359   0.201   1.726 -0.0170 -0.0059 -0.2587
 1501W        W 5552   6.556   0.795   4.621  0.3126 -0.1997 -0.1015
 1502W        W 5553   3.298   3.531  11.422 -0.1009  0.1154  0.1923
 1503W        W 5554   4.804   9.292  13.291 -0.4014 -0.1334 -0.0334
 1504W        W 5555   9.444   8.465  12.627  0.2449  0.0824 -0.4365
 1505W        W 5556   4.090   7.148   9.425 -0.1716  0.0483  0.3502
 1506W        W 5557  10.154   2.889   9.787 -0.0816  0.1095 -0.1305
 1507W        W 5558   9.776   6.401  10.451 -0.0187  0.0575 -0.0202
 1508W        W 5559   9.403   4.655  12.871  0.2947  0.0177 -0.0049
 1509W        W 5560   3.940   7.112   1.325  0.0432  0.0676  0.0550
 1510W        W 5561   9.751   1.073  13.685 -0.2536  0.0938  0.0213
 1511W        W 5562   5.413   6.757   4.106 -0.1252  0.0494  0.4055
 1512W        W 5563   4.885   3.879   3.928 -0.1832  0.1822  0.1242
 1513W        W 5564   3.383   4.054   4.966  0.1219 -0.1040  0.0146
 1514W        W 5565  10.114   9.842   2.864 -0.0004 -0.5333 -0.1895
 1515W        W 5566   2.542   9.386   1.234 -0.2019 -0.1408 -0.1933
 1516W        W 5567   1.786   1.213  13.871 -0.0470 -0.1293 -0.1260
 1517W        W 5568   6.838   5.946  12.194 -0.0674  0.0130  0.1271
 1518W        W 5569   0.154   5.877   3.638 -0.4006  0.0497  0.2911
 1519W        W 5570   8.367   4.654  11.467  0.3336  0.1143 -0.4093
 1520W        W 5571   9.602   5.968   2.797  0.3015  0.1816 -0.1427
 1521W        W 5572   7.403   0.210   5.017 -0.2855  0.0469  0.1100
 1522W        W 5573   3.134   8.628   2.633  0.3053 -0.1078 -0.2438
 1523W        W 5574   4.634   8.263  12.114  0.0117 -0.4612 -0.0182
 1524W        W 5575   1.832   3.625  12.262 -0.0931  0.2163 -0.0608
 1525W        W 5576   2.583   6.123   2.379  0.0164 -0.1289 -0.1891
 1526W        W 5577   5.742   2.891   9.973 -0.2771 -0.1445  0.1571
 1527W        W 5578   4.375   7.024   1.664 -0.0470 -0.1595 -0.0594
 1528W        W 5579   5.854   7.705  13.237  0.1756  0.0439  0.0880
 1529W        W 5580   9.283   7.735   9.890 -0.1316 -0.0881 -0.0855
 1530W        W 5581   3.752   0.035  11.621 -0.2007  0.1338  0.0667
 1531W        W 5582   4.875   4.437   3.644 -0.1106  0.0332 -0.2522
 1532W        W 5583   8.705   3.144   5.421 -0.0719  0.0071 -0.2251
 1533W        W 5584   6.571   4.104   4.195  0.1664  0.1417  0.0452
 1534W        W 5585   0.983   3.032   0.814  0.0888  0.1204  0.1099
 1535W        W 5586   9.269   3.152   9.748 -0.1137  0.0466  0.1074
 1536W        W 5587   2.892   5.705  10.335  0.2167 -0.2184  0.1021
 1537W        W 5588   8.907   7.642   1.177  0.0172  0.0943 -0.1725
 1538W        W 5589   2.439   8.658   1.478 -0.0971 -0.3311  0.2692
 1539W        W 5590   5.228   2.468  10.573  0.0125  0.2255  0.0151
 1540W        W 5591   6.034   1.119  11.135 -0.1104 -0.4188 -0.2044
 1541W        W 5592   9.419   7.578   9.024  0.1186 -0.1868  0.1342
 1542W        W 5593   0.411   4.594   0.351 -0.1439  0.0083  0.0672
 1543W        W 5594   2.335   9.983   2.036 -0.1754 -0.1666 -0.3178
 1544W        W 5595   7.802   5.531  10.960  0.1500 -0.2925 -0.2622
 1545W        W 5596   7.407   2.023   9.156 -0.1697  0.1106 -0.3176
 1546W        W 5597   6.517   6.946   0.185  0.2176 -0.0794  0.0821
 1547W        W 5598   0.239   7.794  12.981 -0.0964 -0.2717  0.0386
 1548W        W 5599  10.146   3.028  10.277  0.1681 -0.0682  0.0600
 1549W        W 5600   3.739   4.683   3.118 -0.4379  0.1120 -0.1472
 1550W        W 5601   9.548   2.190  11.721  0.3258 -0.0656 -0.1532
 1551W        W 5602   1.762   6.049  11.088  0.2699 -0.2925 -0.0682
 1552W        W 5603   8.646   9.237  11.067  0.1433  0.1846 -0.2006
 1553W        W 5604   8.012   7.634   3.438  0.1745  0.2488 -0.3326
 1554W        W 5605   5.744   9.082   3.411  0.0481  0.1325 -0.0214
 1555W        W 5606   2.248   1.299   9.369  0.0986 -0.2571  0.0278
 1556W        W 5607   1.993   1.142  12.885  0.1390 -0.0403 -0.1425
 1557W        W 5608   8.966   6.238  12.032 -0.0551  0.2462 -0.1642
 1558W        W 5609   8.885   2.934   1.123 -0.2078 -0.1582  0.2759
 1559W        W 5610   3.225   5.109   3.273  0.1834  0.0347 -0.3513
 1560W        W 5611   0.176   2.535  12.969  0.0301 -0.1470  0.5266
 1561W        W 5612   6.513   3.003   3.701  0.3128 -0.0232  0.0333
 1562W        W 5613   7.744   1.181  13.294 -0.2397  0.0847 -0.0562
 1563W        W 5614   8.913   1.371  11.108  0.0215 -0.0900  0.1333
 1564W        W 5615   2.095   2.519   2.817  0.0562 -0.3263  0.0781
 1565W        W 5616   1.076   5.211   2.595  0.2131 -0.0856  0.1170
 1566W        W 5617   9.276   3.311  11.714 -0.0154  0.2973 -0.0921
 1567W        W 5618   0.671   2.939  10.317 -0.2180  0.2454  0.0838
 1568W        W 5619   3.946   6.385  12.590  0.1386  0.1881  0.0846
 1569W        W 5620   0.333   2.658   2.922 -0.1073 -0.3702 -0.0173
 1570W        W 5621   1.418   8.496   0.758  0.1181  0.0858 -0.2079
 1571W        W 5622  10.161   3.266   2.004  0.0359  0.0018 -0.2060
 1572W        W 5623   3.903   2.651  13.837  0.0428  0.1574 -0.3520
 1573W        W 5624   7.082   8.225  10.352  0.0118  0.0848  0.1205
 1574W        W 5625   4.614   2.917  10.584 -0.0247  0.2859 -0.1333
 1575W        W 5626   3.639   0.192   3.870  0.0136 -0.0862 -0.1024
 1576W        W 5627   6.265   8.363   3.958  0.0814  0.2049  0.2003
 1577W        W 5628   5.133   5.611   9.847 -0.2179 -0.1658  0.1153
 1578W        W 5629   6.029   1.964   0.037 -0.0749  0.1763 -0.0005
 1579W        W 5630   7.346   4.310   1.234 -0.0408  0.0487  0.3147
 1580W        W 5631   4.446   5.891   1.297 -0.1054  0.0341  0.4180
 1581W        W 5632   1.596  10.143  13.528  0.1897  0.2309 -0.0828
 1582W        W 5633   2.505   0.988  12.748 -0.1692  0.3565  0.2213
 1583W        W 5634   8.832   5.497  10.050  0.0755  0.1425 -0.2563
 1584W        W 5635   3.908   3.317   0.364  0.2371 -0.2039 -0.2109
 1585W        W 5636   6.801   7.688  10.946  0.0059 -0.1292 -0.2622
 1586W        W 5637   1.389   0.155  13.130 -0.1255 -0.1943  0.2173
 1587W        W 5638   6.132   8.844   9.978 -0.0372  0.0409 -0.1870
 1588W        W 5639   5.004   5.113  10.011 -0.1625 -0.2439  0.0957
 1589W        W 5640   3.929   1.318  10.374  0.0561  0.3061 -0.1436
 1590W        W 5641   4.649   6.168   2.152 -0.0112  0.1607  0.3664
 1591W        W 5642   2.053   1.075   0.696 -0.2297  0.0956 -0.1773
 1592W        W 5643   1.354   6.114   0.704 -0.1772  0.1224  0.0079
 1593W        W 5644   8.176   0.246  10.457 -0.1571  0.1316  0.1982
 1594W        W 5645   4.513   2.802   2.997 -0.1430  0.3490  0.1530
 1595W        W 5646   2.759   2.589   9.919 -0.1984 -0.1758 -0.0619
 1596W        W 5647   9.890   6.243   9.945  0.1542 -0.0198 -0.1148
 1597W        W 5648   0.621   2.904  12.474 -0.3348  0.0767  0.3067
 1598W        W 5649   6.644   9.100  12.599  0.1157  0.3270 -0.1372
 1599W        W 5650   9.059   5.106   1.079 -0.0443 -0.0498 -0.1757
 1600W        W 5651   9.347   9.320  12.245  0.2410 -0.0556 -0.1088
 1601W        W 5652   5.917   9.251  10.327  0.0379  0.2178  0.0304
 1602W        W 5653   8.662   4.422   4.861  0.0436  0.0112 -0.1026
 1603W        W 5654   6.996   6.866   0.580  0.2262 -0.1841 -0.0050
 1604W        W 5655   0.144   1.635  10.351 -0.0484 -0.1824 -0.2507
 1605W        W 5656   5.379   2.256  12.926 -0.0889  0.0668 -0.1388
 1606W        W 5657   1.253   0.714  10.715 -0.1693  0.0011 -0.1770
 1607W        W 5658   3.470   5.932   1.226  0.1515 -0.2071 -0.2832
 1608W        W 5659   8.097   4.261   8.922 -0.1982  0.0652 -0.1288
 1609W        W 5660   7.041   7.839  13.936 -0.0046 -0.0802 -0.1066
 1610W        W 5661   0.332   6.100   2.243 -0.1027 -0.0761 -0.3260
 1611W        W 5662   6.530   1.574  12.739  0.0266  0.0748  0.1734
 1612W        W 5663   0.964   9.726   2.426 -0.0117  0.1058  0.3220
 1613W        W 5664   8.013   9.586   0.471 -0.2336  0.5214  0.0809
 1614W        W 5665   1.426   5.323   0.522  0.2333  0.0318  0.0768
 1615W        W 5666   4.239   5.123  12.034 -0.0171  0.1831  0.1688
 1616W        W 5667   4.729   0.869  13.111 -0.1355 -0.1269 -0.0218
 1617W        W 5668   1.518   1.365  11.685  0.2048 -0.0530  0.0089
 1618W        W 5669   0.381   9.908   3.397 -0.2014 -0.1390 -0.2093
 1619W        W 5670   2.183   0.863   1.656 -0.3508 -0.0080 -0.0457
 1620W        W 5671   8.456   9.159   3.063  0.1779  0.0229  0.0464
 1621W        W 5672   8.403   9.949  10.570 -0.2522 -0.0468 -0.0689
 1622W        W 5673   6.048   6.852   0.353  0.0109  0.1189  0.1599
 1623W        W 5674   7.531   4.928  12.219  0.4270 -0.0776 -0.0336
 1624W        W 5675   4.273   6.647   3.795  0.1681  0.3381  0.3376
 1625W        W 5676   4.828   2.521   1.883 -0.0520 -0.1512  0.1991
 1626W        W 5677   2.076   3.993  12.585 -0.1570 -0.1059  0.4867
 1627W        W 5678   3.437   8.235   2.571 -0.0552  0.3286  0.2116
 1628W        W 5679   1.237   0.690   0.069  0.0676  0.0372  0.0456
 1629W        W 5680   8.625   2.114   3.044  0.1950  0.4356  0.1197
 1630W        W 5681   3.480   9.548   1.346  0.1095 -0.1094  0.0720
 1631W        W 5682   1.080   9.187   2.311 -0.0020  0.0215  0.2547
 1632W        W 5683   3.701   0.991   2.358  0.0182  0.1100 -0.0080
 1633W        W 5684  10.160   1.013  12.215 -0.0749 -0.1375 -0.1750
 1634W        W 5685   8.228   0.324  13.377 -0.0987  0.2259 -0.2103
 1635W        W 5686   0.477   6.981   0.754 -0.2193 -0.0340 -0.1384
 1636W        W 5687   0.744   3.433   9.581 -0.1292  0.2382 -0.1400
 1637W        W 5688   3.786   5.235  13.376  0.0489 -0.3709  0.0755
 1638W        W 5689   9.044   9.829   3.737  0.2179  0.0432 -0.0271
 1639W        W 5690   7.909   3.776   2.991  0.2108 -0.2427  0.0466
 1640W        W 5691   8.909   7.702   9.465  0.0518 -0.1275  0.0352
 1641W        W 5692   1.751   6.923  13.080  0.2422  0.1105  0.0991
 1642W        W 5693   8.844   9.450   9.853 -0.0234  0.0218  0.2337
 1643W        W 5694   9.824   2.583  12.934 -0.0880  0.2303  0.1502
 1644W        W 5695   1.132   6.899  12.318 -0.2521 -0.2761 -0.3576
 1645W        W 5696   7.093   3.492   2.585  0.0484 -0.2795  0.0288
 1646W        W 5697   0.190   3.509  13.315  0.0540 -0.0348 -0.0944
 1647W        W 5698   8.949   3.307  11.299  0.2137 -0.0073 -0.1365
 1648W        W 5699   1.412   2.097  10.167 -0.3140 -0.2640 -0.2435
 1649W        W 5700   7.047   2.009   0.188 -0.0091 -0.0941 -0.0881
 1650W        W 5701  10.033   6.374   2.327  0.2173  0.0598  0.2791
 1651W        W 5702   8.256   4.007  13.890  0.2102  0.0850 -0.3282
 1652W        W 5703   8.363   1.986  10.500  0.1893  0.0274  0.2448
 1653W        W 5704   9.888   1.987  12.318 -0.2148 -0.1021 -0.2160
 1654W        W 5705   9.659   9.138  11.206 -0.1109 -0.1475 -0.2005
 1655W        W 5706   1.261   0.930   1.402  0.2736  0.1830 -0.0503
 1656W        W 5707   4.974   3.780   5.074 -0.1845  0.1251  0.1509
 1657W        W 5708   0.726   9.275   0.937  0.0410 -0.0660 -0.0390
 1658W        W 5709   0.194   7.802   0.354  0.2076 -0.0229  0.0033
 1659W        W 5710   6.054   0.813   1.795  0.0437 -0.0622  0.3548
 1660W        W 5711   3.112   9.196   1.003 -0.1301  0.0801  0.0494
 1661W        W 5712   0.060   8.987   0.801  0.0872 -0.0511  0.1784
 1662W        W 5713   5.158   9.547   0.614  0.0863 -0.0001  0.0015
 1663W        W 5714   1.878   4.899  10.306 -0.3059 -0.1388 -0.0790
 1664W        W 5715   4.725   6.051   9.184  0.3238 -0.1409  0.2215
 1665W        W 5716   9.646   6.627   1.928  0.1370  0.0669  0.1528
 1666W        W 5717  10.022   4.793  12.860 -0.0987 -0.1338  0.2431
 1667W        W 5718   9.060   1.445  12.139  0.0239  0.0113  0.2053
 1668W        W 5719   9.237   2.852   2.939  0.0685 -0.1793 -0.2894
 1669W        W 5720   3.723   2.551   4.167  0.0186  0.0367  0.0644
 1670W        W 5721   2.232   3.364   5.240  0.1005 -0.0831  0.0830
 1671W        W 5722   0.877   4.355   9.666  0.0892 -0.0122  0.0765
 1672W        W 5723   0.149   9.841  13.896 -0.0547  0.1000 -0.3247
 1673W        W 5724   7.831   9.853   0.883 -0.3252  0.1973 -0.1903
 1674W        W 5725   7.979   6.240   9.082 -0.1310  0.2402 -0.1189
 1675W        W 5726   3.361   0.571   2.124 -0.3322  0.3161 -0.0121
 1676W        W 5727   8.726   9.023  11.512 -0.3187  0.0635  0.3175
 1677W        W 5728   6.729   4.750   9.525 -0.0150  0.2052 -0.1831
 1678W        W 5729   4.380   8.527   1.346  0.2338 -0.1011  0.0727
 1679W        W 5730   7.688   3.153  10.183  0.2242  0.1022  0.0150
 1680W        W 5731  10.128   4.971   3.532 -0.0641  0.4978  0.1943
 1681W        W 5732   4.554   6.104   0.832 -0.1380  0.0427  0.1000
 1682W        W 5733   4.192   4.048  13.773 -0.3853  0.0731 -0.1596
 1683W        W 5734   6.680   3.228   5.161  0.3481  0.0291 -0.0888
 1684W        W 5735   8.089   5.995   2.568  0.4824  0.0429  0.1763
 1685W        W 5736   1.824   2.002   9.799 -0.2483  0.1341  0.2989
 1686W        W 5737   1.863   1.072   2.619 -0.0690 -0.0621  0.0757
 1687W        W 5738   0.788   9.758   3.776 -0.0118 -0.1335 -0.0169
 1688W        W 5739   8.901   9.477  11.424 -0.1131  0.0882  0.0006
 1689W        W 5740   0.945   3.454   1.121 -0.0423  0.0654  0.1836
 1690W        W 5741   3.909   6.718  13.925  0.0220  0.3218 -0.0287
 1691W        W 5742   3.813   0.090   0.307  0.0250  0.1624 -0.1150
 1692W        W 5743   0.825   8.402   3.117  0.0114  0.3668 -0.2480
 1693W        W 5744   1.770   3.784  11.237  0.1304 -0.1668  0.1102
 1694W        W 5745   6.040   5.615   2.134  0.0666 -0.2493 -0.1368
 1695W        W 5746   5.453   4.525  12.352  0.0280  0.3961  0.2939
 1696W        W 5747   7.521   1.426   3.793  0.1497 -0.0998 -0.2981
 1697W        W 5748   5.467   0.624   2.837  0.0915 -0.0915  0.2508
 1698W        W 5749   3.527   8.834  13.547  0.2937 -0.1426 -0.1281
 1699W        W 5750   7.415   6.998  11.807  0.1646  0.1856 -0.3910
 1700W        W 5751   7.360   0.968   1.907  0.0349 -0.0721 -0.2505
 1701W        W 5752   8.914   1.285  11.628 -0.1534  0.0398 -0.0080
 1702W        W 5753   7.656   9.021   9.595 -0.1901  0.1794 -0.0033
 1703W        W 5754   2.857   2.780  11.494  0.1778 -0.2385  0.0741
 1704W        W 5755  10.133   5.987  10.413 -0.2361 -0.0438  0.5094
 1705W        W 5756   7.020   0.564   9.849 -0.3649 -0.1240  0.0171
 1706W        W 5757   5.217   0.288   4.272 -0.1717 -0.1699 -0.5366
 1707W        W 5758   7.666   3.901   3.702 -0.0322  0.2374 -0.0018
 1708W        W 5759   2.276   4.656   4.038 -0.0276  0.3374 -0.0967
 1709W        W 5760   1.428   4.403   1.561  0.2934  0.2412 -0.0623
 1710W        W 5761   4.777   6.168   1.624  0.2832 -0.0891 -0.1245
 1711W        W 5762   8.662   4.086   0.267 -0.0447 -0.0685 -0.1616
 1712W        W 5763   7.525   1.451   1.866 -0.3711 -0.1575  0.2091
 1713W        W 5764   6.350   8.420  13.756  0.1576 -0.0665 -0.0892
 1714W        W 5765   5.052   0.769   3.084  0.0347 -0.1803 -0.1305
 1715W        W 5766   9.416  10.024  13.115 -0.0500  0.1728  0.3520
 1716W        W 5767   8.661   2.037  10.928 -0.0046 -0.0635 -0.0038
 1717W        W 5768   3.668   5.237   5.114  0.0667 -0.1208  0.1196
 1718W        W 5769   6.638   6.034   3.284 -0.2418 -0.3276  0.1687
 1719W        W 5770   9.391   8.952   0.770 -0.1397 -0.1424  0.0985
 1720W        W 5771   5.093   5.412   1.958 -0.0065 -0.1332  0.1934
 1721W        W 5772   2.114   3.469  11.859 -0.0202 -0.0005 -0.1128
 1722W        W 5773   6.723   9.992  11.550 -0.1511  0.2573  0.0658
 1723W        W 5774   3.448   6.086   0.359 -0.0796 -0.1969  0.0713
 1724W        W 5775   1.548   3.050   0.394 -0.0548  0.3473 -0.2378
 1725W        W 5776   8.268   3.139   1.757  0.1733 -0.2286  0.0222
 1726W        W 5777   0.820   3.800   0.776 -0.0943  0.3492 -0.1140
 1727W        W 5778   9.969   2.544  10.162  0.1041 -0.0457  0.2960
 1728W        W 5779   4.307   1.468  12.742 -0.2076  0.0985 -0.0844
 1729W        W 5780   5.483   9.772   0.302  0.3413 -0.0439  0.3589
 1730W        W 5781   6.169   6.637   2.380  0.1805 -0.2044  0.1843
 1731W        W 5782   8.338   3.434   4.209  0.0901 -0.1584  0.3164
 1732W        W 5783   0.565   1.277   2.666 -0.0282 -0.1309  0.1936
 1733W        W 5784   9.588   1.918   3.560 -0.2539 -0.1053 -0.1181
 1734W        W 5785   4.653   0.224   1.374 -0.0405 -0.0608 -0.1304
 1735W        W 5786   5.864   3.222   2.052 -0.0327 -0.2792 -0.0059
 1736W        W 5787   3.887   5.890   3.259 -0.0838  0.0065 -0.0848
 1737W        W 5788   8.721   3.318  13.282  0.2067 -0.0455  0.0480
 1738W        W 5789   9.337   0.260   4.259  0.0147 -0.0156 -0.1014
 1739W        W 5790   8.320   9.834   0.874  0.0287 -0.0477  0.2169
 1740W        W 5791   7.506   0.860  13.967  0.0634  0.1086 -0.1931
 1741W        W 5792   6.007   6.072   1.829 -0.1696 -0.2800  0.0177
 1742W        W 5793   8.168   5.947  12.150 -0.0761  0.0260  0.0346
 1743W        W 5794   3.339   9.815  12.433 -0.3511 -0.3522 -0.0440
 1744W        W 5795   7.003   3.052   5.464  0.0756  0.0334 -0.2163
 1745W        W 5796   8.987   8.553   1.476  0.0191  0.1364  0.1376
 1746W        W 5797   0.526   8.101  12.664  0.0393 -0.0331 -0.2956
 1747W        W 5798   7.935   3.803   4.561  0.2966  0.0115  0.2408
 1748W        W 5799   6.011   6.971  12.532 -0.0343  0.1839 -0.3187
 1749W        W 5800   0.504   0.390  12.190  0.0101 -0.0849  0.4024
 1750W        W 5801   1.895   0.226   0.357 -0.2978  0.1538 -0.0953
 1751W        W 5802   2.443   2.721  12.189  0.2929 -0.3565 -0.1431
 1752W        W 5803   3.742   9.631   9.216  0.2320  0.0681  0.0723
 1753W        W 5804   1.291   2.941  11.471 -0.1568  0.0185 -0.0296
 1754W        W 5805   0.964   6.051   0.381 -0.2154  0.0240  0.1008
 1755W        W 5806   1.767   0.952   4.698  0.0439  0.1516  0.3811
 1756W        W 5807   3.180   1.693   2.509 -0.0944 -0.0087  0.0620
 1757W        W 5808   7.043   8.600   1.490 -0.2914  0.2373  0.1194
 1758W        W 5809   3.811   9.363  13.309  0.1224  0.2203 -0.1241
 1759W        W 5810   9.351   0.178  13.952  0.2041  0.3190 -0.2144
 1760W        W 5811   9.207   4.455   4.130 -0.0862  0.0184  0.1059
 1761W        W 5812   2.774   7.457  10.762 -0.1389 -0.0096  0.0419
 1762W        W 5813   3.880   8.479   0.874 -0.0585  0.2196 -0.0169
 1763W        W 5814   4.178   6.346   0.209 -0.1704 -0.0295 -0.2112
 1764W        W 5815   6.322   7.537  13.639 -0.5651  0.3085  0.0757
 1765W        W 5816   3.257   2.505   4.985  0.0184  0.0309 -0.0563
 1766W        W 5817   5.470   7.118   2.139 -0.0870  0.0022  0.0023
 1767W        W 5818   1.497   9.183   3.317 -0.1218 -0.2634  0.2378
 1768W        W 5819   6.559   3.615  10.390  0.0479  0.0587  0.0199
 1769W        W 5820   4.371   8.975  13.193  0.0314  0.1015 -0.3122
 1770W        W 5821   0.037   6.160  11.806 -0.2366  0.2004  0.2796
 1771W        W 5822   0.648   3.354  11.656 -0.1160 -0.1377  0.1379
 1772W        W 5823   8.474   2.721   0.308 -0.0791  0.2804 -0.0518
 1773W        W 5824   3.419   1.543   3.296 -0.1721  0.1608  0.0837
 1774W        W 5825   1.245   9.620   3.459 -0.1973  0.0124  0.4790
 1775W        W 5826   7.458   9.182   4.633  0.5178  0.2346 -0.2594
 1776W        W 5827   3.234   3.144   5.354  0.1561 -0.0550 -0.1108
 1777W        W 5828   6.090   2.175   3.597  0.1161  0.1061 -0.1409
 1778W        W 5829   3.159   8.194  12.881  0.1652 -0.0441  0.1238
 1779W        W 5830   7.600   0.181  12.535 -0.3620  0.3179 -0.0015
 1780W        W 5831   8.066   0.856   1.170 -0.1318 -0.2418  0.1482
 1781W        W 5832   9.877   3.834   9.933 -0.1453  0.0853 -0.1097
 1782W        W 5833   8.353   6.136   4.303 -0.2518  0.1206  0.1066
 1783W        W 5834   4.712   8.206   3.838 -0.0184 -0.3872 -0.2024
 1784W        W 5835   6.961   5.530  10.366  0.2614 -0.2517  0.0633
 1785W        W 5836   1.323   0.566   3.275  0.2075  0.3535  0.1954
 1786W        W 5837   9.378   9.529  10.881 -0.2324  0.3552  0.5250
 1787W        W 5838   9.413   2.727  10.916  0.1959 -0.2862  0.0534
 1788W        W 5839   6.897   8.100   1.640  0.0350 -0.1550  0.0034
 1789W        W 5840   3.407   8.390  13.836 -0.4520 -0.5728 -0.0315
 1790W        W 5841   5.761   3.194   1.529 -0.1788  0.1314 -0.1466
 1791W        W 5842   5.009   4.604   2.745  0.3050 -0.0096 -0.3564
 1792W        W 5843   8.344   3.455   0.909 -0.3259 -0.1534  0.0433
 1793W        W 5844   8.168   1.321  12.964  0.1131  0.0806  0.2354
 1794W        W 5845   5.788   5.150   9.584  0.0031 -0.0883 -0.2899
 1795W        W 5846   3.599   6.439   2.535  0.2820  0.1567  0.1532
 1796W        W 5847   4.146   3.381  11.704 -0.1581 -0.1774  0.2276
 1797W        W 5848   8.769   1.918   2.558  0.2923  0.0486 -0.3206
 1798W        W 5849   1.659   1.646   2.976 -0.0132 -0.0064  0.1680
 1799W        W 5850   9.852   6.227   4.178  0.0774 -0.0727  0.1663
 1800W        W 5851   1.436   3.234   0.998 -0.3280 -0.0799 -0.2501
 1801W        W 5852   1.006   1.835  10.099  0.1627  0.2121 -0.1794
 1802W        W 5853  10.134   7.347  11.678 -0.0656 -0.0332 -0.1280
 1803W        W 5854   1.540   3.196   4.198 -0.2393  0.1987 -0.5607
 1804W        W 5855   4.083   6.855   4.962 -0.2739 -0.1980 -0.1705
 1805W        W 5856   7.650   0.892  11.184  0.1016 -0.1484 -0.3067
 1806W        W 5857   3.911   3.877   0.620  0.1266 -0.0007 -0.1568
 1807W        W 5858   8.821   3.993  10.524  0.0036  0.3483  0.2403
 1808W        W 5859   1.038   2.529  13.955  0.1254  0.0115 -0.2540
 1809W        W 5860   0.776   1.524   1.731  0.2015  0.0422  0.2548
 1810W        W 5861   5.068   2.957  11.808 -0.0620 -0.1379  0.0780
 1811W        W 5862   9.272   0.166  10.079  0.2702 -0.4361 -0.0086
 1812W        W 5863   7.022   4.546  10.085 -0.1041 -0.0114 -0.2219
 1813W        W 5864   6.764   9.504   5.157  0.1441  0.0281 -0.1088
 1814W        W 5865   4.772   5.780  13.781 -0.2075 -0.4038 -0.1540
 1815W        W 5866   8.000   5.000  12.000  0.1631 -0.0087 -0.0211
 1816W        W 5867   9.412   9.415   3.887 -0.1215  0.0497 -0.2448
 1817W        W 5868   8.690   3.044  10.729  0.2536 -0.1560  0.4021
 1818W        W 5869   7.136  10.085   2.436  0.1466 -0.2353 -0.0730
 1819W        W 5870   8.183   1.348   1.380 -0.1528  0.2196 -0.1597
 1820W        W 5871   3.838   2.381   0.394  0.1554 -0.1290 -0.0826
 1821W        W 5872   5.792   9.819  11.082  0.1696  0.0559  0.1008
 1822W        W 5873   5.838   3.580  12.665  0.1060  0.0926 -0.1315
 1823W        W 5874   1.020   9.588   0.596  0.0626 -0.0998  0.1131
 1824W        W 5875   2.834   5.051  10.913 -0.0753  0.1280  0.0028
 1825W        W 5876   7.253   3.986   9.928 -0.3525 -0.1981 -0.3517
 1826W        W 5877   5.752   3.824  11.344 -0.2535  0.3779 -0.1644
 1827W        W 5878   7.163   3.305   3.678 -0.2730 -0.1827  0.0885
 1828W        W 5879   6.552   2.946   0.069  0.0291  0.0161  0.0099
 1829W        W 5880   1.526   6.733   0.792  0.2179 -0.0941  0.0330
 1830W        W 5881   4.026   7.423   3.911 -0.1975 -0.2150  0.1874
 1831W        W 5882   0.036   5.962  13.965 -0.2222  0.2461  0.0995
 1832W        W 5883   2.914   6.894   3.353 -0.0536 -0.2097  0.0419
 1833W        W 5884   9.512   5.002   2.369 -0.0859  0.3497  0.2059
 1834W        W 5885   3.802   2.453   2.273 -0.2896 -0.1293  0.2966
 1835W        W 5886   4.450   0.328   1.932  0.0085  0.5883  0.1799
 1836W        W 5887   3.256   2.980   4.887  0.1599  0.0962 -0.0842
 1837W        W 5888   8.537   4.662   2.792  0.2854  0.1617 -0.0565
 1838W        W 5889   8.245   8.033   3.869  0.2847  0.1398 -0.0983
 1839W        W 5890   9.283   2.523  11.352  0.2730 -0.1749 -0.0398
 1840W        W 5891   0.404   5.039  10.902 -0.0607 -0.2180  0.0185
 1841W        W 5892   9.229   8.057  10.818  0.3245 -0.1262  0.0378
 1842W        W 5893   6.102   5.626   4.268  0.2047 -0.0347 -0.1581
 1843W        W 5894   2.373   9.718  11.402  0.2378 -0.0194 -0.1626
 1844W        W 5895   7.338   9.489  12.876  0.2763  0.0071  0.0913
 1845W        W 5896   9.997   6.912  13.388  0.1271  0.1270 -0.4335
 1846W        W 5897   7.990   1.676  10.676  0.0629  0.0470 -0.0818
 1847W        W 5898   6.964   2.352   3.109 -0.0841  0.4259  0.3231
 1848W        W 5899   0.222   5.647   8.782  0.1834 -0.0010  0.1688
 1849W        W 5900   2.622   4.132  11.659 -0.1180  0.0806 -0.0888
 1850W        W 5901   8.585   1.433  11.939 -0.0854 -0.0891 -0.0913
 1851W        W 5902   2.310   2.572  10.231 -0.1952  0.0093 -0.0001
 1852W        W 5903   4.775   5.953  10.036 -0.1790 -0.2707  0.1478
 1853W        W 5904   1.334   2.295   9.688  0.0042  0.0925  0.1977
 1854W        W 5905   5.328   4.410   2.372  0.1289 -0.2144  0.3988
 1855W        W 5906   2.558   7.209   2.146  0.0170 -0.2386  0.0701
 1856W        W 5907   2.598   7.420   1.550 -0.0075 -0.2644 -0.0746
 1857W        W 5908   5.211   1.289   2.277  0.0687  0.0028  0.2872
 1858W        W 5909   6.606   9.961  12.399  0.1314  0.1066  0.1164
 1859W        W 5910   8.000   0.430   1.455 -0.0772 -0.0654 -0.4572
 1860W        W 5911   6.667   4.884  10.184  0.2505  0.0035  0.1200
 1861W        W 5912   6.538   7.526  13.209  0.1025 -0.2588  0.0369
 1862W        W 5913   1.353   4.251  13.398 -0.0417  0.0046 -0.0952
 1863W        W 5914  10.154   9.829   0.789 -0.2591 -0.1025 -0.1293
 1864W        W 5915   1.266   0.306   2.850 -0.2089  0.1579 -0.0225
 1865W        W 5916   3.207   6.275  10.223  0.3866  0.0525 -0.1233
 1866W        W 5917   0.394   6.817   1.646  0.0698 -0.4812 -0.0183
 1867W        W 5918   8.347   4.464  11.932  0.2598  0.1074 -0.0259
 1868W        W 5919   0.788   1.760   2.901  0.0056  0.2951  0.0793
 1869W        W 5920   2.168   0.594  12.370  0.0560 -0.1713 -0.0622
 1870W        W 5921   5.880   0.585  10.988 -0.2090 -0.1816 -0.0344
 1871W        W 5922   0.282   8.472   3.042 -0.1630  0.2544  0.3614
 1872W        W 5923   9.317   7.426   4.295 -0.1434  0.0966  0.2070
 1873W        W 5924   4.832   6.573   9.494 -0.0775  0.1053 -0.0557
 1874W        W 5925   5.405   2.293   3.100  0.4154  0.2427 -0.0375
 1875W        W 5926   1.000   7.569   9.707 -0.1810 -0.3095 -0.2231
 1876W        W 5927   3.898   9.938   4.114 -0.2521  0.1239  0.0804
 1877W        W 5928   1.163   3.119   9.362  0.1416 -0.2645  0.0299
 1878W        W 5929   7.608   1.570  10.396 -0.0128  0.2382  0.3349
 1879W        W 5930   6.545   1.131  11.925  0.0602  0.0444 -0.0287
 1880W        W 5931   4.262   0.918  12.639  0.0841 -0.1478  0.2654
 1881W        W 5932   3.516   6.081   3.580 -0.0433 -0.1623 -0.0964
 1882W        W 5933   3.656   4.347   8.794 -0.1573 -0.0745 -0.2521
 1883W        W 5934   3.999   0.826   4.277  0.1436 -0.0359 -0.2922
 1884W        W 5935   3.346   5.478   2.703 -0.0486 -0.3007 -0.3422
 1885W        W 5936   3.748   8.703  10.377  0.2176 -0.1030  0.1585
 1886W        W 5937   8.535   8.251  11.478 -0.1127 -0.0839 -0.1940
 1887W        W 5938   9.766   9.574   3.053  0.4280 -0.0539  0.0831
 1888W        W 5939   9.774   3.882   2.548  0.2163  0.0401  0.4495
 1889W        W 5940   6.177   9.274   9.053 -0.1253 -0.1342  0.0359
 1890W        W 5941   6.067   1.307   1.720  0.1502 -0.1851 -0.0959
 1891W        W 5942   2.276   3.897  12.051 -0.2467 -0.1478 -0.0447
 1892W        W 5943   1.902   9.812  13.348 -0.1624  0.0328  0.1385
 1893W        W 5944   5.291   1.544   0.143  0.0784  0.3024  0.1373
 1894W        W 5945   4.937   6.107  10.626  0.0537  0.5438 -0.3724
 1895W        W 5946   1.181   5.195  12.157  0.0842  0.0703 -0.2838
 1896W        W 5947   0.102   4.115   4.143  0.0166 -0.1443 -0.3858
 1897W        W 5948   4.584   5.038   0.401 -0.3996  0.2042  0.0660
 1898W        W 5949   1.426   3.970   0.431 -0.3656  0.2322 -0.1258
 1899W        W 5950   2.410   0.566   9.989 -0.0679 -0.3248  0.0342
 1900W        W 5951   8.411   0.245   3.216 -0.2001 -0.0622 -0.1355
 1901W        W 5952   1.937   6.684  10.606 -0.0230  0.1035 -0.1790
 1902W        W 5953   9.794   1.281   2.843 -0.1777  0.1453  0.1669
 1903W        W 5954   7.218   5.168   0.829 -0.2786 -0.4120  0.0762
 1904W        W 5955   5.348   3.575   4.177  0.0365  0.3920  0.0912
 1905W        W 5956   4.717   2.060   9.668 -0.0675  0.1684 -0.0923
 1906W        W 5957  10.105   0.672  10.834  0.0526 -0.2372 -0.2271
 1907W        W 5958   3.484   1.638  12.895 -0.2785 -0.1133  0.0089
 1908W        W 5959   1.600   1.421  13.006 -0.0907  0.4972 -0.0448
 1909W        W 5960   4.071   3.116  13.573  0.1626 -0.1565  0.0019
 1910W        W 5961   2.043   4.936   1.822  0.0710 -0.2442  0.0682
 1911W        W 5962   4.598   8.832  11.939 -0.2990  0.2327  0.0960
 1912W        W 5963   7.185   1.019   3.740  0.0417  0.1567  0.1282
 1913W        W 5964   5.780   0.230   0.947 -0.2581 -0.1102  0.0279
 1914W        W 5965   6.157   2.508   4.017  0.0670  0.0699  0.0385
 1915W        W 5966   5.461   9.014   4.866 -0.0403  0.1283  0.0286
 1916W        W 5967   7.373   6.901   0.294  0.0740 -0.1109  0.0540
 1917W        W 5968   4.431   9.418   3.014 -0.0019 -0.1870  0.0826
 1918W        W 5969   1.243   2.113  13.751  0.1932 -0.3013 -0.0421
 1919W        W 5970   9.348   9.971   4.080  0.2644 -0.2029 -0.0542
 1920W        W 5971   0.189   3.080  13.021  0.0351  0.0259 -0.5467
 1921W        W 5972   9.292   0.171  13.449  0.1306  0.2523 -0.3347
 1922W        W 5973   7.213   2.398  11.400  0.1918  0.1755 -0.1902
 1923W        W 5974   4.654   1.030   1.524  0.2312 -0.1775  0.2938
 1924W        W 5975   9.543   8.179   4.044  0.0854  0.2672 -0.0768
 1925W        W 5976   2.502   2.997   2.293  0.3390 -0.1188 -0.0919
 1926W        W 5977   8.552   9.355   1.905 -0.0490 -0.1377  0.1513
 1927W        W 5978   8.681   5.829  12.406  0.2165  0.2282 -0.0158
 1928W        W 5979   8.864   7.725   2.214  0.1786 -0.1628 -0.1412
 1929W        W 5980   8.584   8.728   1.195 -0.2246 -0.0269 -0.0579
 1930W        W 5981   6.517   8.074   2.033  0.0201  0.1910  0.0795
 1931W        W 5982   7.932   8.507   0.779  0.0663  0.2240  0.0139
 1932W        W 5983   6.404   1.280  13.133  0.2393  0.1580  0.1660
 1933W        W 5984   7.601   9.625   1.948  0.0078 -0.0016  0.0908
 1934W        W 5985   1.686   0.393   4.052  0.0501  0.2635  0.0437
 1935W        W 5986   3.115   7.994  12.360 -0.1169 -0.3671  0.1612
 1936W        W 5987   9.443   2.248   1.597 -0.2359  0.1976  0.0840
 1937W        W 5988   6.067   0.201  11.903 -0.3017  0.0013 -0.0008
 1938W        W 5989   2.583   2.454   0.244  0.0214 -0.2271 -0.1856
 1939W        W 5990   7.888   9.369  12.531 -0.5249  0.1098 -0.0402
 1940W        W 5991   7.332   0.599  13.372 -0.2106 -0.3798 -0.0500
 1941W        W 5992   0.002   3.021  10.760 -0.0119 -0.1553 -0.1483
 1942W        W 5993   4.433   3.931   0.841 -0.0805 -0.0068  0.0828
 1943W        W 5994   7.709   5.810   9.304 -0.2153 -0.1688 -0.0082
 1944W        W 5995   1.517   6.777   2.695 -0.0301  0.0966  0.2581
 1945W        W 5996   9.227   8.184   1.084 -0.2314  0.1152 -0.1645
 1946W        W 5997   9.534   8.114  11.682  0.1233 -0.1361 -0.3102
 1947W        W 5998   3.718   8.540   0.391 -0.4734  0.0920 -0.0619
 1948W        W 5999   5.392   8.840   5.356 -0.1634  0.0441 -0.0368
 1949W        W 6000   6.626   2.111   0.584 -0.0102  0.1440 -0.3364
 1950W        W 6001   7.206   8.970   3.335  0.3232 -0.1234 -0.4908
 1951W        W 6002   1.913   0.562   0.717  0.1640 -0.1042 -0.3137
 1952W        W 6003   7.006   8.824   0.147 -0.1355  0.0564  0.0764
 1953W        W 6004   3.453   6.574   2.030  0.0573 -0.0702  0.1779
 1954W        W 6005   3.717   9.254   0.921 -0.3076  0.1254  0.3108
 1955W        W 6006   1.278   9.865  12.324  0.2351 -0.0432  0.2286
 1956W        W 6007   8.876   6.832   2.574  0.1027  0.4019 -0.0432
 1957W        W 6008   4.771   5.232  13.133  0.1927 -0.2316  0.1620
 1958W        W 6009   3.326   5.802   3.987  0.0192  0.0838  0.3130
 1959W        W 6010   6.863   3.564   5.477  0.0796  0.2907  0.3905
 1960W        W 6011   0.289   9.936  11.303  0.1972 -0.1690  0.0695
 1961W        W 6012   9.182   9.173   2.704 -0.0630 -0.1953 -0.0022
 1962W        W 6013   0.856   6.708  13.130  0.1847 -0.0223 -0.0081
 1963W        W 6014   6.462   4.538   9.898  0.0141  0.1382  0.0381
 1964W        W 6015   6.755   8.378  13.406  0.0814 -0.1119  0.4437
 1965W        W 6016   8.551   9.395  10.230 -0.3602  0.1928 -0.1510
 1966W        W 6017   8.132   6.224  13.567  0.2740 -0.0510 -0.0006
 1967W        W 6018   6.768   1.441   9.752 -0.0477 -0.4696  0.1711
 1968W        W 6019   4.312   3.646  12.906  0.2237  0.1083 -0.0275
 1969W        W 6020   7.829   1.400   4.305 -0.3675 -0.2656  0.0531
 1970W        W 6021   1.009   2.105  10.592  0.0203  0.0096 -0.1148
 1971W        W 6022   2.139   7.609  10.432  0.2225  0.1403  0.0715
 1972W        W 6023   7.932   3.169   0.834  0.3360  0.0028 -0.0516
 1973W        W 6024   7.920   1.467  12.032 -0.3073  0.0049  0.2583
 1974W        W 6025   9.452   0.049  11.330 -0.3336  0.0158  0.0626
 1975W        W 6026   1.490   8.151  11.089 -0.3521 -0.1194 -0.0750
 1976W        W 6027   1.723   3.362  10.192 -0.0429 -0.0806 -0.0552
 1977W        W 6028   5.467   1.262   9.656 -0.2295  0.0711  0.2848
 1978W        W 6029   7.322   6.783  13.081 -0.0723 -0.4097 -0.3364
 1979W        W 6030   9.867   8.719  10.875 -0.1310 -0.0997  0.1976
 1980W        W 6031   4.952   2.757  10.303 -0.0165  0.0409  0.0109
 1981W        W 6032   1.634   2.317   2.785  0.1284 -0.3801 -0.1461
 1982W        W 6033   3.249   6.195   1.603  0.0825 -0.3321 -0.1501
 1983W        W 6034   8.244   2.416   0.670  0.0982 -0.0046  0.0507
 1984W        W 6035   7.924   8.927   1.108  0.0559 -0.0039  0.1241
 1985W        W 6036   2.751   0.015   0.980  0.0153 -0.1169 -0.1694
 1986W        W 6037   7.402   1.075   4.221 -0.1247 -0.2193 -0.2293
 1987W        W 6038   8.978   9.051  13.133 -0.1158 -0.1198  0.0287
 1988W        W 6039   2.227   0.248  11.761  0.2007 -0.1301  0.0254
 1989W        W 6040   7.877   8.224   2.099  0.3758  0.0518  0.0634
 1990W        W 6041   8.856   7.813   0.642  0.1936 -0.3061 -0.0267
 1991W        W 6042   3.733   8.885  10.911  0.0209 -0.0290  0.2338
 1992W        W 6043   3.045   2.053  12.175 -0.0803  0.0765  0.0354
 1993W        W 6044   1.731   0.972   1.662 -0.2127 -0.1559  0.2533
 1994W        W 6045   3.316   7.328   2.751  0.1960  0.1337 -0.2522
 1995W        W 6046   6.907   1.819  11.889  0.1449 -0.1003 -0.3002
 1996W        W 6047  10.105   5.068  12.040  0.3474  0.0631 -0.0376
 1997W        W 6048   5.511   2.682   0.686  0.0006  0.1459  0.1731
 1998W        W 6049   8.374   7.773  11.182 -0.0808  0.0135  0.1922
 1999W        W 6050   0.244   4.668   2.787  0.1053  0.0602  0.0986
 2000W        W 6051   4.801   0.447   2.257 -0.0046  0.0015 -0.0225
 2001W        W 6052   2.356   4.631   1.758 -0.1787  0.3735 -0.1236
 2002W        W 6053   4.450   1.804   2.590 -0.0209 -0.2107  0.0922
 2003W        W 6054   0.093   8.865   3.450  0.1778 -0.2011  0.3693
 2004W        W 6055   8.219   9.373   2.713  0.2416 -0.3499  0.2430
 2005W        W 6056   7.780   0.046  13.647  0.0552 -0.2099 -0.1504
 2006W        W 6057   4.409   2.432   4.545 -0.1551 -0.1182 -0.0364
 2007W        W 6058   8.451   4.787  10.807  0.2760 -0.0646  0.0935
 2008W        W 6059   1.129   5.195   1.699 -0.2086  0.1580  0.2156
 2009W        W 6060   1.462   5.450   9.715  0.0924  0.0401  0.0621
 2010W        W 6061   0.160   3.858   2.479 -0.0088  0.0170 -0.3484
 2011W        W 6062   1.904   3.984   3.931 -0.1812 -0.0591  0.1182
 2012W        W 6063   4.519   5.520  12.266  0.0220  0.1100 -0.0099
 2013W        W 6064   6.379   4.533   4.452 -0.3520 -0.0980  0.2236
 2014W        W 6065   6.365   5.015   0.272 -0.0233  0.0622  0.1103
 2015W        W 6066   4.203   1.929   9.735 -0.1362  0.0491  0.0867
 2016W        W 6067   8.922   0.292   2.630  0.2105  0.0598  0.0355
 2017W        W 6068   8.397   2.064  11.867 -0.1729 -0.0471  0.2368
 2018W        W 6069   5.749   8.263  13.767 -0.2575 -0.1465  0.0250
 2019W        W 6070   6.260   9.403   2.743 -0.0959 -0.0628  0.2528
 2020W        W 6071   2.491   0.384  12.930  0.1688  0.0569  0.0049
 2021W        W 6072   4.126   9.994  13.452  0.1232 -0.0574 -0.1149
 2022W        W 6073   7.590   1.724  10.955 -0.1757  0.2447 -0.0625
 2023W        W 6074   0.778   9.464   3.322 -0.2371  0.0020  0.0989
 2024W        W 6075   9.722   4.344   4.162  0.1790  0.1372  0.1420
 2025W        W 6076   2.303   1.983  10.155 -0.4779  0.0472 -0.1088
 2026W        W 6077   8.633   9.692   9.139  0.3925 -0.0455 -0.5489
 2027W        W 6078   2.817   0.787  11.591 -0.2179 -0.0911 -0.3220
 2028W        W 6079   1.301   4.173  10.578 -0.0973 -0.3379 -0.3568
 2029W        W 6080   5.546   5.097   3.693 -0.2559 -0.1782  0.1359
 2030W        W 6081   7.409   8.764   1.153 -0.0289 -0.1681  0.3910
 2031W        W 6082   8.858   6.509   3.570  0.0027  0.2267 -0.1598
 2032W        W 6083   2.360   8.304  11.670  0.0359  0.2829  0.3222
 2033W        W 6084   1.405   3.071   3.197 -0.2551 -0.3815 -0.0289
 2034W        W 6085   7.798   1.642   1.419 -0.2590 -0.0477 -0.1642
 2035W        W 6086   9.057   6.729  12.353  0.1128 -0.1111 -0.0442
 2036W        W 6087   5.162   9.693  10.551  0.0176  0.0177  0.0162
 2037W        W 6088   5.083   1.675   9.650 -0.2329  0.0615 -0.3417
 2038W        W 6089   9.287   0.857  11.450  0.0124  0.3526 -0.2885
 2039W        W 6090   1.276   4.957   2.229 -0.0047 -0.1029  0.1798
 2040W        W 6091   1.160   2.036   4.904 -0.4996  0.0973  0.0260
 2041W        W 6092   3.521   6.147   4.863 -0.1174  0.0020 -0.2808
 2042W        W 6093   9.515   3.649  12.905  0.1851 -0.0016  0.0657
 2043W        W 6094   8.843   9.984  12.239 -0.2897  0.2697  0.2505
 2044W        W 6095   5.817   1.936  10.339  0.2025  0.1983  0.0355
 2045W        W 6096   0.402   5.499   4.956  0.0126  0.2935  0.2449
 2046W        W 6097   3.361   3.165   1.550 -0.0574  0.1708 -0.2671
 2047W        W 6098   2.837   3.237  10.570  0.1925 -0.5659 -0.1187
 2048W        W 6099   5.377   1.265   2.902 -0.0714 -0.0099  0.2633
 2049W        W 6100   1.438   2.271   0.816  0.2269  0.1653  0.4643
 2050W        W 6101   6.478   4.357   1.604 -0.0357  0.1867 -0.1678
 2051W        W 6102   4.841   8.412  10.369  0.2823  0.1346 -0.1334
 2052W        W 6103   3.729   4.515   3.653  0.0529 -0.0545  0.0625
 2053W        W 6104   9.382   2.714   9.581 -0.2005 -0.0552  0.2221
 2054W        W 6105   9.673   7.668  12.424 -0.1564 -0.3582 -0.2706
 2055W        W 6106   0.361   5.760  12.013  0.2538 -0.2359  0.0618
 2056W        W 6107   6.353  10.013  13.721 -0.0619  0.0687 -0.0312
 2057W        W 6108   6.088   8.422  11.525 -0.0501  0.0960 -0.0045
 2058W        W 6109   4.966   0.321  11.120  0.2020 -0.3117  0.0416
 2059W        W 6110   8.116   0.820   3.043  0.0902  0.0467 -0.2158
 2060W        W 6111   9.660   9.661  11.901  0.2869  0.2199 -0.1515
 2061W        W 6112   5.129   7.916   1.856  0.1318  0.0423  0.0242
 2062W        W 6113   2.494   2.431   1.532 -0.0506  0.5187 -0.1088
 2063W        W 6114   8.931   2.834  11.146  0.0275  0.1392 -0.1453
 2064W        W 6115   6.868   0.331  13.110  0.2143  0.0038 -0.1984
 2065W        W 6116   1.838   5.130   9.585  0.2115 -0.1232  0.0080
 2066W        W 6117   9.271   7.680  11.653 -0.0746 -0.0936  0.2319
 2067W        W 6118   1.807  10.088  11.723 -0.2415  0.0271 -0.0758
 2068W        W 6119   6.448   4.877   0.778 -0.2640  0.2343  0.0394
 2069W        W 6120   2.482   8.245   0.572  0.0429  0.0115  0.3129
 2070W        W 6121  10.052   4.798   4.016  0.3154  0.0336 -0.1080
 2071W        W 6122   7.515   8.460  10.302  0.3384 -0.0342 -0.1727
 2072W        W 6123   9.849   2.971   2.274  0.1649 -0.1430  0.0503
 2073W        W 6124   7.810   7.882  11.259 -0.1441  0.1573 -0.4993
 2074W        W 6125   5.745   5.557  10.439 -0.0362 -0.0136  0.2283
 2075W        W 6126   8.305   4.092  12.338  0.0157 -0.1178 -0.0066
 2076W        W 6127   6.875   3.053   2.342  0.0085  0.2579 -0.1887
 2077W        W 6128   3.876   6.035  12.219  0.0876 -0.0627  0.4003
 2078W        W 6129   0.515   7.080   4.237 -0.1281 -0.0506 -0.0697
 2079W        W 6130   9.506   3.460   2.220 -0.2626  0.0622 -0.0920
 2080W        W 6131   4.516   3.057   2.363  0.4273  0.0539 -0.3034
 2081W        W 6132   7.210   7.587   4.632 -0.1833 -0.2389  0.0216
 2082W        W 6133   3.435   0.026   2.139  0.0581  0.2500 -0.0262
 2083W        W 6134   0.955   5.372  11.309 -0.0195  0.0931  0.0408
 2084W        W 6135   1.621   2.702  11.073  0.0406  0.0680 -0.0230
 2085W        W 6136   2.764   8.637   3.171  0.3765 -0.0826 -0.3055
 2086W        W 6137   6.641   0.019   3.061  0.0290 -0.2275 -0.0541
 2087W        W 6138   1.956   6.324   1.509 -0.0289 -0.3531  0.2394
 2088W        W 6139   8.830   3.996  13.833 -0.1227 -0.2097 -0.0164
 2089W        W 6140   2.092   3.273   0.419  0.2547 -0.1714  0.4085
 2090W        W 6141   3.986   9.317   3.445 -0.0376  0.1963 -0.1204
 2091W        W 6142   1.732   3.553   0.227 -0.1002  0.2472  0.1976
 2092W        W 6143   6.703   1.709   4.102  0.0542 -0.1506  0.0040
 2093W        W 6144   3.634   8.477  12.182  0.2554 -0.0712 -0.0076
 2094W        W 6145   9.676   7.016   4.459  0.0319  0.0880  0.2154
 2095W        W 6146   9.519   2.758  10.382  0.1398  0.1317 -0.0270
 2096W        W 6147   8.038   8.555   4.079 -0.3425 -0.0933 -0.4807
 2097W        W 6148  10.018   3.210   4.616  0.3108 -0.1505  0.0241
 2098W        W 6149   0.096   9.800  12.471  0.1526  0.1986  0.0827
 2099W        W 6150   2.401   1.707  13.600  0.1476 -0.0574  0.1305
 2100W        W 6151   5.413   9.426  10.204 -0.0999  0.4042  0.0014
 2101W        W 6152   2.825   0.627  12.065 -0.3141  0.0128  0.0903
 2102W        W 6153   1.680   0.986   1.077  0.2426 -0.2605 -0.1107
 2103W        W 6154   7.769   7.655  13.444  0.1061 -0.0167 -0.2084
 2104W        W 6155   0.601   9.460  10.965 -0.1216 -0.6825 -0.1575
 2105W        W 6156   5.261   6.847  13.291 -0.0903 -0.2180 -0.3286
 2106W        W 6157   7.690   4.738   1.964 -0.3143  0.0234  0.0981
 2107W        W 6158   4.004   7.572  10.254  0.0703  0.2686 -0.1583
 2108W        W 6159   3.747   2.326   2.828  0.1676  0.3471  0.3608
 2109W        W 6160   1.626   1.910  13.020 -0.1213 -0.0858  0.1349
 2110W        W 6161   3.041   6.431   0.125  0.0697 -0.3653  0.1652
 2111W        W 6162   7.624   8.365   8.726  0.1216  0.1168 -0.1583
 2112W        W 6163   8.676   9.513   0.993 -0.0055  0.0725 -0.1196
 2113W        W 6164   5.259   0.909   0.538  0.2850  0.1764 -0.1348
 2114W        W 6165   7.018   8.308   2.088  0.2499  0.0497  0.1127
 2115W        W 6166   3.532   3.639   1.501 -0.0717 -0.2908  0.1415
 2116W        W 6167   0.318   4.103  10.005 -0.1377  0.1079  0.1466
 2117W        W 6168   7.023   5.151   4.336 -0.1017 -0.0166  0.0596
 2118W        W 6169   1.029   0.158   1.783 -0.2288 -0.1680  0.2307
 2119W        W 6170   9.139   5.372   2.355  0.0038  0.2084  0.0924
 2120W        W 6171   4.192   1.003   2.969 -0.2413  0.2145  0.0278
 2121W        W 6172   0.069   0.661   2.379  0.0051  0.2187  0.0716
 2122W        W 6173   0.847   4.128  10.114 -0.3842 -0.3081 -0.3397
 2123W        W 6174   4.201   0.261   2.413 -0.2245 -0.0161 -0.1081
 2124W        W 6175   9.390   5.670   5.571  0.4509  0.1360 -0.0083
 2125W        W 6176   1.982   2.987  10.942 -0.1136  0.1491  0.0535
 2126W        W 6177   4.177   8.125   0.717  0.1454  0.2382 -0.1321
 2127W        W 6178   4.967   2.336  10.043 -0.0144  0.1719 -0.0717
 2128W        W 6179   0.945   9.371  13.449  0.3957 -0.1094  0.1168
 2129W        W 6180   6.512   9.779   4.837 -0.0596  0.1037 -0.0656
 2130W        W 6181   9.596   7.163   2.206 -0.1429  0.0167  0.1271
 2131W        W 6182   0.206   8.001   9.883  0.1720  0.1195  0.0746
 2132W        W 6183   2.254   0.612   0.317 -0.2795  0.2005 -0.1820
 2133W        W 6184   7.985   2.272   2.898  0.1033  0.0826 -0.1385
 2134W        W 6185   5.764   0.201   2.838  0.1780 -0.3142  0.0917
 2135W        W 6186   7.091   4.176   0.342  0.0447 -0.0776 -0.1873
 2136W        W 6187   1.140   5.590   4.932 -0.0636 -0.1135 -0.3605
 2137W        W 6188   6.214   2.292  10.504  0.0869 -0.1152 -0.0050
 2138W        W 6189   6.338   5.662   3.265  0.1730 -0.0070  0.0827
 2139W        W 6190   9.840   4.739   2.129 -0.0559  0.2551  0.0706
 2140W        W 6191   7.797   5.687  12.858  0.0926  0.2211  0.1799
 2141W        W 6192   7.666   5.207   1.181 -0.2017 -0.1436  0.0501
 2142W        W 6193   5.699   3.983   9.992 -0.0927 -0.0159 -0.0122
 2143W        W 6194   6.957   0.740   2.079 -0.1487 -0.2334 -0.2170
 2144W        W 6195   8.531   4.092   3.400 -0.0078 -0.2170 -0.2465
 2145W        W 6196   0.110   3.289  11.714  0.3150  0.2052  0.1619
 2146W        W 6197   3.246   6.122  13.275  0.0469  0.2633  0.3209
 2147W        W 6198   7.106   5.009  10.543 -0.4483 -0.0011 -0.2512
 2148W        W 6199   8.724   2.788   1.964 -0.1082 -0.1733  0.0303
 2149W        W 6200   5.794   9.605   1.305  0.2010  0.0104  0.1739
 2150W        W 6201   8.980   6.226  10.664  0.0809  0.3569 -0.1685
 2151W        W 6202   6.681   7.250   2.196  0.2963  0.0654 -0.1136
 2152W        W 6203   5.405   9.636  13.827  0.2142  0.1216 -0.1241
 2153W        W 6204   1.797   4.158  10.723 -0.0630 -0.2835  0.2915
 2154W        W 6205   4.071   9.012   2.886  0.2657 -0.2719 -0.3287
 2155W        W 6206   4.098   5.783   9.770  0.2716  0.1559 -0.1519
 2156W        W 6207   5.052   4.438   4.470  0.4053 -0.1870 -0.5382
 2157W        W 6208   6.055   5.831  10.119  0.2449  0.0496 -0.0372
 2158W        W 6209   1.121   9.203  10.672  0.0089  0.1465 -0.1300
 2159W        W 6210   3.405   4.812   4.616  0.0720 -0.1964  0.1284
 2160W        W 6211   7.070   6.161   9.910  0.1929  0.1600 -0.0463
 2161W        W 6212   2.175   6.781   0.412  0.3955  0.0215  0.1642
 2162W        W 6213   9.541   3.034  13.559 -0.0009 -0.1090  0.0563
 2163W        W 6214   9.906   0.924   0.593 -0.0844  0.2039  0.1611
 2164W        W 6215   9.306   0.317  10.574 -0.4179 -0.2236 -0.4482
 2165W        W 6216   6.568   2.769   4.196 -0.0272 -0.0709  0.1876
 2166W        W 6217   6.257   1.935  12.439 -0.1361  0.4275  0.0992
 2167W        W 6218   3.889   5.469   0.976 -0.0427 -0.0475 -0.0518
 2168W        W 6219   6.140   7.626  11.941  0.0177 -0.0158  0.2897
 2169W        W 6220   7.158   0.532   2.817  0.0162  0.0527 -0.0651
 2170W        W 6221   5.543   3.085  11.765 -0.1716 -0.0035 -0.3451
 2171W        W 6222   5.864   7.222   0.748  0.2678 -0.3263 -0.0068
 2172W        W 6223   8.921   7.894  10.468  0.1717  0.0969 -0.1208
 2173W        W 6224   2.355   4.123   4.105  0.0245  0.0892  0.1861
 2174W        W 6225   9.029   9.651   4.250 -0.0491 -0.1625  0.1076
 2175W        W 6226   3.499   3.144   2.970 -0.2158  0.0368  0.3500
 2176W        W 6227   9.820   6.742   4.055  0.1637  0.0259 -0.1562
 2177W        W 6228   5.553   2.257  13.370  0.2236 -0.2674 -0.2734
 2178W        W 6229   4.710   6.997   4.159 -0.3528  0.0192  0.1395
 2179W        W 6230   8.846   9.823  13.884 -0.1205  0.0912 -0.0170
 2180W        W 6231   4.075   3.984  11.564 -0.3817  0.4133  0.1518
 2181W        W 6232   4.971   7.713  13.519 -0.1046 -0.3234  0.1350
 2182W        W 6233   9.561   7.610  13.965  0.0568 -0.4651 -0.1543
 2183W        W 6234   8.067   2.728  12.683 -0.3515  0.1077  0.3777
 2184W        W 6235   4.747   7.875  12.465 -0.0837 -0.1718 -0.1987
 2185W        W 6236   3.109   1.355  11.928  0.0377  0.0505 -0.0567
 2186W        W 6237   0.891   7.733  11.028 -0.1542  0.0263  0.1592
 2187W        W 6238   9.754   0.212   9.953  0.0406  0.0684 -0.2232
 2188W        W 6239   6.047   5.883  10.700 -0.1963  0.1710 -0.1582
 2189W        W 6240   2.413   5.567  12.982  0.0296  0.3108 -0.1013
 2190W        W 6241   0.095   9.577  10.498  0.3756  0.1433  0.4236
 2191W        W 6242   2.254   9.800  13.828  0.1725  0.2235 -0.0871
 2192W        W 6243   4.991   1.436   1.028  0.0765 -0.1916  0.0557
 2193W        W 6244   6.194   3.367  11.084  0.0894 -0.2330  0.1233
 2194W        W 6245   5.875   4.953  13.973  0.1032  0.2925 -0.1160
 2195W        W 6246   7.128   6.108   1.175 -0.0864 -0.0801 -0.0912
 2196W        W 6247   3.803   1.109   3.378  0.2727  0.2470 -0.0647
 2197W        W 6248   6.096   1.046  11.669  0.0976 -0.0780  0.1670
 2198W        W 6249   4.336   2.973   4.867 -0.1203 -0.2633 -0.0238
 2199W        W 6250   1.559   8.962  11.417 -0.0559  0.2046 -0.0541
 2200W        W 6251   0.326   3.688   4.148  0.2143 -0.1162  0.3388
 2201W        W 6252   0.081   6.243   0.364  0.3083 -0.4033  0.1121
 2202W        W 6253   3.258   6.632  13.045 -0.0899 -0.1719  0.0470
 2203W        W 6254   9.802   7.308   1.237 -0.1156  0.1802 -0.0510
 2204W        W 6255   0.688   8.648  10.205  0.1536  0.0416  0.1023
 2205W        W 6256   6.205   2.627   3.014 -0.1883  0.0303 -0.1527
 2206W        W 6257   9.886   9.532  12.307  0.1478 -0.4423  0.2696
 2207W        W 6258   0.854   2.373   4.188  0.2466  0.0594  0.1814
 2208W        W 6259   5.989   8.423   4.567  0.2508  0.2143  0.0309
 2209W        W 6260   9.428   6.000  10.409 -0.1074 -0.1631  0.0133
 2210W        W 6261   6.455   1.751   0.921 -0.2377  0.1437  0.4274
 2211W        W 6262   5.793   4.598   3.410 -0.2142 -0.1478 -0.0425
 2212W        W 6263   6.322   0.912   2.669  0.0066 -0.1135 -0.2739
 2213W        W 6264   0.947   9.709  11.900 -0.0341 -0.0607  0.2170
 2214W        W 6265   3.682   6.513  12.075  0.1090 -0.0519  0.0492
 2215W        W 6266   5.907   9.647   5.656 -0.1965  0.0297 -0.2020
 2216W        W 6267   1.829   3.398   1.278 -0.2257 -0.1185  0.1228
 2217W        W 6268   1.480   4.011  13.900  0.0258  0.2896  0.2213
 2218W        W 6269   1.072   5.791   2.984 -0.0710  0.2622  0.0040
 2219W        W 6270   7.314   0.404  12.895 -0.2457 -0.0654 -0.0844
 2220W        W 6271   7.322   4.855  12.701  0.0227 -0.2664 -0.2113
 2221W        W 6272   9.959   3.082   4.120 -0.3520 -0.0224 -0.0392
 2222W        W 6273   8.262   7.458   1.789 -0.4055  0.1847 -0.0962
 2223W        W 6274   6.948   9.219   3.779  0.2612  0.1558  0.0344
 2224W        W 6275   7.736   6.749   9.882 -0.0684 -0.2655  0.0935
 2225W        W 6276   7.882   7.799   1.828  0.1822  0.3213 -0.3932
 2226W        W 6277   0.065   5.159  11.433 -0.3252  0.0296 -0.0683
 2227W        W 6278   3.816   7.282   2.903  0.2294 -0.0119 -0.0588
 2228W        W 6279   4.359   8.510   1.984  0.2447 -0.0193 -0.0323
 2229W        W 6280   8.892   8.658  11.811 -0.1405  0.0934 -0.0553
 2230W        W 6281   5.247   0.469   1.917 -0.0558  0.0233 -0.1019
 2231W        W 6282   0.805   2.011  13.515  0.2457  0.1122  0.1835
 2232W        W 6283   5.053   0.250   1.054 -0.1925 -0.0425  0.1975
 2233W        W 6284   1.562   1.001   0.553 -0.2838  0.3449  0.0070
 2234W        W 6285   5.366   4.136  13.522 -0.0810 -0.4295  0.0590
 2235W        W 6286   6.496   5.484   4.574  0.0101  0.0476  0.0252
 2236W        W 6287   1.715   0.474  12.520  0.2001  0.1473 -0.0190
 2237W        W 6288   9.487   7.266  12.769  0.0926 -0.1301  0.1609
 2238W        W 6289   2.299   8.968  12.642  0.3616  0.0428  0.2424
 2239W        W 6290   5.742   7.911   4.699 -0.3645 -0.2047 -0.0492
 2240W        W 6291   4.064   1.965   1.588 -0.0096  0.3482 -0.1928
 2241W        W 6292   7.329   1.471   1.380 -0.0394  0.0012  0.2220
 2242W        W 6293   7.597   6.562  12.708 -0.0561  0.1959  0.0269
 2243W        W 6294   5.314   3.735   1.503 -0.0465 -0.1201 -0.0061
 2244W        W 6295   3.989   5.586  12.051 -0.3294 -0.1160 -0.4890
 2245W        W 6296   5.317   0.370  12.571  0.0117  0.0636  0.1076
 2246W        W 6297   2.691   6.643  11.201  0.0518  0.4383 -0.0446
 2247W        W 6298   5.061   5.359  10.954  0.0974  0.0806  0.0468
 2248W        W 6299   0.295   0.759   1.293 -0.1741  0.4319 -0.0284
 2249W        W 6300   6.723   3.129   4.585 -0.1101  0.0021 -0.0116
 2250W        W 6301   3.300   8.249  10.636  0.0659  0.6126  0.0872
 2251W        W 6302   6.213   7.661   1.374  0.2286 -0.1287  0.1481
 2252W        W 6303   3.475   3.542   0.067  0.2934 -0.3874  0.2920
 2253W        W 6304   5.301   3.927  11.073  0.0035 -0.3669  0.1687
 2254W        W 6305   1.041   5.048  10.098  0.2210 -0.0931 -0.0058
 2255W        W 6306   3.729   1.262   2.856  0.3730  0.0611 -0.1904
 2256W        W 6307   5.486   0.880   3.361  0.0226  0.1130  0.0194
 2257W        W 6308   2.987   5.822   1.274  0.3397 -0.0580  0.0391
 2258W        W 6309   7.858   3.471   4.880  0.1291  0.0122  0.2159
 2259W        W 6310   6.489   8.944   2.789 -0.0996  0.2916 -0.0614
 2260W        W 6311   8.680   3.184   4.936  0.0879  0.0481 -0.0068
 2261W        W 6312   7.551   3.734   2.048  0.1121  0.3868 -0.1374
 2262W        W 6313   3.780   4.159   4.662  0.2955 -0.2687  0.1638
 2263W        W 6314   6.040   6.660  10.421  0.1043  0.0639  0.0084
 2264W        W 6315   8.406   9.298   3.546  0.0114 -0.1532  0.1548
 2265W        W 6316   5.748   1.697   4.520 -0.0905  0.0447  0.0762
 2266W        W 6317   1.898   6.481   0.039  0.1444 -0.3378  0.2512
 2267W        W 6318   1.971   2.594  13.485  0.1075  0.0255 -0.2098
 2268W        W 6319   7.057   1.877   8.791 -0.0175 -0.0894  0.1777
 2269W        W 6320   3.336   0.092  10.448  0.3849 -0.1837 -0.0462
 2270W        W 6321   2.007   7.514   9.958  0.1129  0.0738 -0.1361
 2271W        W 6322   9.086   0.425   1.582 -0.1798 -0.1884  0.2346
 2272W        W 6323   5.966   1.828  12.072  0.2495 -0.0827  0.2266
 2273W        W 6324   1.192   4.931  12.987  0.3444  0.0137 -0.0962
 2274W        W 6325   6.774   3.247   9.465 -0.1218 -0.0219  0.1288
 2275W        W 6326   0.674   7.203  13.088  0.0480  0.2172  0.1812
 2276W        W 6327   0.838   2.578   2.726  0.0370 -0.0558  0.1366
 2277W        W 6328   5.800   6.007  12.279 -0.1006 -0.2273 -0.0777
 2278W        W 6329   2.571   5.499  11.741  0.1666  0.1245  0.1234
 2279W        W 6330   9.655   9.757   0.519 -0.3904 -0.2509 -0.0250
 2280W        W 6331   8.586   2.967   3.069 -0.2972 -0.1704 -0.0081
 2281W        W 6332   5.667   3.899   2.790 -0.2052  0.2565 -0.0855
 2282W        W 6333   8.718   3.961  12.565  0.0455 -0.1207  0.1427
 2283W        W 6334   7.649   1.132   3.245 -0.1570  0.1219 -0.0481
 2284W        W 6335   6.783   4.590   2.950  0.1469 -0.0559 -0.3986
 2285W        W 6336   3.044   8.147   1.100  0.0991 -0.2566  0.2904
 2286W        W 6337   1.599   4.295  11.629  0.1596  0.3043  0.2070
 2287W        W 6338   2.968   9.327   1.537 -0.2363 -0.0517  0.1797
 2288W        W 6339   4.152   5.002  11.204 -0.0189 -0.0190 -0.3714
 2289W        W 6340   9.618   0.962   0.964  0.2671 -0.0115  0.2476
 2290W        W 6341   3.510   3.950   9.734  0.1942  0.0748 -0.1813
 2291W        W 6342   8.951   0.223  11.632 -0.0493 -0.1771  0.0421
 2292W        W 6343   8.752   8.912   5.063 -0.1147  0.1630  0.4844
 2293W        W 6344   5.354   0.642   3.797 -0.1330 -0.1219 -0.4993
 2294W        W 6345   5.980   8.889   0.982 -0.0920 -0.4329 -0.2270
 2295W        W 6346   1.180   1.719   3.238 -0.0897  0.2031  0.1854
 2296W        W 6347   0.211   9.125  12.961 -0.0744 -0.3810 -0.0896
 2297W        W 6348   2.388   8.986  12.149  0.0507 -0.1012 -0.0499
 2298W        W 6349   3.074   6.787  11.494 -0.1247 -0.3036 -0.0729
 2299W        W 6350   9.667   2.706   3.432 -0.1462  0.2761  0.1838
 2300W        W 6351   5.963   0.037  11.327 -0.0061 -0.0157 -0.1572
 2301W        W 6352   3.715   0.900  11.804 -0.2459  0.0002  0.1842
 2302W        W 6353   2.316   1.905  12.019 -0.1988 -0.0259  0.0717
 2303W        W 6354   4.131   5.077   5.657 -0.2646 -0.0203  0.1431
 2304W        W 6355   1.507   6.275  12.411  0.1153 -0.1179 -0.2868
 2305W        W 6356   8.231   8.716   1.556  0.1975 -0.0211 -0.1402
 2306W        W 6357   6.156   2.069  11.302 -0.0407  0.1326  0.0887
 2307W        W 6358   1.486   4.137   0.961 -0.0686 -0.1168  0.0101
 2308W        W 6359   9.959   3.787  13.691 -0.0121  0.0882  0.1960
 2309W        W 6360   6.891   2.554   4.583 -0.0117 -0.1729 -0.1856
 2310W        W 6361   0.599   4.842  13.574  0.2006  0.1679 -0.1220
 2311W        W 6362   2.889   1.594   1.108  0.1940  0.1269  0.0834
 2312W        W 6363  10.071   3.545   3.845  0.2041 -0.0199 -0.0541
 2313W        W 6364   3.534   3.723  11.009  0.1290  0.0156 -0.0809
 2314W        W 6365   1.804   2.861   3.001  0.2555 -0.2795  0.1805
 2315W        W 6366   4.337   6.030   3.146  0.0863 -0.1623 -0.2838
 2316W        W 6367   9.360   7.595   3.827 -0.1432  0.2696  0.0934
 2317W        W 6368   8.321   3.915   1.202 -0.0794 -0.1295  0.0386
 2318W        W 6369   3.912   4.030  10.058 -0.2411  0.1588 -0.2771
 2319W        W 6370   9.532   6.839   1.345  0.1560  0.3564  0.2307
 2320W        W 6371   2.383   2.669   5.269  0.0348 -0.0219  0.1998
 2321W        W 6372   6.917   9.952  10.683  0.0532  0.1219  0.1999
 2322W        W 6373   6.464   8.564  11.202  0.2330 -0.0246  0.5023
 2323W        W 6374   7.606   4.447  12.008  0.0400  0.1607 -0.0037
 2324W        W 6375   5.192   9.849  12.358 -0.0611 -0.2158  0.1171
 2325W        W 6376   2.185   6.392  13.128 -0.1412 -0.0616 -0.1357
 2326W        W 6377   5.569   4.501  13.327 -0.0276  0.1446  0.1423
 2327W        W 6378   8.360   4.901   9.846 -0.3177  0.1718  0.1100
 2328W        W 6379   6.330   7.086  11.620 -0.0460 -0.0742 -0.2470
 2329W        W 6380   9.765   3.302  11.789 -0.3384  0.0206 -0.0005
 2330W        W 6381   2.470   9.069   1.714  0.1601  0.0286  0.3753
 2331W        W 6382   6.322   7.351   9.692 -0.2438  0.2333  0.1345
 2332W        W 6383   8.052   5.744  13.694  0.1207 -0.1608  0.3387
 2333W        W 6384   6.453   9.643   9.789  0.3717  0.2758  0.0572
 2334W        W 6385   9.726   7.381  10.422 -0.0447  0.3841  0.1194
 2335W        W 6386   8.258   0.955  10.040 -0.2297  0.0523 -0.3442
 2336W        W 6387   3.888   1.972  11.319  0.0266  0.0181  0.0434
 2337W        W 6388   8.971   0.594   9.988  0.1538  0.2932  0.3806
 2338W        W 6389   7.543   8.184  13.148  0.0309  0.3516 -0.0195
 2339W        W 6390   4.768   5.200  11.923  0.0013  0.3352 -0.1318
 2340W        W 6391   5.448   9.464  11.814 -0.1103 -0.1740 -0.1280
 2341W        W 6392   7.273   4.203   3.671  0.2285 -0.1147 -0.0723
 2342W        W 6393   0.105   8.288   0.011  0.3290 -0.2779  0.0261
 2343W        W 6394   3.462   6.451  12.602  0.2424  0.0860 -0.0762
 2344W        W 6395   8.482   4.020  10.922 -0.2378 -0.1691  0.0831
 2345W        W 6396   1.150   0.655   4.196  0.0226  0.2278  0.1120
 2346W        W 6397   6.243   4.051   0.392  0.1591 -0.1692 -0.1201
 2347W        W 6398   9.065   0.345   2.145 -0.3479  0.0231 -0.8545
 2348W        W 6399   4.555   5.244   3.436  0.1555  0.3647  0.1906
 2349W        W 6400   4.057   6.634   1.321 -0.1017  0.1385 -0.0431
 2350W        W 6401   0.223   1.965   9.044  0.0532  0.0176  0.3272
 2351W        W 6402   1.490   3.175   2.312  0.0479  0.0937  0.1196
 2352W        W 6403   2.138   2.683   0.528 -0.1584  0.4301 -0.1086
 2353W        W 6404   1.383   5.124  11.071 -0.1579 -0.4892 -0.0513
 2354W        W 6405   2.718   5.120  11.965 -0.1919  0.1308  0.0733
 2355W        W 6406   5.781   7.421   2.785  0.0312  0.1462  0.1526
 2356W        W 6407   4.990   9.740   0.199  0.1203  0.0024  0.2099
 2357W        W 6408   0.357   4.186   4.678  0.2293 -0.1527  0.2558
 2358W        W 6409   2.319   6.333  12.168 -0.2782  0.1528  0.2717
 2359W        W 6410   4.517   2.324   3.326 -0.0628 -0.0224 -0.0376
 2360W        W 6411   4.894   1.209   0.230 -0.0899  0.3114 -0.2637
 2361W        W 6412   1.368   4.441   3.004 -0.0662 -0.0972 -0.0868
 2362W        W 6413   3.906   2.858   0.291 -0.0212 -0.2601 -0.0275
 2363W        W 6414   4.697   5.950  12.622 -0.2448 -0.2509  0.4002
 2364W        W 6415   1.251   5.146   5.125 -0.2230 -0.2223  0.0075
 2365W        W 6416   7.852   2.312  12.439 -0.1372  0.0928  0.0622
 2366W        W 6417   7.480   1.591  11.750 -0.3315  0.3316 -0.2391
 2367W        W 6418   1.342   5.897   9.985  0.2100  0.1673  0.1513
 2368W        W 6419   6.325   2.363  13.990  0.0980  0.1475 -0.1642
 2369W        W 6420   5.573   7.349   9.221 -0.0014 -0.1745  0.1662
 2370W        W 6421   2.160   3.566  10.012  0.0246  0.0053 -0.0023
 2371W        W 6422   9.250   2.328  10.422  0.2622 -0.0369 -0.1669
 2372W        W 6423   7.289   5.916  10.356  0.0369 -0.0771 -0.0048
 2373W        W 6424   8.938   2.741   3.852 -0.1454 -0.1053  0.1618
 2374W        W 6425   6.753   7.290   0.482 -0.5328 -0.3810 -0.2017
 2375W        W 6426   0.727   7.659  12.891 -0.1924 -0.0657 -0.0344
 2376W        W 6427   4.924   6.226  13.621 -0.3637  0.1448 -0.0789
 2377W        W 6428   9.376   0.430   2.829  0.0238 -0.2150  0.0567
 2378W        W 6429   5.644   1.514   3.273 -0.1195  0.3700 -0.0405
 2379W        W 6430   1.250   6.932   1.286  0.1783 -0.0181  0.0991
 2380W        W 6431   8.761   7.909   3.796 -0.2726  0.0375  0.1582
 2381W        W 6432   9.895   0.711   2.747  0.1225 -0.0217 -0.0875
 2382W        W 6433   6.457   0.291  12.273  0.0164  0.0272 -0.0737
 2383W        W 6434   2.438   1.380   0.466 -0.5930 -0.1158  0.0455
 2384W        W 6435   6.386   4.362  12.832  0.0369  0.0268 -0.1807
 2385W        W 6436   5.723   0.355  12.251 -0.0841  0.1342 -0.2808
 2386W        W 6437   9.928   5.375   1.276 -0.0378 -0.1331  0.1585
 2387W        W 6438   8.684   3.433   2.788 -0.0505  0.1277  0.0151
 2388W        W 6439   8.966   5.870  13.511 -0.2870  0.0800 -0.0231
 2389W        W 6440   2.786   2.434   4.110 -0.2161  0.0946  0.2393
 2390W        W 6441   2.771   8.953   2.175  0.0313  0.3933  0.0182
 2391W        W 6442   8.566   1.047   1.232 -0.4672  0.3128 -0.2003
 2392W        W 6443   8.440   4.844   1.407  0.5049 -0.1395 -0.4228
 2393W        W 6444   3.748   2.412  11.651 -0.0515  0.1139  0.1684
 2394W        W 6445   2.435   2.961  12.646 -0.0287 -0.2756  0.2155
 2395W        W 6446   5.405   0.557  10.148 -0.1324 -0.1008  0.0749
 2396W        W 6447   9.986   1.693  10.822 -0.0349 -0.2510  0.0487
 2397W        W 6448   4.640   3.751  13.894 -0.2496  0.0346 -0.2150
 2398W        W 6449   8.058   9.176   1.918 -0.1480  0.2765 -0.0513
 2399W        W 6450   5.734   1.741   5.481 -0.2161  0.0897 -0.1847
 2400W        W 6451   8.515   8.890   4.358 -0.1029 -0.1614  0.1221
 2401W        W 6452   6.314   9.673  12.673  0.1778 -0.2212 -0.1386
 2402W        W 6453   4.002   3.591   2.869 -0.2767  0.2716 -0.0237
 2403W        W 6454   5.700   7.129  12.886 -0.0842  0.3570 -0.0719
 2404W        W 6455   0.218   0.596   3.824  0.0199  0.1143 -0.3532
 2405W        W 6456   1.798   5.361   1.403 -0.2914  0.2263 -0.1993
 2406W        W 6457   9.160   3.511   1.294  0.5011 -0.1863  0.1455
 2407W        W 6458   7.719   6.091  13.862 -0.0223  0.1244  0.0520
 2408W        W 6459   9.874   4.260  11.612 -0.2679  0.0483 -0.2295
 2409W        W 6460  10.050   7.879  13.939 -0.0295 -0.0217 -0.2459
 2410W        W 6461   0.694   5.728  12.814 -0.0210 -0.0972  0.3062
 2411W        W 6462   4.745   0.157   4.565 -0.0901 -0.0971 -0.0451
 2412W        W 6463   6.763   7.960   9.223  0.1153  0.0698 -0.1356
 2413W        W 6464   0.559   8.873   0.670  0.0605 -0.2482  0.2623
 2414W        W 6465   2.195   3.043   5.578  0.0767 -0.2239  0.1334
 2415W        W 6466   3.343   9.003   0.446  0.2368 -0.2438 -0.1056
 2416W        W 6467   3.892   6.155   2.164 -0.2067  0.2752  0.0796
 2417W        W 6468   7.588   3.614  10.362 -0.1605  0.1355  0.0182
 2418W        W 6469   8.751   8.544  10.055 -0.1061  0.0035 -0.1779
 2419W        W 6470   0.588   8.340   0.783  0.0779 -0.0219 -0.0625
 2420W        W 6471   9.540   7.499   3.041 -0.0116 -0.2671 -0.3208
 2421W        W 6472   6.649   1.096   2.335  0.1692  0.0733  0.1096
 2422W        W 6473   3.588   9.182  10.573  0.0046 -0.0053  0.1520
 2423W        W 6474   6.757   1.041  10.063 -0.0941  0.0442 -0.1067
 2424W        W 6475   0.451   8.488  12.331  0.1558 -0.3547  0.0755
 2425W        W 6476   7.652   5.778   9.981  0.1413 -0.0285 -0.1342
 2426W        W 6477   9.402   1.465  11.760  0.1547 -0.2815 -0.3020
 2427W        W 6478   7.438   5.537   3.264 -0.1272 -0.1107 -0.0882
 2428W        W 6479   6.049   2.737   0.154 -0.1827  0.2041 -0.0376
 2429W        W 6480   6.061   5.434   0.121 -0.1256  0.1078  0.0996
 2430W        W 6481   8.707   7.931  12.968  0.3309 -0.0337  0.0013
 2431W        W 6482   7.403   8.523   3.009  0.0983  0.1502  0.1664
 2432W        W 6483   2.565   3.797   1.262  0.0782 -0.0117  0.1139
 2433W        W 6484   6.306   7.855   3.782 -0.3499 -0.0663  0.2357
 2434W        W 6485   5.123   9.021   0.781  0.0839 -0.0616  0.1415
 2435W        W 6486   7.127   4.993   1.785  0.3396  0.0502 -0.3904
 2436W        W 6487   6.532   9.298  13.172 -0.0794 -0.0819  0.0796
 2437W        W 6488   0.734   5.318  13.624  0.2200  0.1701 -0.0423
 2438W        W 6489   5.037   6.606  11.379 -0.1094 -0.1684  0.1399
 2439W        W 6490   9.841   1.420   3.711 -0.2573  0.0187  0.0880
 2440W        W 6491   6.779   7.518   9.705  0.0880  0.0906 -0.1583
 2441W        W 6492   6.179   6.641   1.428 -0.0753 -0.2204 -0.0485
 2442W        W 6493   1.400   3.658   2.356 -0.1352 -0.2195  0.0736
 2443W        W 6494   3.005   1.765  12.779  0.2166 -0.2933 -0.0240
 2444W        W 6495   3.741   0.832   4.978  0.3325  0.1362 -0.2247
 2445W        W 6496   0.871   4.699   0.911  0.1110  0.0948 -0.1809
 2446W        W 6497   3.631   4.552   2.358 -0.2391 -0.2087  0.1164
 2447W        W 6498   3.472   1.897  11.657  0.0632 -0.3623  0.3622
 2448W        W 6499   6.676  10.088  11.099  0.3732  0.0793  0.0635
 2449W        W 6500   6.147   3.054   3.999 -0.1371  0.2413 -0.1629
 2450W        W 6501   4.520   6.349  10.287 -0.4379  0.2408 -0.0055
 2451W        W 6502   1.370   3.716   1.165 -0.2316  0.0548 -0.1351
 2452W        W 6503   7.165   3.974  12.523  0.0830  0.1240  0.0942
 2453W        W 6504   8.570   6.711   1.237 -0.0793  0.1469 -0.1564
 2454W        W 6505   9.252   4.836   0.232  0.0394 -0.0620  0.1209
 2455W        W 6506   7.558   2.656   0.270 -0.0090  0.0619  0.0993
 2456W        W 6507   0.075   2.559   5.463 -0.1054 -0.0606 -0.2415
 2457W        W 6508   8.792   4.743   0.105 -0.0815  0.0405  0.1949
 2458W        W 6509   6.028   2.677   0.691 -0.3774  0.1115 -0.0260
 2459W        W 6510   8.073   9.868   0.034  0.2594  0.1511 -0.0884
 2460W        W 6511   5.927   3.650   0.527  0.0972  0.1337  0.2381
 2461W        W 6512   3.835   3.729   9.478  0.1921  0.4307 -0.1100
 2462W        W 6513   7.367   2.324  13.964  0.0163 -0.0752  0.2688
 2463W        W 6514   8.722   7.939   4.611 -0.4013  0.0772 -0.1244
 2464W        W 6515   9.804   3.973   9.379 -0.1648  0.0142 -0.0586
 2465W        W 6516   1.428   8.638  13.827 -0.4105  0.0696 -0.1299
 2466W        W 6517   3.230   8.674  10.252 -0.1746  0.0813 -0.3067
 2467W        W 6518   5.890   8.881   0.461 -0.2129  0.2033 -0.1778
 2468W        W 6519   0.404   8.670  14.013 -0.2316  0.5017 -0.1934
 2469W        W 6520   9.095   1.358  10.550  0.0804 -0.3441 -0.0467
 2470W        W 6521   9.355   8.612  11.542  0.0779  0.0678  0.1588
 2471W        W 6522   1.710   0.709   2.984 -0.0114 -0.1787  0.2199
 2472W        W 6523   5.225   1.603  10.959 -0.0188 -0.1964 -0.0528
 2473W        W 6524   1.997   2.821  12.584  0.0417  0.0492 -0.1851
 2474W        W 6525   5.214   1.839  13.502 -0.1071  0.3584 -0.2041
 2475W        W 6526   9.975   4.942   2.610 -0.0641  0.1926 -0.1506
 2476W        W 6527   2.796   2.883   3.328 -0.1324 -0.0848  0.2125
 2477W        W 6528   7.185   8.388   0.366  0.1500  0.1146  0.1002
 2478W        W 6529   1.208   1.174  10.806 -0.1118 -0.0541 -0.3299
 2479W        W 6530   1.141   5.654   0.682  0.0096 -0.1259  0.0696
 2480W        W 6531   3.509   3.332   3.483 -0.0171 -0.1020 -0.1371
 2481W        W 6532   9.512   6.667  13.622  0.2186 -0.1290  0.0050
 2482W        W 6533   1.362   8.021   0.934  0.3853 -0.0405  0.2242
 2483W        W 6534   6.396   9.940   2.040  0.0128  0.0067  0.1094
 2484W        W 6535   9.166   9.064  11.681 -0.0362 -0.0141  0.1031
 2485W        W 6536   6.339   4.820  10.719 -0.0187  0.1865 -0.0347
 2486W        W 6537   2.939   5.764  11.449  0.0282 -0.0738  0.1281
 2487W        W 6538   7.530   7.918  10.449  0.2635 -0.0742 -0.0446
 2488W        W 6539   2.720   8.816  13.766  0.0531 -0.1896  0.1085
 2489W        W 6540   0.667   1.678   1.269  0.2554  0.0198 -0.1468
 2490W        W 6541   3.227   3.766   3.574 -0.1571 -0.1829 -0.0504
 2491W        W 6542   0.300   4.614   0.916  0.0997  0.0342 -0.0713
 2492W        W 6543   9.231   9.411   1.881  0.1338 -0.1689  0.2270
 2493W        W 6544   9.395   5.087  13.238  0.2551 -0.1519  0.1085
 2494W        W 6545   4.364   5.763   4.670  0.3468 -0.0214 -0.0297
 2495W        W 6546   1.161   3.625   4.166  0.0338  0.1341  0.0391
 2496W        W 6547   2.538   8.940   0.903  0.1868  0.1286 -0.1125
 2497W        W 6548   7.316   2.729   2.281 -0.1194 -0.3540 -0.0870
 2498W        W 6549   1.094   2.799   3.525  0.0834 -0.0262 -0.1594
 2499W        W 6550   5.991   7.870  13.880 -0.1997 -0.1754  0.1299
 2500W        W 6551   7.735   7.491  10.945  0.2224 -0.2603 -0.0002
 2501W        W 6552   8.930   1.479   2.280 -0.0119 -0.1091  0.1103
 2502W        W 6553   1.603   0.405  11.316  0.0403  0.1940  0.1689
 2503W        W 6554   4.028   4.143  12.605 -0.1589 -0.1118  0.2652
 2504W        W 6555   9.673   0.383  13.149 -0.0019 -0.0641 -0.1471
 2505W        W 6556   0.322   4.428  12.797 -0.4713 -0.2721  0.1157
 2506W        W 6557   0.088   5.070   1.650  0.3153  0.1117  0.1013
 2507W        W 6558   6.114   4.943   3.588  0.3798  0.4632  0.1811
 2508W        W 6559   7.938   6.983   1.829  0.1382 -0.1672  0.1558
 2509W        W 6560   7.508   8.502   2.180  0.0565 -0.0466 -0.2656
 2510W        W 6561  10.117   7.773   1.662  0.2804  0.0489  0.2349
 2511W        W 6562   6.491   2.105  12.881  0.1815  0.1202  0.0382
 2512W        W 6563   8.199   5.648   4.584 -0.0551 -0.0658  0.0551
 2513W        W 6564   2.691   5.970   0.927  0.2634 -0.0747  0.5243
 2514W        W 6565   2.903   5.000  13.501 -0.0583  0.0981  0.1447
 2515W        W 6566   6.637   7.876  12.027  0.1780 -0.0539 -0.1150
 2516W        W 6567   1.063   1.136   0.551 -0.0830  0.0706 -0.2608
 2517W        W 6568   6.067   6.523   5.057 -0.2686  0.4176 -0.1280
 2518W        W 6569   8.553   5.602  11.285  0.0033  0.0273  0.2173
 2519W        W 6570   7.243   5.107  11.412 -0.0952 -0.0292 -0.2798
 2520W        W 6571   5.278   8.266   2.541 -0.1375 -0.1588 -0.1140
 2521W        W 6572   1.424   5.668   5.401 -0.1360 -0.0094 -0.1943
 2522W        W 6573   4.515   9.958   2.380 -0.0521 -0.1859  0.0047
 2523W        W 6574   4.441   6.563  12.763  0.0318 -0.1401  0.4467
 2524W        W 6575   6.915   5.341  12.091 -0.0148  0.2764 -0.1712
 2525W        W 6576   9.890   9.694  12.985 -0.2741  0.3098 -0.2623
 2526W        W 6577   3.845   3.783   2.342  0.0123 -0.0381  0.2977
 2527W        W 6578   2.312   2.904   3.148  0.1178 -0.1646 -0.1663
 2528W        W 6579   4.372   7.040  13.004  0.0454  0.1604  0.1519
 2529W        W 6580   4.533   9.013   2.291  0.1230  0.0535 -0.0193
 2530W        W 6581   3.055   8.819  11.395  0.4348  0.3257  0.0162
 2531W        W 6582   2.473   8.131   3.377  0.1200 -0.2515 -0.1230
 2532W        W 6583   6.159   5.317   1.717 -0.1652 -0.1700 -0.0248
 2533W        W 6584   9.344   5.090  11.268 -0.1754  0.2247  0.0930
 2534W        W 6585   2.303   1.616   4.153 -0.1897  0.0380  0.0935
 2535W        W 6586   9.605   3.783  11.800  0.1485  0.2728 -0.1404
 2536W        W 6587   9.716   3.818   1.971  0.1620  0.3374 -0.0859
 2537W        W 6588   5.425   3.824   3.757  0.0221  0.0520  0.1600
 2538W        W 6589   6.756   6.545  13.507  0.0419  0.0131 -0.2511
 2539W        W 6590   3.939   7.593  11.164  0.0201 -0.1348  0.0880
 2540W        W 6591   3.080   9.908   3.223 -0.1267 -0.1440 -0.1943
 2541W        W 6592   9.296   5.678   3.731  0.0973 -0.0047  0.2558
 2542W        W 6593   3.244   2.400   2.746 -0.2816 -0.1066 -0.0598
 2543W        W 6594   6.468   3.869  12.161 -0.2301 -0.1270  0.1306
 2544W        W 6595   8.431   3.915  11.854 -0.2115 -0.0097  0.0603
 2545W        W 6596   2.405   4.610   2.943  0.0795  0.1442  0.1046
 2546W        W 6597   5.121   3.000  11.307 -0.2756  0.0485  0.1474
 2547W        W 6598   2.445   6.927   3.680  0.1002 -0.1637 -0.0083
 2548W        W 6599   4.340   8.503  13.060 -0.1453 -0.0759  0.4160
 2549W        W 6600   2.601   3.147   0.557 -0.4072  0.2881  0.2224
 2550W        W 6601   4.597   3.048   4.352 -0.1817  0.0488  0.0872
 2551W        W 6602   5.946   3.310  13.181 -0.0223 -0.1027  0.0649
 2552W        W 6603   9.861   7.830   2.785 -0.3535 -0.1731  0.0227
 2553W        W 6604   0.918   6.086  13.703 -0.1053 -0.3640  0.0020
 2554W        W 6605   7.354   5.545   1.545 -0.1945  0.1119  0.2114
 2555W        W 6606   1.031   6.739   1.752  0.2864 -0.1002 -0.2273
 2556W        W 6607   9.347   8.669  13.113 -0.3691 -0.1339 -0.2097
 2557W        W 6608   0.021   7.411  10.024 -0.2170 -0.0596 -0.1733
 2558W        W 6609   1.544   2.023   3.278  0.1310  0.1533 -0.0563
 2559W        W 6610   7.526   7.687   4.224  0.1241  0.3720 -0.2438
 2560W        W 6611   3.300   6.870   2.551  0.0166 -0.0499 -0.1803
 2561W        W 6612   0.248   2.650  11.058  0.6254  0.1860  0.0765
 2562W        W 6613   9.149   4.078  11.600 -0.2638 -0.2257  0.4415
 2563W        W 6614   3.361   1.116   3.708 -0.1724 -0.0546 -0.2122
 2564W        W 6615   8.110   0.263   0.909 -0.1449  0.2858 -0.1160
 2565W        W 6616   4.087   7.159  13.835 -0.1469  0.0567  0.0281
 2566W        W 6617   5.623   4.012   4.868  0.0636  0.0931  0.0842
 2567W        W 6618   1.772   5.319  10.063 -0.1541 -0.0211 -0.0862
 2568W        W 6619   9.228   6.324   2.046  0.0046 -0.1376  0.1867
 2569W        W 6620   5.277   4.498   3.336  0.2034 -0.1551  0.1466
 2570W        W 6621   2.513   1.813  12.980  0.0751  0.0446 -0.4574
 2571W        W 6622   9.919   5.190   3.093 -0.1814  0.0507 -0.3559
 2572W        W 6623   1.613   3.033  13.623 -0.2509 -0.2525 -0.0150
 2573W        W 6624   4.417   3.697  12.395 -0.0543 -0.1440 -0.0250
 2574W        W 6625   0.294  10.003   1.629  0.1001  0.0402 -0.0348
 2575W        W 6626   8.816   5.108  13.792  0.1643  0.1429 -0.0109
 2576W        W 6627   7.522   3.424  13.904  0.0068 -0.0712  0.0317
 2577W        W 6628   3.210   4.310   3.785  0.0152  0.2265  0.0343
 2578W        W 6629   3.527   3.563  12.181 -0.0285  0.0004 -0.0809
 2579W        W 6630   2.068   0.260   9.761  0.0976 -0.3177 -0.1415
 2580W        W 6631   8.438   2.073   4.105 -0.3389 -0.2304  0.4594
 2581W        W 6632   7.650   0.004  10.494 -0.1453 -0.1092  0.0164
 2582W        W 6633   5.889   5.993   0.912 -0.2699  0.1486 -0.0909
 2583W        W 6634   2.766   3.983  13.562 -0.2711  0.0051  0.3274
 2584W        W 6635   6.955   4.306   9.638  0.1242  0.0112 -0.0635
 2585W        W 6636  10.055   5.735   4.117 -0.0273  0.2020  0.3506
 2586W        W 6637   6.440   9.685   0.530 -0.1076  0.2926 -0.0933
 2587W        W 6638   6.788   5.819   9.428  0.0760  0.1537  0.0072
 2588W        W 6639   4.171   2.211  13.641 -0.3426  0.2230  0.0603
 2589W        W 6640   8.155   1.870   3.134 -0.0790 -0.1187  0.3871
 2590W        W 6641   8.230   8.057  12.294 -0.3202 -0.1028 -0.0237
 2591W        W 6642   2.935   7.969   0.608 -0.3385 -0.2777 -0.0380
 2592W        W 6643   6.285   3.293  12.458 -0.3989  0.3404  0.0941
 2593W        W 6644   1.375   1.284   2.701 -0.2152 -0.0362  0.0113
 2594W        W 6645   9.436   6.356  12.321  0.4451  0.0540 -0.1924
 2595W        W 6646   2.147   9.685  11.869  0.1727  0.0199 -0.1142
 2596W        W 6647   1.101   1.596   4.207 -0.3701 -0.3245 -0.2235
 2597W        W 6648   1.804   4.835   4.228 -0.0672  0.1201 -0.0343
 2598W        W 6649   5.163   3.200  13.784 -0.0572 -0.0929 -0.0094
 2599W        W 6650   8.970   6.727   1.984  0.0184 -0.2274 -0.1371
 2600W        W 6651   8.782   5.246   4.441  0.1009  0.1156  0.0550
 2601W        W 6652   6.117   0.377   9.920  0.2752  0.0870  0.2506
 2602W        W 6653   0.678   1.486  10.315 -0.1098 -0.1179  0.3606
 2603W        W 6654   4.384   0.835  11.797  0.1666  0.0809 -0.0649
 2604W        W 6655   8.180   1.285   0.365 -0.1059 -0.0459  0.2707
 2605W        W 6656   2.710   8.766  13.146  0.1016 -0.2543  0.0095
 2606W        W 6657   6.305   3.367   9.472 -0.1690 -0.1499  0.5167
 2607W        W 6658   3.215   1.320  12.416 -0.2886 -0.1159  0.0706
 2608W        W 6659   3.378   7.690  12.686 -0.1397  0.1334  0.3802
 2609W        W 6660   7.172   8.965   9.632  0.0464  0.2949 -0.1372
 2610W        W 6661  10.142   8.071  11.169 -0.0297 -0.0182 -0.0408
 2611W        W 6662   7.184   8.533   9.902 -0.0783 -0.1155 -0.4029
 2612W        W 6663   4.669   7.439  11.538  0.2685 -0.1006  0.3415
 2613W        W 6664   0.210   4.536  13.607 -0.1302 -0.0269 -0.3705
 2614W        W 6665   6.772   3.875  11.205  0.0502 -0.1685  0.2279
 2615W        W 6666   9.054   3.562   9.532 -0.0941  0.0064  0.2147
 2616W        W 6667   5.091   2.704   4.026 -0.0784  0.2511 -0.1201
 2617W        W 6668   0.417   8.050   4.189  0.1262 -0.0698  0.1442
 2618W        W 6669   9.521   6.178  13.935 -0.0692 -0.2028  0.2911
 2619W        W 6670   7.887   3.522   0.191 -0.1292 -0.3735  0.1111
 2620W        W 6671   4.378   3.838   2.501  0.1071 -0.1471 -0.0522
 2621W        W 6672   0.668   6.487  10.587  0.2269  0.2085  0.2828
 2622W        W 6673   9.291   9.401   3.374  0.1068  0.0766 -0.0408
 2623W        W 6674   1.118   7.035  10.263  0.3739 -0.1243 -0.3087
 2624W        W 6675   5.176   0.213  11.613  0.0276  0.1501  0.0715
 2625W        W 6676   5.275   6.120   9.232  0.1699 -0.0689  0.0873
 2626W        W 6677   2.892   3.547   0.719 -0.3026 -0.0802  0.2532
 2627W        W 6678   5.568   7.460   9.688  0.3861  0.0410 -0.1768
 2628W        W 6679   1.129   5.383  12.614 -0.1339  0.2541 -0.2123
 2629W        W 6680   3.207   9.582  11.312 -0.1654  0.0836  0.0343
 2630W        W 6681   4.601   5.629  11.714 -0.1429 -0.2582 -0.0017
 2631W        W 6682   3.550   5.929  10.026 -0.0940  0.1238 -0.1560
 2632W        W 6683   1.555   2.457   0.352 -0.0510 -0.3003  0.0601
 2633W        W 6684   5.664   1.818  11.178 -0.6322  0.0160 -0.0208
 2634W        W 6685   0.243   3.044  13.701  0.1888  0.2225 -0.1673
 2635W        W 6686   2.402   1.001   3.417 -0.1100  0.1494  0.0196
 2636W        W 6687   1.139   3.238   0.247 -0.0074 -0.1404 -0.1130
 2637W        W 6688   0.694   0.552   9.446  0.0927  0.0503 -0.1610
 2638W        W 6689   9.073   7.205   0.143  0.1812  0.0594 -0.3917
 2639W        W 6690   8.805   3.931   4.655  0.2048  0.0494 -0.1567
 2640W        W 6691   6.791   3.452  13.338 -0.2159 -0.0519  0.0333
 2641W        W 6692   3.039   9.394   3.096 -0.1455 -0.2051  0.0480
 2642W        W 6693   7.946   8.173  10.338 -0.0364  0.1956 -0.0732
 2643W        W 6694   0.676   7.275   1.788 -0.0958  0.0310 -0.0737
 2644W        W 6695   8.003   4.784   1.033 -0.1373 -0.0423 -0.3121
 2645W        W 6696   4.320   4.378   9.992  0.2075  0.1367  0.1473
 2646W        W 6697   1.277   1.477   2.224 -0.0287  0.0684 -0.0872
 2647W        W 6698   6.671   6.808   4.539 -0.0931  0.2063 -0.1154
 2648W        W 6699   8.668   1.813   1.995 -0.2318  0.0844 -0.3585
 2649W        W 6700   4.438   8.606   3.672  0.3692 -0.0215 -0.2899
 2650W        W 6701   5.069   4.378   9.374 -0.1691  0.0955  0.0788
 2651W        W 6702   3.688   8.496  11.595 -0.0839  0.1414 -0.4323
 2652W        W 6703   4.510   3.945   3.001  0.1317 -0.2255  0.1242
 2653W        W 6704   0.107   8.099   2.677  0.1363  0.1357  0.3208
 2654W        W 6705   4.251   2.770  13.191  0.0792 -0.1665  0.1253
 2655W        W 6706   5.537   0.564   0.005 -0.3535  0.0563 -0.1665
 2656W        W 6707   6.980   1.661  13.881 -0.0106  0.2891  0.0734
 2657W        W 6708   5.899   1.365  13.346  0.0248  0.0356  0.0634
 2658W        W 6709   7.486   9.330  11.618 -0.2545  0.0496 -0.4729
 2659W        W 6710   7.388   8.257   1.732  0.1456  0.1211  0.1462
 2660W        W 6711   1.521   9.662   2.387  0.4156 -0.3624 -0.0797
 2661W        W 6712   0.669   5.413   0.360 -0.2169 -0.2947 -0.0604
 2662W        W 6713   3.513   9.361  12.627 -0.2218 -0.3702 -0.1528
 2663W        W 6714   7.583   0.350   4.180 -0.1790  0.3877 -0.1123
 2664W        W 6715   1.087   1.768  12.278 -0.1274 -0.1700  0.1530
 2665W        W 6716   2.098   2.054  13.813 -0.1446  0.2161 -0.0082
 2666W        W 6717   7.436   3.312  11.522  0.1396 -0.2736  0.0499
 2667W        W 6718   4.207   2.860   3.985 -0.0589  0.0751  0.4140
 2668W        W 6719   4.999   6.629  13.934 -0.0682 -0.1006 -0.1800
 2669W        W 6720   8.053   4.710  10.447 -0.1600 -0.1545  0.0220
 2670W        W 6721   9.696   7.924   3.289  0.2359 -0.2134  0.2109
 2671W        W 6722   5.617   0.900  11.439 -0.2139 -0.1776 -0.0469
 2672W        W 6723   6.087   5.038  12.703  0.4215 -0.0450 -0.2638
 2673W        W 6724   5.637   6.221   3.462 -0.3767 -0.1008 -0.1775
 2674W        W 6725   6.910   5.179   0.002 -0.1914 -0.0461 -0.1961
 2675W        W 6726   0.782   3.394   4.916 -0.0340  0.1263  0.3904
 2676W        W 6727   4.394   1.342   0.007  0.1338  0.0249  0.5373
 2677W        W 6728   0.186   7.794  11.599  0.0323  0.0512 -0.0386
 2678W        W 6729   7.125   1.906   1.287  0.3553 -0.0736 -0.2538
 2679W        W 6730   2.564   6.266  13.552 -0.4853  0.1149 -0.1301
 2680W        W 6731   0.228   0.516   2.843 -0.2073  0.2585  0.2289
 2681W        W 6732   4.455   6.217   4.591  0.0587 -0.0282 -0.0398
 2682W        W 6733   5.466   0.564  10.720  0.2241  0.0214 -0.0066
 2683W        W 6734   3.407   0.588   1.299  0.4409  0.1033 -0.1603
 2684W        W 6735   7.990   0.076   2.405  0.0750 -0.0290  0.0637
 2685W        W 6736   8.844   2.080  13.826 -0.3369 -0.1173 -0.0401
 2686W        W 6737   2.363   9.079   9.770 -0.0798  0.1148  0.1900
 2687W        W 6738   9.299   3.163   0.915  0.1114 -0.2876  0.3103
 2688W        W 6739   1.758   6.197  11.926 -0.2274  0.1475  0.1206
 2689W        W 6740   6.430   8.012   8.857 -0.1806  0.0296 -0.2481
 2690W        W 6741   3.818   5.821  12.710  0.1618 -0.2771 -0.0321
 2691W        W 6742   7.242   4.784   4.617  0.1233  0.0840 -0.1062
 2692W        W 6743   2.064   7.375  12.080 -0.0240 -0.0671  0.2330
 2693W        W 6744   3.934   7.707  12.970 -0.2199  0.1017 -0.0653
 2694W        W 6745   8.149   4.263   3.053 -0.1889  0.0287  0.1820
 2695W        W 6746   2.602   5.602   1.463  0.1383  0.0754 -0.1610
 2696W        W 6747   2.761   1.126   2.653 -0.0114  0.0813 -0.0834
 2697W        W 6748   5.470   2.680   4.617 -0.1597 -0.1046  0.3655
 2698W        W 6749   6.712   6.609   2.483 -0.2141 -0.1654 -0.2372
 2699W        W 6750   4.250   7.159  10.204  0.1519 -0.1354 -0.0433
 2700W        W 6751   1.622   4.624   1.974 -0.0033 -0.0435  0.0841
 2701W        W 6752   9.447   5.475   2.763 -0.3347 -0.0084  0.1484
 2702W        W 6753   8.392   7.611   4.732  0.0557 -0.0630 -0.2130
 2703W        W 6754  10.127   5.506   4.669  0.2107  0.1535  0.0350
 2704W        W 6755   4.582   3.785   4.381 -0.1716  0.4775 -0.0240
 2705W        W 6756   3.168   4.972  13.920  0.1625  0.2835 -0.1639
 2706W        W 6757   9.716   3.945   5.025 -0.2210 -0.0905  0.1149
 2707W        W 6758   7.612   5.186   3.581 -0.4036 -0.2054 -0.2124
 2708W        W 6759   7.394   6.540   5.057 -0.0891 -0.0326 -0.3408
 2709W        W 6760   6.279   1.170  13.651 -0.1726  0.0676  0.0931
 2710W        W 6761   4.261   4.763   2.192 -0.0231 -0.0672 -0.0578
 2711W        W 6762   6.626   4.526   8.484  0.1872 -0.1529  0.0301
 2712W        W 6763   5.178   3.607   2.008  0.3623  0.2216  0.0479
 2713W        W 6764   4.741   9.073  11.111 -0.0233  0.0555  0.6197
 2714W        W 6765   8.768   2.929   2.482  0.3052 -0.0365  0.1872
 2715W        W 6766   0.969   4.367  11.248  0.1093 -0.2315 -0.1147
 2716W        W 6767   8.956   9.137   2.252  0.0822  0.0667  0.0116
 2717W        W 6768   3.201   5.924  11.023 -0.3287  0.2968 -0.2299
 2718W        W 6769   5.318   1.626  11.594  0.0635 -0.1396  0.1979
 2719W        W 6770   4.421   1.196   1.958  0.0388  0.0879 -0.2412
 2720W        W 6771   9.873   3.988  10.980  0.0090  0.1603  0.0197
 2721W        W 6772   9.166   7.464  10.317  0.1921 -0.0230 -0.0658
 2722W        W 6773   8.080   2.947   4.014  0.2158 -0.3277 -0.1031
 2723W        W 6774   6.043  10.121   9.163  0.1763  0.1790 -0.0501
 2724W        W 6775   9.802   1.383   1.469  0.3123  0.1527 -0.2625
 2725W        W 6776   4.646   4.873  13.510 -0.3668  0.0079  0.1246
 2726W        W 6777   6.652   9.518   3.573 -0.0244  0.1413  0.1391
 2727W        W 6778   2.617   0.907  13.648 -0.0840  0.0110  0.2553
 2728W        W 6779   0.160   3.343   3.332  0.0813 -0.0060  0.2546
 2729W        W 6780   7.599   5.944  10.793 -0.2115  0.1005  0.1729
 2730W        W 6781   2.108   7.763   2.889  0.3098 -0.0377  0.0817
 2731W        W 6782   4.973   8.417   9.884  0.5849 -0.1574  0.2237
 2732W        W 6783   0.823   6.885   3.692  0.2639  0.1414  0.0065
 2733W        W 6784   7.857   0.586   3.414 -0.1867  0.1401  0.3906
 2734W        W 6785   1.280   7.650  12.795 -0.1665 -0.2907  0.1236
 2735W        W 6786   8.889   9.959   2.606  0.0969 -0.4015  0.1773
 2736W        W 6787   4.155   6.860  13.430  0.2326  0.1284 -0.0458
 2737W        W 6788   6.708   4.531   8.998 -0.2427 -0.2829  0.2997
 2738W        W 6789   5.707   3.686   1.747 -0.1560  0.1330  0.0488
 2739W        W 6790   0.910   5.500   1.272 -0.0034 -0.0967 -0.3177
 2740W        W 6791   5.416   6.286  11.314 -0.1013  0.1834  0.0217
 2741W        W 6792   0.130   3.879   3.494 -0.0274  0.1090  0.1140
 2742W        W 6793   3.755   6.708   4.113  0.1523 -0.0737 -0.2979
 2743W        W 6794   7.268   0.084  13.365 -0.1554 -0.1604 -0.1965
 2744W        W 6795   1.226   6.421   1.050  0.0807 -0.4097 -0.0322
 2745W        W 6796   0.320   6.356   1.385  0.2005  0.0215 -0.2546
 2746W        W 6797   4.546   9.554   2.126 -0.0440 -0.2650 -0.1849
 2747W        W 6798   1.582   9.817   5.930 -0.0386 -0.0343  0.2515
 2748W        W 6799   5.778   7.947   9.900 -0.2491 -0.1944  0.0337
 2749W        W 6800   1.788   2.295   4.310  0.1861  0.0590  0.0425
 2750W        W 6801   2.726   5.484   1.007 -0.2565 -0.1840 -0.1241
 2751W        W 6802   3.373   3.268   4.498 -0.2158 -0.2912 -0.1974
 2752W        W 6803   4.375   3.582   1.213  0.0716 -0.2921  0.3267
 2753W        W 6804   8.302   0.131   9.626 -0.2652 -0.0259 -0.1334
 2754W        W 6805   1.223   1.811   1.457 -0.0303 -0.2785 -0.0005
 2755W        W 6806   2.840   0.385   1.325  0.0328  0.5470  0.1798
 2756W        W 6807   8.610   2.039  13.126  0.4661 -0.1273 -0.1420
 2757W        W 6808   7.669   2.831  11.738 -0.1051 -0.0499  0.0935
 2758W        W 6809   0.407   7.721   2.829 -0.1812 -0.4138  0.3685
 2759W        W 6810   2.438   9.642   7.016 -0.0568  0.1131 -0.1055
 2760W        W 6811   4.349   4.412   2.897 -0.2155  0.0648  0.0722
 2761W        W 6812   8.391   6.315  12.423  0.1551 -0.1183 -0.1382
 2762W        W 6813   7.076   9.248   0.305  0.0081 -0.1663  0.0477
 2763W        W 6814   3.601   1.013  10.172 -0.1627  0.0217  0.0058
 2764W        W 6815   6.518   3.682   3.239  0.2439 -0.3974  0.0909
 2765W        W 6816   8.326   2.428  12.248  0.0160  0.1800 -0.0388
 2766W        W 6817   3.885   2.008  10.131 -0.2148 -0.0321  0.0963
 2767W        W 6818   4.641   6.055  11.462 -0.1770  0.1001  0.1315
 2768W        W 6819   4.600   4.707  13.003 -0.1182 -0.1856 -0.3582
 2769W        W 6820   6.728   0.565   3.134  0.2013  0.3557  0.1822
 2770W        W 6821   2.189   6.220  10.206 -0.1354  0.0459 -0.1967
 2771W        W 6822   7.060   5.592  11.644 -0.2526 -0.0073 -0.0371
 2772W        W 6823   0.997   0.260   0.368 -0.1823  0.1037  0.0326
 2773W        W 6824   5.129   6.097   9.689 -0.1567  0.2008 -0.0232
 2774W        W 6825   1.603   0.072   9.641  0.0545 -0.0359  0.1255
 2775W        W 6826   3.982   3.362   3.732  0.0439  0.0573  0.2301
 2776W        W 6827   4.339   0.113   3.238 -0.0942 -0.1172  0.0998
 2777W        W 6828   5.418   5.900   0.380  0.0211  0.1413  0.0726
 2778W        W 6829   4.713   9.552   3.453  0.2253 -0.0736  0.1255
 2779W        W 6830   8.573   2.723  11.477  0.0238 -0.1115 -0.1009
 2780W        W 6831   2.346   5.691  10.165  0.0211  0.2095 -0.1119
 2781W        W 6832   9.160   0.712   2.475 -0.0191  0.0131 -0.1339
 2782W        W 6833   3.323   1.045   3.140 -0.2124  0.0026  0.2015
 2783W        W 6834   1.651   3.267   9.388 -0.1703 -0.1946 -0.0753
 2784W        W 6835   8.546   5.002  11.770 -0.1562 -0.0527 -0.1126
 2785W        W 6836   0.285   5.182   3.031  0.0913  0.0305  0.0065
 2786W        W 6837   4.509   9.720  11.710  0.2352  0.2551  0.3683
 2787W        W 6838   6.433   8.233   4.712 -0.0111 -0.1971 -0.1834
 2788W        W 6839   2.984   1.411  10.878 -0.2257  0.2096 -0.0364
 2789W        W 6840   2.452   3.240   3.676 -0.0181 -0.1950  0.1345
 2790W        W 6841   2.141   3.699   1.536 -0.1943  0.2889  0.0200
 2791W        W 6842   8.197   9.009   3.957  0.2583  0.0471 -0.1104
 2792W        W 6843   1.629  10.128   2.816 -0.2112  0.1139 -0.1716
 2793W        W 6844   3.902   1.415  11.308  0.1607 -0.2566  0.0859
 2794W        W 6845   6.447   5.020  11.174 -0.1953 -0.0632 -0.1706
 2795W        W 6846   9.019   6.444  11.547 -0.1665  0.1722  0.0695
 2796W        W 6847   4.147   6.150   3.585 -0.0416  0.1533 -0.0683
 2797W        W 6848   5.631   1.278  12.863 -0.0217  0.1226 -0.0526
 2798W        W 6849   4.942   7.227   2.204  0.1710 -0.0654 -0.3620
 2799W        W 6850   3.197   1.818  10.664 -0.1417 -0.0107  0.2296
 2800W        W 6851   2.220   7.718   3.827 -0.0208  0.1005 -0.3822
 2801W        W 6852   6.856   4.070   1.449 -0.4343 -0.1116  0.3219
 2802W        W 6853   6.264   6.357   4.533 -0.2031 -0.0798 -0.4318
 2803W        W 6854   2.115   0.771  13.711 -0.2573  0.0468 -0.1137
 2804W        W 6855   3.221   6.850   9.418  0.1210 -0.1790 -0.1634
 2805W        W 6856   5.139   7.118   4.274 -0.0367 -0.0353  0.1246
 2806W        W 6857   4.937   1.887  13.078  0.0796  0.0895  0.3890
 2807W        W 6858   2.251   7.914   9.982  0.1197  0.0958  0.1375
 2808W        W 6859   4.023   3.530  10.887  0.2088 -0.0174  0.1608
 2809W        W 6860   2.260   5.110  13.253  0.3640 -0.1462 -0.1327
 2810W        W 6861   3.474   9.522   0.053 -0.0430  0.0595  0.1341
 2811W        W 6862   9.089   3.973   4.275 -0.1415 -0.1683 -0.1887
 2812W        W 6863   0.836   3.297  12.697 -0.2571  0.1093 -0.0775
 2813W        W 6864   4.022   7.356  13.328 -0.0112  0.0622  0.1240
 2814W        W 6865   9.985   3.722  11.477 -0.0514  0.2062  0.2014
 2815W        W 6866   8.370   6.474   2.607 -0.0874  0.0509 -0.4761
 2816W        W 6867   8.950   8.928   4.124 -0.1440 -0.2480 -0.1777
 2817W        W 6868   6.417   8.886  13.501 -0.2218  0.0450 -0.0637
 2818W        W 6869   4.174   6.455  12.090 -0.0979  0.3778  0.1209
 2819W        W 6870   3.095   4.004  10.041  0.2069 -0.1399 -0.1840
 2820W        W 6871   7.500   0.484   0.253  0.1113 -0.2431  0.2401
 2821W        W 6872   5.044   7.374   9.599  0.0898 -0.2445 -0.0341
 2822W        W 6873   0.896   7.696   1.951  0.1727 -0.1327 -0.1488
 2823W        W 6874   1.716   5.768   0.769  0.2630  0.0887  0.0673
 2824W        W 6875   3.719   0.684   3.057  0.0671 -0.0582  0.1282
 2825W        W 6876   5.742   5.027  10.389  0.0310 -0.3872 -0.1752
 2826W        W 6877   6.102   5.866  13.858 -0.0318  0.1017 -0.1661
 2827W        W 6878   3.250   4.850  11.634  0.0433  0.0731  0.0632
 2828W        W 6879   1.324   0.867  12.620  0.1727  0.1289  0.1338
 2829W        W 6880   9.749   5.847   3.715 -0.3930 -0.0287 -0.0866
 2830W        W 6881   7.148   5.386   2.858  0.1538 -0.0824 -0.3126
 2831W        W 6882   6.596   1.398   0.042  0.0159  0.0999  0.2132
 2832W        W 6883   2.635   6.506  13.101 -0.1884  0.3338 -0.0273
 2833W        W 6884   7.902   5.967  11.199  0.1086  0.1130  0.0288
 2834W        W 6885   1.616   7.070  13.520  0.1173 -0.1536 -0.1497
 2835W        W 6886   7.366   2.091  12.553  0.0853  0.0208  0.2760
 2836W        W 6887   3.447   2.621   0.089  0.1313 -0.1070 -0.1967
 2837W        W 6888   4.030   1.695   4.611  0.3322  0.2333  0.0660
 2838W        W 6889   6.089   2.457   2.544  0.2468  0.2407 -0.0073
 2839W        W 6890   4.319   1.779  11.547  0.3192  0.0200  0.1633
 2840W        W 6891   7.006   4.091   8.629  0.1099 -0.1618  0.0468
 2841W        W 6892   6.339   7.250  12.298 -0.0410 -0.1398  0.2420
 2842W        W 6893   2.594   2.178  13.794  0.0404  0.1918  0.0525
 2843W        W 6894   6.274   5.742  11.481  0.1339  0.0429  0.2682
 2844W        W 6895   7.205   9.385   1.770  0.1732 -0.1305  0.2802
 2845W        W 6896   6.928   6.378  11.160 -0.1721  0.3232 -0.2343
 2846W        W 6897   6.721   3.342   3.460 -0.1612  0.1492  0.1471
 2847W        W 6898   8.521   0.065  10.934  0.0068  0.1492  0.0094
 2848W        W 6899   7.315   5.505  10.704 -0.2308 -0.2407  0.2895
 2849W        W 6900   6.823   8.807   4.729 -0.0404 -0.0276 -0.0099
 2850W        W 6901   6.420   1.357   3.631 -0.1415 -0.1115  0.1430
 2851W        W 6902   0.066   7.541  11.116  0.1558  0.0187 -0.0033
 2852W        W 6903   6.614   0.876  13.342 -0.0733  0.0011  0.1913
 2853W        W 6904   3.697   3.945   5.405  0.2823  0.3285 -0.0690
 2854W        W 6905   4.863   1.920   0.962  0.2062 -0.2738  0.1781
 2855W        W 6906   7.974   0.178   0.077  0.3520  0.4938 -0.1010
 2856W        W 6907   8.026   9.280   0.054  0.4247  0.0208  0.0964
 2857W        W 6908   1.352   7.499   0.996 -0.2707  0.0828 -0.0372
 2858W        W 6909   9.085   4.598   2.736  0.0674 -0.3232 -0.1964
 2859W        W 6910   2.971   9.714  12.726  0.0371  0.0217 -0.2572
 2860W        W 6911   4.778   8.776  13.442  0.1146 -0.0985  0.0660
 2861W        W 6912   8.369   3.069   1.253  0.0005 -0.1309  0.0517
 2862W        W 6913   5.964   6.355   0.130  0.0730 -0.2882  0.0523
 2863W        W 6914   8.462   9.685  10.985  0.1121  0.0288 -0.0831
 2864W        W 6915   0.259   6.566  11.055 -0.0206  0.3562 -0.1526
 2865W        W 6916   4.455   0.316   0.368  0.2791 -0.3013  0.0538
 2866W        W 6917   5.034   4.840   9.562  0.0532  0.2463 -0.0427
 2867W        W 6918   9.441   8.554  13.818 -0.2441 -0.2356 -0.2876
 2868W        W 6919   5.485   0.021  13.058 -0.3376  0.1624  0.1182
 2869W        W 6920   2.527   9.214  13.043 -0.0042  0.2237 -0.1908
 2870W        W 6921   4.431   3.287  12.106  0.2820 -0.4279  0.0990
 2871W        W 6922   3.885   3.759   4.280  0.3242 -0.1969  0.2115
 2872W        W 6923   8.388   7.017   1.559 -0.3080 -0.2079 -0.2385
 2873W        W 6924   7.967   2.352   0.304  0.3582 -0.0973 -0.1876
 2874W        W 6925   7.454   2.849  13.260 -0.1353 -0.2060 -0.1745
 2875W        W 6926   5.717   1.369   1.338  0.0972 -0.2550 -0.0652
 2876W        W 6927   1.512   3.650   3.279 -0.0771 -0.0355 -0.0287
 2877W        W 6928   4.815   0.599   1.729  0.2576 -0.1752  0.1551
 2878W        W 6929   8.920   1.866   0.690 -0.0429 -0.2426 -0.2878
 2879W        W 6930   5.216   4.954   3.061  0.3019  0.2156  0.4174
 2880W        W 6931   0.402   9.586   9.980 -0.0088 -0.1117  0.2537
 2881W        W 6932   6.778   4.020  10.073 -0.0622  0.0001  0.4026
 2882W        W 6933   5.677   2.595   2.777 -0.1081 -0.0097  0.1879
 2883W        W 6934   8.010   7.616  10.453  0.0889 -0.1167 -0.0163
 2884W        W 6935   4.532   9.204  11.573 -0.0087 -0.0317 -0.1012
 2885W        W 6936   6.767   5.096   3.022  0.0654  0.1590 -0.0427
 2886W        W 6937   1.894   7.218   2.638  0.0228 -0.0674  0.3844
 2887W        W 6938   9.797   7.492   3.546  0.0125 -0.0319 -0.2169
 2888W        W 6939   5.377   9.667   1.617  0.0641  0.1914 -0.0440
 2889W        W 6940   0.604   6.487   4.074  0.3513  0.1435 -0.0745
 2890W        W 6941   5.998   2.230  13.009 -0.0624  0.0530 -0.1569
 2891W        W 6942   4.534   2.145   3.823  0.0258  0.1204  0.0327
 2892W        W 6943   8.325   6.128   2.023 -0.2121  0.1588  0.0010
 2893W        W 6944   3.486   3.785  10.245  0.0451  0.1633  0.0680
 2894W        W 6945   6.471   4.592   1.177  0.1288  0.2681  0.2691
 2895W        W 6946   0.977   1.045   2.534  0.0438  0.1376  0.3016
 2896W        W 6947   9.118   4.437  11.213  0.1252 -0.0027 -0.3854
 2897W        W 6948   4.663   8.843   0.905  0.4126 -0.0434  0.0750
 2898W        W 6949   3.567   5.485  12.417 -0.1729 -0.4637  0.0945
 2899W        W 6950   2.035   6.067  11.512  0.2058  0.1741 -0.1251
 2900W        W 6951   3.563   1.619   1.740  0.1389 -0.1095  0.1726
 2901W        W 6952   0.653   0.972  10.032  0.0119  0.0004  0.2564
 2902W        W 6953   8.384   1.131  11.581  0.2072 -0.0719  0.1753
 2903W        W 6954   2.380   6.238  12.656 -0.0231 -0.1902 -0.1527
 2904W        W 6955   8.441   7.454  13.106 -0.0496 -0.1595 -0.0895
 2905W        W 6956   5.222   9.257   9.773 -0.1710  0.1951  0.2126
 2906W        W 6957   2.770   0.103   9.776 -0.2072 -0.0770  0.0862
 2907W        W 6958   8.713   2.556   0.857 -0.0899 -0.0186  0.1959
 2908W        W 6959   3.469   0.922  12.598  0.1584 -0.2512 -0.3004
 2909W        W 6960   5.668   4.490  10.221  0.0435 -0.1988 -0.0273
 2910W        W 6961  10.063   5.338   9.653  0.0846 -0.1099  0.1265
 2911W        W 6962   3.874   9.217   1.443  0.0068  0.2766 -0.0260
 2912W        W 6963   2.320   8.355   2.909  0.4061 -0.0563  0.1999
 2913W        W 6964   7.294   4.272  12.994  0.4875  0.0654 -0.2298
 2914W        W 6965   6.276   1.580   4.474  0.1343 -0.3059  0.2030
 2915W        W 6966   8.471   6.935   8.582  0.2535  0.0731 -0.2094
 2916W        W 6967   4.153   5.415  12.566  0.0129  0.3014 -0.0293
 2917W        W 6968   8.311   6.327   9.919  0.2350 -0.2407  0.3562
 2918W        W 6969   2.122   5.669   0.965 -0.0064 -0.3681  0.1560
 2919W        W 6970   1.137   6.759   4.844  0.1070  0.1014  0.1287
 2920W        W 6971   8.293   5.268   4.288 -0.0371  0.2575  0.0513
 2921W        W 6972   9.642   3.623  12.305  0.1021 -0.0247  0.2255
 2922W        W 6973   9.857   3.940   1.079 -0.0509  0.2632  0.3364
 2923W        W 6974   1.896   4.307   1.775 -0.0212 -0.1359 -0.3318
 2924W        W 6975   7.374   3.990   9.426 -0.0721  0.0328 -0.0034
 2925W        W 6976   3.412   4.280  10.329  0.1281  0.0146 -0.0502
 2926W        W 6977   1.032   4.276   0.697 -0.0423  0.1242  0.0061
 2927W        W 6978  10.069   6.230  11.281 -0.0546  0.3758 -0.1076
 2928W        W 6979   0.592   9.318   2.323 -0.0359 -0.1173 -0.0472
 2929W        W 6980   4.302   7.286   2.227 -0.1616  0.1774  0.1073
 2930W        W 6981   0.738   9.547  11.440  0.0064 -0.2188 -0.0303
 2931W        W 6982   7.287   6.877   8.504 -0.0917 -0.0634  0.1382
 2932W        W 6983   6.890   0.603   3.687 -0.0195 -0.1556  0.0159
 2933W        W 6984   5.173   8.034  10.233 -0.1162 -0.1273 -0.0378
 2934W        W 6985   7.625   6.459   0.381 -0.1446 -0.1430  0.2673
 2935W        W 6986   6.024   9.696   3.424  0.0802 -0.1318 -0.1120
 2936W        W 6987   6.137   8.831   4.131  0.3156  0.1005 -0.0995
 2937W        W 6988   3.607   2.771   2.598  0.1037 -0.1547  0.0583
 2938W        W 6989   3.227   5.394   4.346 -0.1101 -0.0195  0.0641
 2939W        W 6990   7.663   6.118   1.330  0.1409  0.2633  0.2004
 2940W        W 6991   1.710   9.017  14.016  0.0004  0.0784  0.0893
 2941W        W 6992   0.934   4.597  10.470 -0.1478 -0.2128  0.2030
 2942W        W 6993   7.760   2.220   9.568  0.0480  0.1894 -0.2452
 2943W        W 6994   7.145   2.893  11.445 -0.0366 -0.0230 -0.0848
 2944W        W 6995   0.240   5.945  13.485 -0.1215  0.1100 -0.0359
 2945W        W 6996   2.355   3.918   3.629 -0.0242  0.1687  0.2101
 2946W        W 6997   5.593   9.115   1.276 -0.0215  0.1662  0.2095
 2947W        W 6998   7.747   7.486   5.214 -0.1758 -0.0004 -0.2456
 2948W        W 6999   3.691   6.434  10.367 -0.0202  0.0200 -0.0694
 2949W        W 7000   7.674   0.537  12.154 -0.0687  0.1374  0.0541
 2950W        W 7001   4.613   2.564   4.114 -0.0416 -0.1418 -0.2236
 2951W        W 7002   2.386   1.407  11.033 -0.2008 -0.2157 -0.1010
 2952W        W 7003   4.099   1.712  10.920 -0.0196 -0.0297 -0.0561
 2953W        W 7004   5.426   0.798  12.240  0.1173 -0.0429  0.3266
 2954W        W 7005   6.021   8.857   2.165  0.2139  0.0169 -0.2896
 2955W        W 7006   9.256   2.757   4.612  0.0845  0.4140  0.1697
 2956W        W 7007   7.979   6.373   4.477  0.1217 -0.2425 -0.0379
 2957W        W 7008   2.833   6.247  11.490  0.1292 -0.2054  0.0025
 2958W        W 7009   3.052   1.498   2.991 -0.0629 -0.0129  0.1727
 2959W        W 7010   3.217   1.473  11.341 -0.0013  0.3961  0.3756
 2960W        W 7011   4.705   8.278   1.697  0.0589  0.0817 -0.1583
 2961W        W 7012   2.934   0.404  12.637  0.0470  0.1450 -0.1688
 2962W        W 7013   0.148   5.638   2.206 -0.2691  0.1167  0.3405
 2963W        W 7014   2.592   1.689   3.693  0.1670  0.1381  0.4236
 2964W        W 7015   0.284   3.381   1.592  0.1284 -0.0306 -0.0642
 2965W        W 7016   6.036   4.239   9.230  0.0403 -0.0886 -0.0830
 2966W        W 7017   4.760   8.786  12.842  0.0932  0.3000  0.2043
 2967W        W 7018   3.634   3.441   5.300 -0.1323  0.1337 -0.2060
 2968W        W 7019   2.372   9.851  12.437  0.2517  0.1436 -0.2775
 2969W        W 7020   8.014   7.767   4.397  0.0509  0.0094  0.1737
 2970W        W 7021   1.512   8.847   1.701 -0.0762 -0.3222 -0.1422
 2971W        W 7022   3.388   1.400  10.539  0.1591 -0.0349 -0.1190
 2972W        W 7023   3.428   7.695  12.146 -0.0523 -0.2373  0.0416
 2973W        W 7024   8.432   6.423   4.713  0.0761 -0.0770 -0.0390
 2974W        W 7025   3.077   7.053   4.060 -0.0891 -0.1530 -0.1823
 2975W        W 7026   0.163   5.494   0.077 -0.1289  0.1369  0.2061
 2976W        W 7027   6.225   8.002   2.685  0.2713 -0.1965  0.1330
 2977W        W 7028   6.803   4.386   3.835  0.1036 -0.0029  0.1178
 2978W        W 7029   4.760   8.386   2.860 -0.1471  0.2111 -0.0601
 2979W        W 7030   5.039   2.760   1.511  0.0491 -0.1211 -0.1005
 2980W        W 7031   7.235   4.906   9.557  0.2202 -0.0282  0.1352
 2981W        W 7032   0.595   0.172  10.568 -0.1728  0.4377  0.2037
 2982W        W 7033   6.908   8.327   4.629  0.2754 -0.0801  0.1722
 2983W        W 7034   5.855   4.665  10.697  0.1521  0.1826 -0.0346
 2984W        W 7035   5.814   3.760  13.066 -0.0072 -0.1008  0.0731
 2985W        W 7036   1.894   5.854  10.272  0.2873  0.0592 -0.2638
 2986W        W 7037   2.076   3.049  12.144  0.2778 -0.2278 -0.1275
 2987W        W 7038   5.735   8.618   4.985  0.1200 -0.1744  0.1112
 2988W        W 7039   8.921  10.172   0.246  0.3412  0.1572  0.0658
 2989W        W 7040   4.567   1.552   3.691  0.0637 -0.2336  0.1011
 2990W        W 7041   0.716   8.160   1.824  0.1463  0.1173  0.0444
 2991W        W 7042   6.149   6.137   3.104 -0.1309  0.0216 -0.1348
 2992W        W 7043   2.128   2.075   3.525  0.1163 -0.0327  0.1920
 2993W        W 7044   9.070   2.661  12.533 -0.2688 -0.3943 -0.1180
 2994W        W 7045   1.718   4.745   3.213 -0.2232  0.2643 -0.4444
 2995W        W 7046   1.790   5.839   1.281 -0.0204 -0.0684  0.5877
 2996W        W 7047   4.468   9.469   0.088 -0.1428 -0.2987 -0.0583
 2997W        W 7048   1.237   8.010  11.640 -0.3272  0.1581 -0.1646
 2998W        W 7049   0.080   9.657   0.342 -0.0914 -0.2737  0.0013
 2999W        W 7050   5.824   3.548   9.328 -0.0672 -0.1083  0.1222
 3000W        W 7051   3.737   8.681   3.007  0.0006  0.1120  0.1959
 3001W        W 7052   1.197   5.823   2.485 -0.1026 -0.0092 -0.1739
 3002W        W 7053   6.316   3.104   3.143 -0.4400  0.1224  0.0593
 3003W        W 7054   8.359   5.727   3.104 -0.4783  0.1362  0.2277
 3004W        W 7055   5.340   2.667   1.998  0.1723  0.0448  0.1437
 3005W        W 7056   3.302   0.616  13.362 -0.4078  0.0717 -0.0811
 3006W        W 7057   5.736   2.449  10.624  0.0035 -0.1085 -0.2418
 3007W        W 7058   6.887   2.827   9.186 -0.2518 -0.0543 -0.0874
 3008W        W 7059   3.917   4.778  11.818 -0.0332 -0.2183 -0.1127
 3009W        W 7060   7.248   1.436  12.172 -0.0377 -0.0731  0.0056
 3010W        W 7061  10.172   4.239   2.698 -0.2999 -0.2559  0.2009
 3011W        W 7062   7.079   1.986   3.854  0.3676  0.4476 -0.2254
 3012W        W 7063   9.550   2.311  12.505 -0.0614 -0.1432  0.0477
 3013W        W 7064   6.196   3.780   1.456  0.1196  0.0167  0.1169
 3014W        W 7065   0.991   4.013  13.679  0.1816 -0.0418 -0.1138
 3015W        W 7066   5.333   2.689   3.500  0.1225 -0.2844  0.1330
 3016W        W 7067   4.679   6.362   3.581  0.1295 -0.0048 -0.1534
 3017W        W 7068   5.472   7.030  13.738 -0.1950 -0.3418  0.0746
 3018W        W 7069   9.930   5.140   4.316  0.5857 -0.3677 -0.0277
 3019W        W 7070   2.513   3.292   9.796 -0.1931 -0.1481  0.0025
 3020W        W 7071   3.996   7.706   3.077  0.0272 -0.2129  0.0152
 3021W        W 7072   4.943   5.720  13.181 -0.0597 -0.1927 -0.0489
 3022W        W 7073   3.085   7.372   3.487 -0.1711  0.0367  0.0984
 3023W        W 7074   1.254   9.954  13.873  0.3791  0.1540 -0.2549
 3024W        W 7075   1.572   6.931  10.405 -0.1162 -0.0832 -0.0489
 3025W        W 7076   1.851   8.952   0.435 -0.2280 -0.3246  0.0991
 3026W        W 7077   9.290   5.213   4.757  0.1687  0.2632 -0.2293
 3027W        W 7078   0.380   4.956   4.051 -0.1342  0.1959  0.1693
 3028W        W 7079   7.069   9.039  12.842 -0.2178 -0.1915  0.1533
 3029W        W 7080   7.365   3.665   4.064  0.0917 -0.4119 -0.1417
 3030W        W 7081   4.922  10.098   4.150  0.1543  0.0589 -0.1691
 3031W        W 7082   5.100   1.178  13.345 -0.1048  0.1077 -0.0654
 3032W        W 7083   4.866   1.741   1.411  0.2973  0.0066  0.0429
 3033W        W 7084   6.659   6.410   4.888 -0.0193 -0.0272 -0.3255
 3034W        W 7085   5.604   8.873  10.062 -0.1399 -0.0556 -0.1525
 3035W        W 7086   1.526   6.134   3.596 -0.0537 -0.0882  0.0213
 3036W        W 7087   8.122   6.145   1.556 -0.0894  0.1741  0.3537
 3037W        W 7088   3.149   4.725  10.699 -0.0079 -0.0791 -0.0372
 3038W        W 7089   5.410   9.059  10.523  0.0077  0.3554  0.1799
 3039W        W 7090   4.426   9.202   9.912 -0.2376 -0.3487  0.2637
 3040W        W 7091   8.752   6.740   4.499 -0.2563 -0.2023  0.1312
 3041W        W 7092   6.197   7.435   4.172  0.0119 -0.1169  0.2857
 3042W        W 7093   1.929   9.377  13.701 -0.0602 -0.2862 -0.1143
 3043W        W 7094   0.444   4.448  11.253  0.2581  0.1032  0.0707
 3044W        W 7095   0.089   5.312   4.016 -0.2560  0.3175 -0.1555
 3045W        W 7096   0.295   6.792   2.537 -0.0364  0.1371  0.0249
 3046W        W 7097   0.495   7.921  11.198  0.0173 -0.2962  0.0377
 3047W        W 7098   4.213   2.658   9.243  0.3224  0.0779  0.3062
 3048W        W 7099   1.966   8.816  12.264 -0.0907  0.0047  0.1564
 3049W        W 7100   1.673   3.647  12.884  0.4128  0.0260 -0.0666
 3050W        W 7101   8.625   9.245   8.843  0.2063 -0.1301  0.2871
 3051W        W 7102   4.625   6.702   0.334  0.0711 -0.0804 -0.1193
 3052W        W 7103   1.276   4.821  12.481 -0.0081 -0.2211 -0.0797
 3053W        W 7104   1.910   1.544  11.946 -0.3625 -0.0568  0.3488
 3054W        W 7105   0.579   8.696   3.534  0.2983 -0.1243 -0.0484
 3055W        W 7106   8.130   4.329   4.575  0.0967 -0.0704  0.1483
 3056W        W 7107   9.913   3.390  12.630 -0.0173 -0.1566 -0.3182
 3057W        W 7108   9.882   3.436  13.167  0.2103  0.2403 -0.4752
 3058W        W 7109   1.312   8.808   0.297  0.1689 -0.3010 -0.1060
 3059W        W 7110   4.172   9.869  10.878  0.2489  0.0807  0.0479
 3060W        W 7111   4.757   9.706  12.145  0.0996  0.1088 -0.1723
 3061W        W 7112   1.896   2.488   3.327  0.2967 -0.0779 -0.0140
 3062W        W 7113   7.434   8.650  12.770  0.0579  0.2490 -0.0813
 3063W        W 7114   5.416   6.317   0.868  0.1393  0.0499 -0.0675
 3064W        W 7115   4.746   7.521   2.510  0.0591  0.0060  0.3876
 3065W        W 7116   5.525   6.168   2.988 -0.0459  0.1837  0.1152
 3066W        W 7117   8.560   8.801  10.805  0.2110  0.1493 -0.4316
 3067W        W 7118   5.966   3.921   3.655 -0.2157 -0.5803 -0.2316
 3068W        W 7119   6.116   1.244  12.751 -0.0905  0.1471  0.0205
 3069W        W 7120   0.415   2.207  13.841 -0.1391  0.4829  0.2214
 3070W        W 7121   0.486   5.540   3.858  0.1976  0.0163 -0.0194
 3071W        W 7122   4.649   1.267  11.468 -0.1281  0.2390 -0.1452
 3072W        W 7123   6.173   5.147  12.130  0.0611 -0.0282 -0.1044
 3073W        W 7124   6.384   5.026   9.725 -0.0801  0.0239 -0.1834
 3074W        W 7125   0.609   4.174   0.526  0.4574  0.0525  0.1097
 3075W        W 7126   0.120   4.114  11.859  0.2367 -0.1302  0.1972
 3076W        W 7127   1.890   8.801   2.110 -0.2279 -0.2244  0.0634
 3077W        W 7128   8.386   0.917   9.191 -0.0422  0.0401 -0.0659
 3078W        W 7129   1.241   7.116   0.563  0.4103 -0.0848 -0.0146
 3079W        W 7130   1.974   7.295  11.562 -0.0646  0.2599  0.0014
 3080W        W 7131   2.038   2.040   3.002  0.0375 -0.0156 -0.1322
 3081W        W 7132   9.791   8.633   9.879 -0.0034 -0.5165 -0.0902
 3082W        W 7133   5.282   3.269  13.159  0.0212 -0.0958  0.0465
 3083W        W 7134   9.480   2.922   3.931  0.1172  0.2092  0.0658
 3084W        W 7135   1.495   3.558   3.769 -0.0580  0.0894 -0.0800
 3085W        W 7136   3.964   3.219  12.247  0.1036 -0.0163  0.4893
 3086W        W 7137   3.056   6.452   4.837  0.1282 -0.1201 -0.1004
 3087W        W 7138   2.371   5.252  11.151  0.0593 -0.0442 -0.0318
 3088W        W 7139   5.682   5.921   8.926 -0.1606  0.0785  0.1835
 3089W        W 7140   0.258   4.696   3.273 -0.0280  0.3139 -0.0530
 3090W        W 7141   7.470   3.103   4.082 -0.2513 -0.3908  0.0128
 3091W        W 7142   9.754   4.332  13.003 -0.1231 -0.1185  0.2519
 3092W        W 7143   7.757   2.804   4.437 -0.0900 -0.0647 -0.2075
 3093W        W 7144   4.873   5.549  10.406  0.0647 -0.0834 -0.1812
 3094W        W 7145   7.239   3.154  10.902  0.0308  0.2906 -0.0594
 3095W        W 7146   3.283   2.263   4.158 -0.2631  0.0171 -0.2341
 3096W        W 7147   9.868   6.822   2.659 -0.4116  0.0572  0.1816
 3097W        W 7148   2.828   3.240  11.300 -0.2736  0.2381  0.0799
 3098W        W 7149   6.700   9.052   0.553  0.1277 -0.0760 -0.1546
 3099W        W 7150   1.553   9.891  13.053  0.0477  0.1457  0.0565
 3100W        W 7151   4.984   7.430   0.521  0.0061  0.2793 -0.1983
 3101W        W 7152   3.153   4.784   3.665 -0.0239  0.0435  0.0662
 3102W        W 7153   0.199   1.284   1.639  0.0138 -0.3135 -0.4824
 3103W        W 7154   5.954   3.613  13.630  0.0163  0.2558  0.0729
 3104W        W 7155   9.587   8.341  10.512  0.2518 -0.2566 -0.1671
 3105W        W 7156   4.779   9.895  10.330 -0.0331 -0.0790 -0.5174
 3106W        W 7157   0.936   3.870  11.356 -0.0706  0.0097  0.0142
 3107W        W 7158   7.135   8.433   3.437 -0.2247  0.0084  0.1480
 3108W        W 7159   8.526   7.437   0.839  0.1103 -0.2367 -0.1400
 3109W        W 7160   4.384   1.949   4.444 -0.2297 -0.4280 -0.0397
 3110W        W 7161   0.411   4.173   3.018 -0.1465 -0.3176  0.1842
 3111W        W 7162   0.226   7.120   2.045  0.2377 -0.0318 -0.1075
 3112W        W 7163   6.254   9.237   3.365 -0.1515 -0.0177  0.0393
 3113W        W 7164   6.781   4.278  13.848  0.0257  0.1480 -0.2555
 3114W        W 7165   8.108   6.619   0.766  0.4273  0.0765  0.2030
 3115W        W 7166   9.812   6.874  11.955 -0.0422 -0.0117 -0.5744
 3116W        W 7167   4.577   5.008  12.410 -0.0598  0.1965  0.0502
 3117W        W 7168   3.880   1.033  13.466 -0.0087  0.0828 -0.0224
 3118W        W 7169   8.863   7.599  13.379  0.0418  0.0932 -0.2313
 3119W        W 7170   2.283   2.303   9.735  0.0445  0.1041  0.1478
 3120W        W 7171   5.350   8.357   3.009 -0.0543  0.2792  0.1248
 3121W        W 7172   2.303   8.364   0.062 -0.0584  0.3032 -0.0109
 3122W        W 7173   8.299   9.533  12.800 -0.0627  0.1691 -0.2350
 3123W        W 7174   6.211   0.665   0.925 -0.3337 -0.2331  0.3670
 3124W        W 7175   6.366   4.479   0.141 -0.0241  0.0825 -0.0786
 3125W        W 7176   1.222   0.362  12.680 -0.0504  0.2587 -0.1568
 3126W        W 7177   8.171   6.600   2.104  0.0196 -0.3145 -0.0861
 3127W        W 7178   7.030   4.017  13.395  0.1319  0.0137 -0.3168
 3128W        W 7179   5.415   0.370   2.358  0.2101 -0.1230  0.1055
 3129W        W 7180   7.593   5.777   3.765  0.0642 -0.2209 -0.0066
 3130W        W 7181   3.415   3.244  10.076  0.1093 -0.0602  0.2009
 3131W        W 7182   8.719   5.833  10.874 -0.0036  0.1057  0.0908
 3132W        W 7183   4.084   0.690   2.171 -0.1000 -0.0533  0.0978
 3133W        W 7184   3.250   4.613  13.376  0.0707 -0.0394 -0.1097
 3134W        W 7185   3.665   0.491  11.339 -0.0938 -0.0782 -0.2777
 3135W        W 7186   5.159   0.867   9.891 -0.1843 -0.1968 -0.0730
 3136W        W 7187   7.392   1.445   4.610  0.1979 -0.2336  0.0856
 3137W        W 7188   5.270   9.530   1.111  0.3983 -0.0219 -0.0169
 3138W        W 7189   7.647   2.984   3.545  0.3355 -0.1796  0.3469
 3139W        W 7190   9.299   5.578  11.640 -0.0293 -0.1241  0.3132
 3140W        W 7191   5.320   7.010   9.533 -0.0748  0.0042 -0.0664
 3141W        W 7192   2.704   1.622  12.196 -0.0980 -0.1411 -0.0415
 3142W        W 7193   3.568   9.754   9.730  0.0364  0.0430  0.0453
 3143W        W 7194   0.762   9.905   1.585  0.0299  0.0873  0.1751
 3144W        W 7195   2.656   8.691   2.591 -0.2939 -0.1777 -0.0675
 3145W        W 7196   9.443   2.823   0.508  0.0904  0.0523 -0.1563
 3146W        W 7197   3.084   6.412  11.041  0.0182  0.1495  0.1937
 3147W        W 7198   1.093   2.283   1.208  0.0516  0.1579 -0.1036
 3148W        W 7199   7.458   2.832  13.797 -0.1583  0.0331  0.0118
 3149W        W 7200   1.892   4.297  13.124  0.2305  0.2438 -0.2408
 3150W        W 7201   4.029   9.445  10.143  0.1883 -0.0502  0.0821
 3151W        W 7202   9.484   9.896  10.072 -0.0079  0.1623  0.0579
 3152W        W 7203   6.747   5.049   1.152  0.1675 -0.0270  0.0808
 3153W        W 7204   7.455   7.198  13.792  0.0550  0.1240  0.0346
 3154W        W 7205   6.678   4.302   0.515 -0.1746  0.2089 -0.1147
 3155W        W 7206   0.126   2.450   0.155 -0.1378 -0.0147  0.1355
 3156W        W 7207   9.435   7.441   9.489  0.0087 -0.0248  0.1281
 3157W        W 7208   7.650   9.504  12.091 -0.1963  0.0332  0.3340
 3158W        W 7209   5.999  10.001   9.703 -0.1146  0.2391  0.0752
 3159W        W 7210   9.602   8.922   0.071 -0.0890 -0.2223  0.2215
 3160W        W 7211   8.879   6.663  10.976  0.2110  0.1282 -0.1824
 3161W        W 7212   1.165   4.790   3.342  0.3339  0.3187 -0.0294
 3162W        W 7213   7.513   6.238  11.936  0.3047  0.1161  0.0083
 3163W        W 7214   8.017   7.012  11.081  0.2252 -0.1713  0.1799
 3164W        W 7215   9.883   1.253   0.157  0.1712  0.1116  0.0954
 3165W        W 7216   5.417   0.044  13.679 -0.0482 -0.3036  0.1205
 3166W        W 7217   3.542   4.000   2.699 -0.2451  0.3072 -0.0874
 3167W        W 7218   4.971   2.067  10.477  0.2437  0.0358  0.0181
 3168W        W 7219   8.090   9.307  11.133 -0.0794  0.0406  0.0557
 3169W        W 7220   9.971   5.920   2.007  0.1882 -0.0448  0.3205
 3170W        W 7221   0.840   1.331   0.122  0.0302  0.0537 -0.1278
 3171W        W 7222   6.075   7.472  11.471  0.2027 -0.0877 -0.0698
 3172W        W 7223   7.717   5.909  12.357  0.1695  0.1248 -0.1995
 3173W        W 7224   8.824   7.118  10.066  0.0468 -0.4596 -0.1365
 3174W        W 7225   2.502   4.064   4.672  0.1887 -0.0595  0.1916
 3175W        W 7226   6.272   0.299   2.306  0.0069  0.0410  0.3098
 3176W        W 7227  10.027   4.312  12.576  0.0522 -0.3986  0.1604
 3177W        W 7228   5.131   0.721  13.529  0.2045  0.3431 -0.0442
 3178W        W 7229   4.014   4.160   1.054  0.0913  0.0181 -0.0206
 3179W        W 7230   4.202   3.134  10.143 -0.2335  0.1687  0.0549
 3180W        W 7231   4.362   0.930  10.932 -0.1799 -0.1717 -0.1477
 3181W        W 7232   8.475   1.236   3.639  0.2614  0.0011  0.1712
 3182W        W 7233   9.526   5.916  12.161  0.3439 -0.2836 -0.0930
 3183W        W 7234   1.613   7.710   0.125 -0.1377  0.2130  0.1259
 3184W        W 7235   8.562   5.032  10.381 -0.1000 -0.2211  0.0748
 3185W        W 7236   2.314   5.343   9.753  0.1140 -0.2621  0.2946
 3186W        W 7237   1.003   1.348   1.285 -0.1980 -0.0843 -0.0580
 3187W        W 7238   5.694   1.173   2.521  0.1636  0.2442  0.1074
 3188W        W 7239   2.480   7.443  11.286  0.0374  0.1535  0.2685
 3189W        W 7240   5.992   1.196   3.514 -0.0130  0.1717  0.1469
 3190W        W 7241   2.425   0.486   0.913 -0.2154 -0.2173 -0.0694
 3191W        W 7242   1.766   7.033   0.468 -0.0921  0.0983 -0.1415
 3192W        W 7243   0.295   3.376  12.677 -0.3105 -0.2698  0.4914
 3193W        W 7244   6.581   5.603  11.840 -0.1013 -0.0371  0.1219
 3194W        W 7245   6.777   4.528   4.779 -0.0130 -0.0261  0.0361
 3195W        W 7246   2.761   9.126  11.155  0.1354  0.1080  0.3392
 3196W        W 7247   1.790   0.504   1.599 -0.3311 -0.0610  0.0114
 3197W        W 7248   4.282   9.139   0.498 -0.3227  0.2011 -0.1416
 3198W        W 7249   4.673   4.679   5.028  0.2120 -0.0665  0.0041
 3199W        W 7250   9.710   0.518   0.197 -0.2012  0.2501  0.1059
 3200W        W 7251   6.637   1.686   5.396 -0.0910  0.1342 -0.0301
 3201W        W 7252   9.472   6.335   1.163  0.1522 -0.0190  0.1190
 3202W        W 7253   5.356   8.139   0.502 -0.1154 -0.0889 -0.0289
 3203W        W 7254   6.467   6.664  12.564 -0.0898 -0.0256 -0.2288
 3204W        W 7255   5.255   4.139   4.081 -0.0648 -0.0476  0.3185
 3205W        W 7256   9.307   8.775  12.120 -0.0509 -0.4656 -0.0625
 3206W        W 7257   5.145   2.021  11.825 -0.0027  0.0427  0.2032
 3207W        W 7258   6.686   2.416   3.629 -0.2466 -0.2436 -0.0046
 3208W        W 7259   5.436   6.533   9.623  0.0086  0.1783 -0.1852
 3209W        W 7260   4.569   1.289  10.077 -0.0774 -0.2231 -0.1414
 3210W        W 7261   3.568   1.672  11.018 -0.0356 -0.2996  0.0518
 3211W        W 7262   6.237   2.646   3.520  0.1735  0.0749  0.3010
 3212W        W 7263   8.207   1.381  13.422 -0.0462  0.0830  0.1555
 3213W        W 7264   1.619   9.426  12.751 -0.3437  0.1480  0.1542
 3214W        W 7265   6.375   3.106  13.350 -0.0508 -0.1788 -0.0527
 3215W        W 7266   8.953   3.688  12.931 -0.5528 -0.0529 -0.3015
 3216W        W 7267   8.546   2.543   9.858 -0.3106  0.0584  0.5560
 3217W        W 7268   2.806   4.362   2.010 -0.2567  0.1734  0.1348
 3218W        W 7269   1.262   4.291   3.479 -0.0866  0.4259 -0.2975
 3219W        W 7270   8.877   5.170  12.201 -0.0573 -0.0018  0.1563
 3220W        W 7271   4.737   1.759  10.075 -0.1959  0.1277  0.0549
 3221W        W 7272   1.693   4.216   9.650 -0.1525 -0.0901  0.0271
 3222W        W 7273   3.069  10.160   1.558 -0.1095  0.1338 -0.0667
 3223W        W 7274   2.334   5.025   3.119 -0.3013 -0.0779 -0.1797
 3224W        W 7275   7.489   1.911   0.818  0.2072 -0.1652 -0.0503
 3225W        W 7276   7.992   2.509   2.434 -0.1340 -0.0524 -0.1628
 3226W        W 7277   2.302   2.068   3.993 -0.1329 -0.0204 -0.0420
 3227W        W 7278  10.053   0.590  13.424  0.0295 -0.0545 -0.3528
 3228W        W 7279   2.508   4.170  10.272  0.0699  0.2710 -0.1433
 3229W        W 7280   2.682   6.146  10.090  0.2487  0.1036  0.0130
 3230W        W 7281   9.598   0.524   0.673 -0.1079  0.1919 -0.1932
 3231W        W 7282   3.798   8.888  13.099 -0.1217  0.0981  0.0237
 3232W        W 7283   2.434   2.532  13.323 -0.0165  0.0047 -0.0961
 3233W        W 7284   0.465   0.921   2.378 -0.1442  0.2515 -0.0233
 3234W        W 7285   8.604   2.467  12.870  0.0970  0.5037 -0.1711
 3235W        W 7286   7.235   0.194  10.671 -0.1959 -0.2367 -0.2610
 3236W        W 7287   7.955   5.219  13.769 -0.1548 -0.1154  0.2794
 3237W        W 7288   4.907   9.307   3.043  0.0788  0.0780 -0.1985
 3238W        W 7289   4.754   3.851  11.425  0.0163  0.0859  0.1285
 3239W        W 7290   6.006   4.263   4.130 -0.0432 -0.0366 -0.0889
 3240W        W 7291   6.812   9.440  11.527 -0.1141  0.0143 -0.1559
 3241W        W 7292   0.217   9.360  12.375 -0.0742  0.2538 -0.0515
 3242W        W 7293   2.660   6.800  13.551  0.1971 -0.1378 -0.0514
 3243W        W 7294   2.169   0.103  12.661 -0.1600  0.0499 -0.0843
 3244W        W 7295   8.138   1.185  10.917 -0.0568  0.0839  0.1801
 3245W        W 7296   3.752   0.413  10.491 -0.1650  0.2793 -0.0154
 3246W        W 7297   0.113   2.138  10.874  0.1890 -0.1212  0.2053
 3247W        W 7298   7.261   9.828   0.921 -0.0739 -0.0930 -0.2584
 3248W        W 7299   1.062   6.209   2.772 -0.1630  0.1532  0.1564
 3249W        W 7300   6.205   3.990   2.367  0.1569  0.1694 -0.4735
 3250W        W 7301   8.897   7.205   2.264 -0.1015 -0.2234  0.0369
 3251W        W 7302   5.832   6.609   3.131  0.1343  0.1197  0.0402
 3252W        W 7303  10.103   6.386   1.810  0.1731  0.0504 -0.1551
 3253W        W 7304   7.269   7.376   5.169 -0.2127  0.2152 -0.1158
 3254W        W 7305   2.079   7.121   3.390 -0.0539  0.3047  0.1640
 3255W        W 7306   6.473   6.251   8.573 -0.0443  0.1000  0.0880
 3256W        W 7307   8.392   7.884   0.887 -0.1402 -0.1037 -0.0793
 3257W        W 7308   9.793   2.669   4.494  0.0968 -0.0765 -0.1542
 3258W        W 7309   3.885   7.765  12.439  0.1648  0.2831 -0.1454
 3259W        W 7310   3.331   6.109   2.209  0.0296 -0.0554  0.0951
 3260W        W 7311   0.138   0.794   0.305  0.1121  0.1024  0.2267
 3261W        W 7312   5.324   2.247   4.346 -0.0971 -0.2974 -0.0971
 3262W        W 7313   2.883   8.453   0.724  0.1615 -0.0789  0.1167
 3263W        W 7314   9.344   5.288  10.796 -0.1777 -0.0951  0.0904
 3264W        W 7315   7.427   8.904   2.697  0.2604  0.0326  0.3081
 3265W        W 7316   3.459   6.986   0.711  0.0229  0.0178 -0.0159
 3266W        W 7317   5.712   7.577  10.832  0.2876  0.0746  0.0046
 3267W        W 7318   2.329   3.719   9.019  0.2605 -0.1104 -0.0685
 3268W        W 7319   4.729   3.325  11.625  0.2054 -0.0655  0.0351
 3269W        W 7320   3.773   4.389   5.116  0.0720  0.2569  0.2989
 3270W        W 7321   8.322   1.472   4.044  0.4390 -0.0915  0.0159
 3271W        W 7322   6.938   9.770   1.542 -0.0875  0.1616 -0.1520
 3272W        W 7323   6.960   1.869   5.093  0.1751 -0.0692  0.1624
 3273W        W 7324   6.190   4.503  10.306  0.0195 -0.0481 -0.1216
 3274W        W 7325   1.922   5.880   3.052 -0.0766  0.3394 -0.3057
 3275W        W 7326   2.733   4.315  12.693  0.1332  0.3018 -0.0647
 3276W        W 7327   1.209   9.714   1.537 -0.0138 -0.2102 -0.1089
 3277W        W 7328   3.424   5.525  11.270  0.1363 -0.0918 -0.1303
 3278W        W 7329   5.076   7.170  11.359  0.1032 -0.0434  0.0552
 3279W        W 7330   0.601   3.921  10.471 -0.0101  0.3352  0.0185
 3280W        W 7331   9.462   8.935  12.680 -0.2192  0.2234 -0.0539
 3281W        W 7332   4.270   9.390   1.110 -0.0123 -0.1833  0.1720
 3282W        W 7333   2.336   9.590  13.409 -0.1729  0.0489 -0.1770
 3283W        W 7334   9.716   5.014   4.790 -0.0450  0.0307  0.0888
 3284W        W 7335   1.241   5.668   0.197  0.1213  0.0683  0.1627
 3285W        W 7336   5.761   3.346  10.468 -0.0829  0.1901 -0.1679
 3286W        W 7337   8.999   6.971  11.514 -0.1606  0.2090  0.3529
 3287W        W 7338   3.960   6.971  11.910 -0.0011 -0.2572 -0.0793
 3288W        W 7339   5.091   9.719   9.993  0.3611 -0.0056 -0.3038
 3289W        W 7340   3.621   3.209   9.610  0.3493  0.0122 -0.1308
 3290W        W 7341   7.000   2.432  12.799  0.1138 -0.0070 -0.0427
 3291W        W 7342   6.132   5.893  13.240 -0.0522  0.0397 -0.0820
 3292W        W 7343   6.302   6.061   4.102 -0.4371 -0.0410 -0.0635
 3293W        W 7344   5.245   2.136   9.588  0.1461 -0.0294  0.0786
 3294W        W 7345   9.551   4.260   1.910  0.3267  0.0683  0.4691
 3295W        W 7346   5.191   4.573   1.739  0.2195 -0.1468 -0.0599
 3296W        W 7347   6.670   4.446  11.982 -0.2552  0.1740  0.0438
 3297W        W 7348   5.237   0.918  12.931  0.0543  0.0016 -0.1318
 3298W        W 7349   3.481   0.262   1.683  0.1651 -0.0132 -0.3520
 3299W        W 7350   6.821   4.155   3.395  0.0517 -0.4049  0.0591
 3300W        W 7351   5.442   7.001   3.008 -0.2299 -0.2576 -0.0392
 3301W        W 7352   0.997   5.718   3.766  0.0726  0.2775 -0.1874
 3302W        W 7353   9.932   6.698   0.386 -0.1844 -0.2777  0.1530
 3303W        W 7354   7.685  10.057   4.612 -0.2092  0.1861  0.0535
 3304W        W 7355   7.204   3.283   4.425  0.1070 -0.1185 -0.2056
 3305W        W 7356   7.275   4.517  13.923 -0.3686  0.0548 -0.1291
 3306W        W 7357   0.916   5.383   9.705  0.2053 -0.0840  0.2838
 3307W        W 7358   9.704   7.805   1.275  0.1280  0.0279 -0.3002
 3308W        W 7359   9.298   6.935  10.353  0.2976  0.2546  0.1257
 3309W        W 7360   9.228   0.519   0.265 -0.0407  0.0820  0.3695
 3310W        W 7361   5.100   1.215  11.315 -0.0744  0.2286  0.3882
 3311W        W 7362   2.684   3.759   2.800 -0.1616 -0.4488  0.0327
 3312W        W 7363   6.664   9.399  12.082  0.2021 -0.1364 -0.1756
 3313W        W 7364   6.703   8.360   1.164  0.3467  0.0893 -0.3097
 3314W        W 7365   8.237   9.074  12.340  0.0694 -0.2060  0.0098
 3315W        W 7366   1.110   3.390  11.344  0.0255 -0.2471 -0.0287
 3316W        W 7367   5.821   2.951   3.659  0.1093 -0.0018  0.1495
 3317W        W 7368   3.791   6.214  13.971  0.2733 -0.0065  0.1417
 3318W        W 7369   3.250   0.699   4.835  0.0895  0.1683  0.1637
 3319W        W 7370   5.026   8.397  13.116  0.1371  0.1703  0.2697
 3320W        W 7371   4.299   0.862  13.647 -0.2450  0.2199  0.0718
 3321W        W 7372   1.676   7.968  11.907  0.0838 -0.0236  0.1973
 3322W        W 7373   1.596   0.179   1.973 -0.0282  0.4148  0.0707
 3323W        W 7374   2.637   1.800   0.616  0.1629 -0.0090  0.0520
 3324W        W 7375   0.675   3.400   5.405  0.0065 -0.0503  0.2975
 3325W        W 7376   6.455   2.704  10.222 -0.1928  0.1594  0.2521
 3326W        W 7377   9.223   3.555  10.032  0.3239 -0.0920 -0.1587
 3327W        W 7378   4.895   5.067  10.567 -0.1877 -0.3771  0.0511
 3328W        W 7379   6.260   7.942   0.304  0.3133  0.0535 -0.2726
 3329W        W 7380   6.757  10.120   0.477 -0.1189  0.2618  0.0394
 3330W        W 7381   1.120   4.698   2.667  0.4719  0.1693 -0.0391
 3331W        W 7382   8.696   5.808   2.286  0.0742 -0.3237 -0.0047
 3332W        W 7383   1.704   5.698  11.732  0.0785  0.0932 -0.2003
 3333W        W 7384   8.996   7.801   4.224 -0.1747 -0.2988  0.0143
 3334W        W 7385   9.630   9.731   3.527  0.3339  0.0891 -0.0234
 3335W        W 7386   1.709   8.504   0.201  0.1416  0.1500 -0.0691
 3336W        W 7387   1.394   4.925   0.820 -0.2378  0.3839  0.2646
 3337W        W 7388   4.879   7.343  13.153  0.1189  0.1671  0.2621
 3338W        W 7389   0.723   0.585  11.759 -0.1909  0.4187 -0.4895
 3339W        W 7390   1.477   6.557   1.805 -0.2265 -0.1226  0.1909
 3340W        W 7391   7.166   0.676  10.472 -0.0408  0.0413  0.0388
 3341W        W 7392   8.503   0.675  11.790 -0.0283 -0.0764  0.2481
 3342W        W 7393   7.464   7.956   2.277  0.2789 -0.4498  0.0571
 3343W        W 7394   8.070   8.249   1.660  0.0192 -0.1729  0.0870
 3344W        W 7395   3.781   6.356   1.720  0.0234 -0.4010  0.3923
 3345W        W 7396   3.334   0.113  13.297 -0.1645  0.0833  0.0918
 3346W        W 7397   3.217  10.067  13.708  0.0228  0.1037 -0.0582
 3347W        W 7398   6.218   2.400   2.031  0.0106  0.1190  0.1751
 3348W        W 7399   8.017   2.824   0.516  0.1058  0.1333 -0.1058
 3349W        W 7400   7.672   7.100   2.974  0.0723  0.0267  0.0294
 3350W        W 7401   5.210   7.591   1.197  0.1935 -0.3551  0.1506
 3351W        W 7402   0.678   4.932   2.687 -0.0019  0.1180 -0.0339
 3352W        W 7403   1.217   4.363   0.120  0.0927 -0.1195 -0.0054
 3353W        W 7404   1.328   0.532   1.797  0.0519  0.0088  0.1871
 3354W        W 7405   4.180   0.010   0.665  0.1752  0.1213 -0.2375
 3355W        W 7406   9.576   2.566  13.407 -0.2865  0.0278 -0.1251
 3356W        W 7407   9.234   1.799   9.630  0.0473  0.1800  0.0105
 3357W        W 7408   7.545   7.719   3.623  0.0323  0.2175 -0.1358
 3358W        W 7409   2.481   5.924  10.532  0.0686  0.0063 -0.0386
 3359W        W 7410   3.323   9.760  10.765  0.0607 -0.2222  0.3471
 3360W        W 7411   3.839   8.984   0.526 -0.0836 -0.2539  0.2527
 3361W        W 7412   1.307  10.038  10.911 -0.2370 -0.1412 -0.1062
 3362W        W 7413   5.488   1.892   3.561  0.3675  0.3286 -0.1112
 3363W        W 7414   7.185   5.923   3.484 -0.2708 -0.0476  0.0433
 3364W        W 7415   3.659   4.120  13.828  0.1156 -0.1277 -0.0738
 3365W        W 7416   8.201   1.290   4.876  0.0214  0.2617 -0.2796
 3366W        W 7417   4.892   3.466  13.464  0.0131  0.0142  0.0147
 3367W        W 7418   5.525   6.603   5.877 -0.2170 -0.0140  0.2421
 3368W        W 7419   8.840   7.574   9.933  0.1111  0.0261  0.1593
 3369W        W 7420   5.601   0.014   4.822 -0.1465 -0.0732 -0.5245
 3370W        W 7421   2.228   8.695   6.021 -0.0534 -0.1008 -0.2369
 3371W        W 7422   9.583   7.265   0.762 -0.2823  0.1038 -0.0863
 3372W        W 7423   9.719   9.053   1.877 -0.4277  0.2643 -0.1232
 3373W        W 7424   7.863   4.058   2.578  0.0195  0.0901  0.1520
 3374W        W 7425   1.846   4.199  12.154  0.1016  0.0140 -0.1896
 3375W        W 7426   1.625   1.749   5.202  0.1173  0.0455 -0.0584
 3376W        W 7427   7.237   0.600   0.622 -0.1250  0.2384  0.2152
 3377W        W 7428   9.354   4.058  10.802 -0.0920  0.3396  0.4334
 3378W        W 7429   7.178   4.127   4.127 -0.0027 -0.0070  0.1472
 3379W        W 7430   7.018   6.460  10.556 -0.3325  0.1621  0.0936
 3380W        W 7431   6.958   6.807  10.890  0.0110 -0.0663  0.1519
 3381W        W 7432   6.949   7.268  10.170  0.0215 -0.4826  0.1098
 3382W        W 7433   3.698   5.540   1.428  0.3740 -0.1125 -0.2409
 3383W        W 7434   3.695   7.369   3.437 -0.1794 -0.2912  0.0634
 3384W        W 7435   0.043   7.407   3.745  0.4184 -0.2094 -0.1541
 3385W        W 7436   2.240   0.800  10.510 -0.4235 -0.1301 -0.1450
 3386W        W 7437   6.046  10.147  12.405 -0.1533  0.2278  0.3653
 3387W        W 7438   8.661   2.853  10.224 -0.0151 -0.1186  0.0267
 3388W        W 7439   0.221   9.647  12.927 -0.2130 -0.1656  0.0384
 3389W        W 7440   9.333   9.447  13.351  0.1321 -0.0747 -0.0258
 3390W        W 7441   0.141   7.483   2.402 -0.0794  0.1377  0.0386
 3391W        W 7442   8.993   3.701  13.444 -0.2296 -0.1867 -0.1988
 3392W        W 7443   3.018   1.421   2.165 -0.0940 -0.1098 -0.0760
 3393W        W 7444   6.527   9.248   0.953  0.1904  0.2233 -0.0641
 3394W        W 7445   5.250   8.741  12.743  0.1411  0.0412  0.0919
 3395W        W 7446   6.264   1.874   1.842  0.0026 -0.0704  0.1373
 3396W        W 7447   0.618   6.364   0.298  0.1204  0.3197 -0.0246
 3397W        W 7448   4.475   0.953   4.369 -0.2001  0.1348 -0.1247
 3398W        W 7449   2.996   2.299   1.529  0.2742  0.0163  0.0259
 3399W        W 7450   1.133   0.313   9.396 -0.4000  0.1664 -0.0505
 3400W        W 7451   1.107   3.653   5.302  0.0421  0.2138 -0.0094
 3401W        W 7452   8.886   9.643   2.226  0.2535 -0.0616  0.1061
 3402W        W 7453   0.237   2.614  10.555  0.3252 -0.0445 -0.0032
 3403W        W 7454   7.237   4.945   1.281  0.1839 -0.1516  0.2433
 3404W        W 7455   9.336  10.016   1.011 -0.2461 -0.2558 -0.5408
 3405W        W 7456   2.487   9.703   2.955 -0.1875 -0.2306  0.0961
 3406W        W 7457   2.688   4.423   3.768  0.1203  0.1839  0.1044
 3407W        W 7458   7.523   8.121   9.908 -0.1894 -0.0956 -0.0634
 3408W        W 7459   7.735   6.461   1.766 -0.0161 -0.0338 -0.0724
 3409W        W 7460   2.278   1.290   2.397  0.0306 -0.3040 -0.0322
 3410W        W 7461   1.542   8.112   0.416 -0.0402 -0.3858  0.2222
 3411W        W 7462   2.311   2.788   9.778  0.1762 -0.1185  0.0023
 3412W        W 7463   0.799   1.955   4.469  0.1595  0.1430 -0.0507
 3413W        W 7464   8.432   4.351   0.924  0.0891 -0.2983 -0.1263
 3414W        W 7465   4.343   9.493  13.307  0.3745  0.0814 -0.0245
 3415W        W 7466   3.590   8.499   3.510  0.0607 -0.3754 -0.2049
 3416W        W 7467   0.332   2.381   3.399 -0.0174  0.0722  0.1788
 3417W        W 7468   4.473   4.870  11.572  0.0194  0.3755  0.0169
 3418W        W 7469   3.167   8.955   9.797  0.4095 -0.0217  0.0492
 3419W        W 7470   8.460   0.760   3.468  0.3043  0.1113 -0.2659
 3420W        W 7471   0.315   1.449   2.150 -0.0779  0.1973  0.0762
 3421W        W 7472   6.277   1.001  12.332  0.0212  0.5545  0.1541
 3422W        W 7473   9.011   7.549  12.931  0.1466  0.0708 -0.0393
 3423W        W 7474   1.111   3.694   0.117  0.2367 -0.1685  0.0731
 3424W        W 7475   1.544   5.754  12.168  0.1302  0.3129  0.1987
 3425W        W 7476   5.570   9.183   0.726  0.1082  0.3898  0.2643
 3426W        W 7477   3.002   8.666   1.227 -0.0894 -0.1491  0.0278
 3427W        W 7478   1.534   6.088   1.639  0.0106  0.0069 -0.2449
 3428W        W 7479   4.927   9.194  10.629 -0.1205  0.1937  0.0325
 3429W        W 7480   4.388   2.442   9.651  0.0769 -0.1033 -0.1974
 3430W        W 7481   8.899   6.136   0.503  0.1588  0.1148  0.0129
 3431W        W 7482   1.885   4.638   9.849  0.6330 -0.0922 -0.0358
 3432W        W 7483   3.618   2.790   9.997 -0.1269  0.0396 -0.1938
 3433W        W 7484   1.835   1.409   9.136 -0.0037 -0.1349  0.1915
 3434W        W 7485   3.412   7.672  10.026 -0.0480  0.0948 -0.0898
 3435W        W 7486   0.604   7.473  11.373 -0.2751  0.2294  0.2070
 3436W        W 7487   7.369   2.530  10.366  0.6640 -0.1540  0.1393
 3437W        W 7488   9.701   1.213  12.826  0.5069  0.0197  0.2152
 3438W        W 7489   6.773   8.148  11.183  0.1118  0.0465 -0.3358
 3439W        W 7490   9.967   5.383   0.633  0.0725 -0.4128  0.0427
 3440W        W 7491   5.151   1.307   1.437 -0.0779 -0.0407  0.3105
 3441W        W 7492   9.520   0.039   0.401  0.1342 -0.1334 -0.2330
 3442W        W 7493   9.624   4.629  11.131  0.1277  0.3898  0.0216
 3443W        W 7494   4.723   7.457   8.814  0.1975  0.0569  0.1215
 3444W        W 7495   7.404   8.161  11.266 -0.3807  0.0465 -0.2163
 3445W        W 7496   7.313   3.309   5.699  0.2797  0.0970  0.2308
 3446W        W 7497   8.488   9.711  13.277  0.0630  0.0792 -0.0267
 3447W        W 7498   8.336   8.272  12.814  0.0487  0.0905 -0.1810
 3448W        W 7499   3.484   8.142   0.799  0.2383 -0.2184  0.1259
 3449W        W 7500   3.649   7.333   1.006  0.2476 -0.3529  0.1368
 3450W        W 7501   6.116   3.909  11.690 -0.5321 -0.1240  0.1332
 3451W        W 7502   8.789   8.621  11.205 -0.0003 -0.1828 -0.1716
 3452W        W 7503   4.101   2.760   4.431  0.2488  0.1301 -0.0915
 3453W        W 7504   4.885   6.903   8.717  0.0985 -0.1259 -0.0136
 3454W        W 7505   7.922   3.012   0.022  0.2528  0.3935 -0.0453
 3455W        W 7506   3.607   8.227  10.151  0.1936  0.1185 -0.1583
 3456W        W 7507   5.174   5.858   1.733 -0.1338  0.0299  0.1356
 3457W        W 7508   7.020   2.097  10.201 -0.0572 -0.0526  0.0153
 3458W        W 7509   7.252   4.813  11.837 -0.0295 -0.3094 -0.0124
 3459W        W 7510   4.585   5.770   9.596  0.2645  0.0809 -0.1086
 3460W        W 7511   2.979   3.302   4.156  0.1633  0.1816 -0.2338
 3461W        W 7512  10.047   7.651   0.854 -0.1840 -0.1639  0.1574
 3462W        W 7513   5.469   2.400   1.118 -0.0905 -0.2085  0.2509
 3463W        W 7514   5.479   1.648  12.106  0.2300  0.2258 -0.4275
 3464W        W 7515   9.088   2.832  11.722  0.1424 -0.1896 -0.1714
 3465W        W 7516   2.925   0.147   2.945 -0.1178 -0.3120  0.0058
 3466W        W 7517   7.816   2.565  10.822 -0.2720 -0.2045 -0.0061
 3467W        W 7518   7.738   8.642   1.682  0.0822  0.1486 -0.1089
 3468W        W 7519  10.169   3.866   2.991  0.0983  0.3535  0.2395
 3469W        W 7520   3.060   0.951   9.554  0.1900 -0.0529  0.2857
 3470W        W 7521   0.183   7.230   2.874  0.3060 -0.0631  0.0078
 3471W        W 7522   5.607   1.442   3.762  0.0096 -0.2887  0.3236
 3472W        W 7523   4.822   0.255   3.220 -0.1474 -0.1145  0.1497
 3473W        W 7524   3.042   1.132   1.245 -0.1358  0.5612  0.0777
 3474W        W 7525   9.442   4.932   8.622 -0.1534  0.0308  0.0064
 3475W        W 7526   6.698   8.395  10.722  0.1373  0.0712  0.0392
 3476W        W 7527   5.324   3.536   0.804  0.2393 -0.3254 -0.0555
 3477W        W 7528   7.762   1.115   4.707 -0.2390 -0.0301 -0.4422
 3478W        W 7529   3.300  10.088  12.872  0.1117  0.3579 -0.1247
 3479W        W 7530   8.123   7.881   9.272 -0.1914  0.1036  0.0068
 3480W        W 7531   7.797   4.192   1.634  0.2811 -0.1272  0.0706
 3481W        W 7532   5.042   2.149   3.894  0.0136 -0.1114 -0.3243
 3482W        W 7533   4.364   4.265   2.094  0.0334 -0.1302  0.4034
 3483W        W 7534   1.203   5.039   1.260 -0.0543  0.0194  0.0142
 3484W        W 7535   0.786   6.411   3.457  0.1271  0.1074 -0.0868
 3485W        W 7536   4.049   5.543  13.725 -0.0615 -0.2755  0.0098
 3486W        W 7537   9.213   2.437   3.587  0.0759  0.2010  0.0664
 3487W        W 7538   4.102   9.063  10.455 -0.0357 -0.3056  0.2424
 3488W        W 7539   5.843   5.038   1.935  0.0097  0.1931  0.1450
 3489W        W 7540   5.596   4.326   3.771 -0.0877  0.0502  0.2417
 3490W        W 7541   4.781   1.188   3.355  0.0724  0.0574 -0.0002
 3491W        W 7542   9.882   8.700   2.260  0.2938  0.3751 -0.1737
 3492W        W 7543   4.577   9.324   4.861  0.1416  0.0720 -0.0549
 3493W        W 7544   8.022  10.115   1.396 -0.1765  0.1139 -0.0381
 3494W        W 7545   0.088   1.182   2.582 -0.3104  0.1816 -0.4573
 3495W        W 7546   6.853   4.773  11.532  0.2122  0.1470  0.1235
 3496W        W 7547   5.175   1.155   3.688 -0.2317  0.1199 -0.0683
 3497W        W 7548   8.832   2.470   4.228 -0.0759  0.0912 -0.3291
 3498W        W 7549   6.538   8.460   3.027  0.0709  0.1602  0.1497
 3499W        W 7550   9.399   0.087   3.666  0.0234  0.2400 -0.2309
 3500W        W 7551   9.675   6.781   0.811 -0.1225  0.0706  0.1051
 3501W        W 7552   4.357   6.559   2.790  0.0088 -0.1108  0.2833
 3502W        W 7553   9.731   9.739   2.560 -0.2568  0.0604  0.1763
 3503W        W 7554   8.130   1.723   1.067 -0.3474  0.2284  0.0090
 3504W        W 7555   0.071   6.717   3.036 -0.1474  0.1285  0.1666
 3505W        W 7556   6.424   2.966   0.888 -0.0893 -0.0550  0.2497
 3506W        W 7557   0.514   1.137   0.594 -0.2087  0.0757  0.3574
 3507W        W 7558   3.712   2.095  13.997 -0.4576  0.1136 -0.0354
 3508W        W 7559   5.580   3.914  13.922  0.2741  0.3100  0.1497
 3509W        W 7560   6.695   2.230   4.079  0.0985 -0.1976 -0.0327
 3510W        W 7561   9.796   8.202  13.652  0.1153 -0.1595 -0.2316
 3511W        W 7562   5.158   4.899   4.762  0.3894  0.0122 -0.0700
 3512W        W 7563   7.249   3.991  13.901 -0.0653 -0.3198  0.1612
 3513W        W 7564   4.001   9.251  12.330  0.1046 -0.2433  0.1018
 3514W        W 7565   6.015   4.699   0.480  0.0093  0.2194  0.0367
 3515W        W 7566   3.282   6.933  11.067  0.1490  0.2038 -0.0132
 3516W        W 7567   2.550   9.938  11.868  0.1289  0.1845  0.1306
 3517W        W 7568   9.228   8.034  13.773 -0.1011  0.0241  0.2287
 3518W        W 7569   1.686   6.913   3.771  0.1113 -0.0301  0.0406
 3519W        W 7570   9.695   3.267   0.643  0.3448 -0.1201  0.0529
 3520W        W 7571   1.106   6.762   4.126 -0.1044 -0.2477  0.2587
 3521W        W 7572   8.101   3.879  13.348  0.0519  0.3617  0.0567
 3522W        W 7573   1.035   7.068   3.162  0.0225 -0.2551  0.3172
 3523W        W 7574   7.334   3.057   2.689 -0.1172 -0.0608 -0.1788
 3524W        W 7575   3.043   7.451   1.806 -0.0133  0.0026 -0.0819
 3525W        W 7576   1.639   7.689   2.534 -0.3618 -0.1678  0.1270
 3526W        W 7577   8.520   7.258  11.640 -0.0958  0.0488 -0.1203
 3527W        W 7578   6.372   7.239   4.621  0.0248  0.1692 -0.3539
 3528W        W 7579   3.054   9.069  13.400 -0.0309  0.2034 -0.4473
 3529W        W 7580   5.330   4.160  13.034 -0.1389  0.1289  0.3313
 3530W        W 7581   0.205   4.818  13.211  0.0814  0.0345 -0.0159
 3531W        W 7582   9.865   7.730   9.901 -0.4338 -0.0327  0.3194
 3532W        W 7583   9.208   3.247  13.177  0.0215  0.1513 -0.3712
 3533W        W 7584   5.939   2.989  10.890  0.0567 -0.4109  0.1500
 3534W        W 7585   8.338   1.934   3.663 -0.0133  0.1540 -0.1586
 3535W        W 7586   6.105   7.576  10.470  0.0066  0.1566  0.1424
 3536W        W 7587   0.650   5.329  10.141 -0.2032 -0.0011  0.0277
 3537W        W 7588   7.965   1.806   4.071  0.1660 -0.0440 -0.1566
 3538W        W 7589   4.808   0.422  12.875  0.4455  0.4533  0.1751
 3539W        W 7590   5.589   7.095   4.459 -0.0243  0.0287 -0.2023
 3540W        W 7591   7.115   1.624  10.130  0.1546  0.0662 -0.1604
 3541W        W 7592   8.793   3.256   3.442 -0.1338  0.1076 -0.1715
 3542W        W 7593   8.188   2.594  13.932 -0.1109 -0.0196  0.1891
 3543W        W 7594   6.219   2.013   4.106 -0.3536  0.0926  0.1953
 3544W        W 7595   0.055   5.487  12.303  0.1069  0.1202 -0.1026
 3545W        W 7596   1.677   3.606  13.745 -0.1213  0.2754  0.3227
 3546W        W 7597  10.013   4.054   4.623  0.0267 -0.2211 -0.2495
 3547W        W 7598   4.467   5.284  10.429 -0.1066 -0.1549  0.1725
 3548W        W 7599   4.092   0.066  12.733 -0.0645 -0.0374 -0.0941
 3549W        W 7600   9.228   6.673   3.260 -0.1867  0.0017  0.3660
 3550W        W 7601   4.595  10.101   0.097 -0.0373 -0.2039 -0.2942
 3551W        W 7602   7.507   2.633   1.301 -0.0048  0.1165 -0.1251
 3552W        W 7603   7.680  10.038  11.386 -0.1237 -0.0456  0.1408
 3553W        W 7604   2.190   1.601  12.399  0.0612  0.2563 -0.0501
 3554W        W 7605   5.230   0.402   0.429 -0.0708  0.1453  0.1993
 3555W        W 7606   3.401   5.941  11.523 -0.3009 -0.1389  0.1832
 3556W        W 7607   3.280   5.112  13.118  0.1925  0.1366  0.0289
 3557W        W 7608   9.747   3.509  11.050  0.1177 -0.0270 -0.0465
 3558W        W 7609   9.954   1.611   3.276  0.0130 -0.0442 -0.1472
 3559W        W 7610   5.415   6.747  12.825 -0.0545  0.0606 -0.2774
 3560W        W 7611   7.295   6.473   1.425 -0.4508  0.1481  0.0765
 3561W        W 7612   0.122   2.175  10.346  0.0084  0.0280 -0.0153
 3562W        W 7613   9.015   6.025  13.021 -0.1143  0.0303 -0.2164
 3563W        W 7614   8.441   7.467   1.348 -0.0481  0.1958  0.1003
 3564W        W 7615   2.486   4.556   9.272 -0.1871 -0.0354  0.0864
 3565W        W 7616   6.188   8.434   0.253 -0.1959 -0.1235 -0.0396
 3566W        W 7617   5.286   7.872   9.762 -0.3805 -0.1123 -0.0326
 3567W        W 7618   3.463   1.121   0.954 -0.1923 -0.1371 -0.0728
 3568W        W 7619   1.798   6.363  13.439  0.0089 -0.5790 -0.1713
 3569W        W 7620   1.953   4.851  13.921 -0.5766  0.1052  0.1755
 3570W        W 7621   0.753   6.679   1.327 -0.1005 -0.0860 -0.2143
 3571W        W 7622   9.330   9.418  13.849  0.0175  0.3415 -0.1552
 3572W        W 7623   7.110   1.056   1.199  0.3802 -0.0407  0.0903
 3573W        W 7624   1.732   3.202  12.484 -0.0441 -0.2071 -0.0015
 3574W        W 7625   5.942   9.455   3.906  0.0795 -0.0301 -0.3033
 3575W        W 7626   5.180   2.376   4.842  0.2630  0.3285 -0.3090
 3576W        W 7627   8.239   5.247   1.029  0.0521  0.0651  0.0727
 3577W        W 7628   8.973   7.213   9.536 -0.0570 -0.0581  0.3708
 3578W        W 7629   2.063   4.846  11.160  0.2686  0.4439  0.1095
 3579W        W 7630   2.965   4.661  12.974  0.0989  0.0925  0.0880
 3580W        W 7631   6.855   6.989  11.816  0.0085  0.1238 -0.0087
 3581W        W 7632   3.545   9.661  10.261  0.2286 -0.2289  0.0727
 3582W        W 7633   7.943   1.311   9.923  0.1972  0.0440 -0.1088
 3583W        W 7634   4.924   2.722  13.747 -0.1062  0.0773 -0.0721
 3584W        W 7635   4.003   6.152   2.674 -0.0435 -0.2358 -0.0942
 3585W        W 7636   7.174   5.446   0.310 -0.0565 -0.0461 -0.2180
 3586W        W 7637   3.659   5.427  12.921  0.2003 -0.0885 -0.3883
 3587W        W 7638   5.009   6.715   3.820 -0.1666 -0.1295 -0.0847
 3588W        W 7639   9.266   9.553   1.234 -0.1310  0.0015 -0.1176
 3589W        W 7640   2.626   6.877  11.647  0.2835 -0.0772  0.0703
 3590W        W 7641   5.689   7.053   1.205  0.0325  0.0271 -0.2973
 3591W        W 7642   0.511   7.409   3.199 -0.3655 -0.1673  0.0543
 3592W        W 7643   6.412   4.051   1.055 -0.0162  0.2772  0.2374
 3593W        W 7644   3.986   3.449  13.215  0.1122  0.1096 -0.1289
 3594W        W 7645   8.874   5.580  12.786  0.1535 -0.1051  0.0581
 3595W        W 7646   3.872   6.771   2.896 -0.0221 -0.1275  0.1969
 3596W        W 7647   5.049   3.043  10.812 -0.1736  0.4583 -0.2471
 3597W        W 7648   4.555   2.578   1.439  0.2395 -0.0229 -0.2095
 3598W        W 7649   1.223   1.007  13.125 -0.2443  0.1478 -0.0415
 3599W        W 7650   2.920   4.517  13.782 -0.5412 -0.1451 -0.0888
 3600W        W 7651   0.972   3.091   2.904  0.0991  0.2228 -0.1388
 3601W        W 7652   3.312   8.744   3.817 -0.0253 -0.2435  0.2278
 3602W        W 7653   3.027   5.982  11.895 -0.2966  0.1401  0.0117
 3603W        W 7654   8.694   8.595   9.213 -0.3098  0.1004  0.0797
 3604W        W 7655   2.211   2.270  12.306  0.0229 -0.2199  0.2292
 3605W        W 7656   4.794   6.485   2.521  0.0112 -0.2992 -0.0086
 3606W        W 7657   7.842   9.131  10.513  0.2780  0.2017 -0.0919
 3607W        W 7658   4.952   4.821  11.096  0.2362 -0.0688  0.0356
 3608W        W 7659   5.295   5.458   0.709 -0.0787 -0.2899  0.0805
 3609W        W 7660   2.116   4.399   4.513 -0.0719 -0.0432  0.1605
 3610W        W 7661   8.003   4.102   2.096 -0.3791  0.0176  0.1636
 3611W        W 7662   9.950   6.578   1.289 -0.2525  0.1152  0.6060
 3612W        W 7663   3.903   5.075   1.280 -0.0478  0.2004 -0.0611
 3613W        W 7664   6.690   8.487  10.196  0.1230 -0.2153  0.1876
 3614W        W 7665   0.714   0.568   2.586 -0.0697  0.2368  0.1662
 3615W        W 7666   0.684   5.904   2.652 -0.3061  0.2005 -0.0957
 3616W        W 7667   8.373   2.567   1.213  0.0644  0.0736  0.0067
 3617W        W 7668   6.340   9.950  11.957  0.0593  0.0584  0.1554
 3618W        W 7669   8.992   5.996   8.830  0.1163 -0.2903 -0.1312
 3619W        W 7670   8.996   0.312  13.004  0.3441 -0.2428 -0.2157
 3620W        W 7671   2.270   4.423   3.462  0.0170 -0.3080 -0.0804
 3621W        W 7672   9.560   9.134   1.190  0.0386  0.0458 -0.0842
 3622W        W 7673   3.817   6.165  11.733  0.2796  0.0470  0.1434
 3623W        W 7674   3.493   0.702   9.719  0.0795 -0.2117  0.2205
 3624W        W 7675   1.740   5.635  10.791  0.2264 -0.1503  0.1598
 3625W        W 7676   7.194   0.672  12.466  0.0520  0.0148 -0.0855
 3626W        W 7677   4.539   1.347  12.226  0.2524 -0.0312  0.1390
 3627W        W 7678   3.700   0.974  11.297  0.2713  0.1037 -0.1811
 3628W        W 7679   7.960   7.337  13.166 -0.3980 -0.1336  0.2017
 3629W        W 7680   9.592   5.955  12.983  0.0916 -0.1030  0.2903
 3630W        W 7681   3.610   8.462  11.115  0.1165 -0.0739 -0.0832
 3631W        W 7682   1.134   7.797  13.995  0.0899 -0.0968 -0.0003
 3632W        W 7683   7.976   3.587   1.312 -0.3913  0.4069  0.0738
 3633W        W 7684   1.959   6.589   9.468 -0.0162 -0.1183 -0.2421
 3634W        W 7685   8.092   2.999  11.523  0.0458  0.0081 -0.0310
 3635W        W 7686   9.686   9.110   2.518  0.1440 -0.2469 -0.3476
 3636W        W 7687   3.310   7.319  11.341  0.1123  0.0369 -0.2920
 3637W        W 7688   2.628   3.780  10.681  0.0588  0.1515  0.2693
 3638W        W 7689   9.881   2.070  12.835 -0.2776 -0.0057 -0.0525
 3639W        W 7690   2.183   1.295   1.820 -0.5321 -0.0788 -0.1135
 3640W        W 7691   1.821   1.047  11.874 -0.2236 -0.0416 -0.1236
 3641W        W 7692   4.302   4.191  12.040 -0.1891  0.1217  0.1323
 3642W        W 7693   1.645   2.604  11.718  0.1377 -0.0966  0.0555
 3643W        W 7694   9.700   6.583   3.110 -0.0617 -0.2680 -0.2810
 3644W        W 7695   8.488   4.892  12.957 -0.0875  0.0344 -0.1612
 3645W        W 7696   7.762   0.369   4.695 -0.0434  0.0673  0.0439
 3646W        W 7697   2.320   3.466  12.292 -0.1173 -0.1024 -0.1649
 3647W        W 7698   7.407   1.884   2.132 -0.1161 -0.1100 -0.1688
 3648W        W 7699   1.111   3.014  12.299  0.2516  0.0610 -0.0374
 3649W        W 7700   3.109   3.224  11.786  0.0005 -0.2636  0.0982
 3650W        W 7701   8.414   9.314  13.606 -0.0668 -0.2148 -0.2724
 3651W        W 7702   1.504   4.135   6.047  0.0416 -0.0078  0.0816
 3652W        W 7703   5.480   0.460   5.245  0.0303  0.0197  0.0265
 3653W        W 7704   2.001   6.713   4.196  0.0072 -0.1846  0.1220
 3654W        W 7705   1.899   4.801  11.760 -0.3896  0.1288  0.3081
 3655W        W 7706   4.767   2.641   2.571  0.0070  0.1175 -0.1300
 3656W        W 7707   7.113   9.796   9.401 -0.1615 -0.2476  0.0193
 3657W        W 7708   2.122   3.870  10.409  0.3954  0.0080 -0.1455
 3658W        W 7709   0.485   7.529   9.902  0.0818  0.0316  0.2875
 3659W        W 7710   4.601   9.066   3.380 -0.0058 -0.1503  0.3537
 3660W        W 7711   8.989   8.547  10.591  0.1351 -0.1418  0.1790
 3661W        W 7712   8.366   3.146  12.922 -0.0567 -0.1143  0.0097
 3662W        W 7713   7.612   5.521   0.538 -0.2252 -0.1940  0.2121
 3663W        W 7714   9.267   7.480   2.028 -0.1327  0.0493 -0.0581
 3664W        W 7715   5.683   6.675   2.118 -0.2130  0.1414 -0.1588
 3665W        W 7716   9.370   8.474   0.352 -0.0487 -0.2037  0.0622
 3666W        W 7717   4.333   4.133  11.130 -0.0607  0.1910 -0.0170
 3667W        W 7718   8.633   6.092   3.331  0.1665 -0.1065 -0.0768
 3668W        W 7719   0.804   2.017   1.625 -0.1027  0.0267  0.2021
 3669W        W 7720   1.346   8.344  11.999  0.1306 -0.0146 -0.0002
 3670W        W 7721   6.049   2.526   9.404  0.1688 -0.1961 -0.0802
 3671W        W 7722   2.571   3.426   1.614 -0.2765  0.0926 -0.3495
 3672W        W 7723   2.148   5.485   0.508 -0.1370  0.0338 -0.1257
 3673W        W 7724   6.572   5.034   1.663 -0.2202  0.0273 -0.2339
 3674W        W 7725   3.118   6.054   3.267 -0.0346 -0.2438  0.2199
 3675W        W 7726   6.568   3.400   4.017 -0.0999 -0.0452 -0.0366
 3676W        W 7727   9.637   2.700   1.580 -0.1542  0.1630 -0.1029
 3677W        W 7728   5.761   9.594  12.514 -0.0866 -0.2403  0.1200
 3678W        W 7729   0.041   5.450   3.463  0.0742 -0.0054  0.0197
 3679W        W 7730   9.262   1.415   0.304 -0.1347  0.2633 -0.0072
 3680W        W 7731   3.518   4.830   9.657 -0.2200  0.2735 -0.1360
 3681W        W 7732   0.561   4.961  11.363 -0.1841  0.2512  0.0038
 3682W        W 7733   2.432   4.827  12.378 -0.1081 -0.0375 -0.2673
 3683W        W 7734   0.491   3.562   3.675  0.0719  0.1094  0.0565
 3684W        W 7735   1.058   8.623   1.612 -0.2014 -0.0654 -0.0574
 3685W        W 7736   5.794   8.122   0.245  0.0991 -0.2213 -0.2453
 3686W        W 7737   6.941   9.864   9.859  0.1635 -0.0868 -0.0689
 3687W        W 7738   1.584   1.794   0.674  0.1900 -0.0005  0.0616
 3688W        W 7739   3.624   8.912   0.076 -0.1084 -0.2374  0.3416
 3689W        W 7740   7.053   4.038   5.115 -0.0507  0.0535  0.0691
 3690W        W 7741   6.553   6.452  10.083 -0.3410 -0.2101 -0.1406
 3691W        W 7742   2.927   4.792   9.287  0.0322 -0.0883  0.0386
 3692W        W 7743   9.902  10.016  12.174  0.2539  0.1279 -0.3136
 3693W        W 7744   0.706   8.703   1.108  0.0595  0.2431 -0.0428
 3694W        W 7745   4.562   2.891   1.019 -0.0592 -0.0321  0.1650
 3695W        W 7746   5.536   2.443  10.178  0.0699 -0.2195  0.0604
 3696W        W 7747   0.130   3.784   1.313 -0.2239  0.0409  0.2137
 3697W        W 7748   0.981   7.047  13.852  0.0951  0.0690  0.3428
 3698W        W 7749   9.780   1.068   3.362 -0.1009  0.1821  0.0862
 3699W        W 7750   1.956   3.016   3.491 -0.2876 -0.0593  0.0259
 3700W        W 7751   6.743   9.556   4.423  0.3618  0.3862  0.4119
 3701W        W 7752   0.199   1.612   3.773  0.1005 -0.1988  0.1733
 3702W        W 7753   3.023   2.233   4.618  0.1110  0.0470 -0.2473
 3703W        W 7754   5.484   5.106   2.696  0.3217 -0.1388  0.0723
 3704W        W 7755   2.331   4.110   2.698  0.0195  0.2785 -0.1116
 3705W        W 7756   5.252   9.291   0.157 -0.2295 -0.0591 -0.3037
 3706W        W 7757   7.140   0.028   2.938  0.1090 -0.0095  0.4481
 3707W        W 7758   3.704   7.801  10.680  0.0845 -0.0593  0.0791
 3708W        W 7759   2.975   0.747   0.934 -0.3137  0.0910 -0.0459
 3709W        W 7760   8.417   7.032   4.815 -0.0167 -0.3853  0.1383
 3710W        W 7761   7.585   4.158   3.209 -0.0983  0.2059  0.3317
 3711W        W 7762   9.963   3.476   2.411  0.1894  0.1596 -0.1866
 3712W        W 7763   0.212   1.208   0.108 -0.0862  0.0373 -0.0776
 3713W        W 7764   1.340   4.764   3.785 -0.0417  0.1422 -0.1009
 3714W        W 7765   5.890   6.028  11.177  0.3636 -0.2764 -0.3041
 3715W        W 7766   9.506   1.779  12.614  0.2096  0.1366  0.3877
 3716W        W 7767   9.899   7.541   0.365 -0.0827 -0.2959  0.4101
 3717W        W 7768   6.764   4.526  13.405 -0.1434  0.0239 -0.5537
 3718W        W 7769   6.785   0.378  12.619 -0.0999 -0.0542 -0.2085
 3719W        W 7770   5.963   2.809  13.451 -0.1121 -0.0394  0.0140
 3720W        W 7771   8.109   1.383   3.148 -0.1848  0.1153  0.1480
 3721W        W 7772   5.147   7.704   9.155  0.0365  0.3368  0.0850
 3722W        W 7773   0.566   3.719   1.928 -0.2727 -0.1937  0.1755
 3723W        W 7774   8.072   6.565   1.322  0.1201  0.2563  0.1154
 3724W        W 7775   5.404   5.797   3.595 -0.2014 -0.2145 -0.6385
 3725W        W 7776   9.695   7.156  11.546 -0.0013 -0.0495 -0.0172
 3726W        W 7777   6.320   9.022  12.162  0.1686  0.3010 -0.1084
 3727W        W 7778   9.953   8.744   9.379  0.1979 -0.3331  0.2813
 3728W        W 7779   5.192   5.347  12.959 -0.1039 -0.1088 -0.0170
 3729W        W 7780   5.420   2.243   1.680  0.1202 -0.1531  0.1343
 3730W        W 7781   8.325   9.309  10.679 -0.2571 -0.1103 -0.1055
 3731W        W 7782   7.940   4.626   3.268  0.1546 -0.0540  0.0294
 3732W        W 7783   7.058   3.612   1.551  0.2232  0.1448 -0.0709
 3733W        W 7784   3.370   1.145   2.013  0.0408 -0.0049 -0.0517
 3734W        W 7785   2.168   1.516   3.374  0.1740  0.1932  0.3475
 3735W        W 7786   4.706   5.946   5.024  0.0115 -0.2996 -0.1730
 3736W        W 7787   9.388   6.694   3.699  0.0979  0.2620 -0.0883
 3737W        W 7788   8.222   6.880  13.871  0.0128  0.0199 -0.2346
 3738W        W 7789   0.712   2.636   2.148 -0.1158  0.2090 -0.0690
 3739W        W 7790   0.284   0.595  10.287  0.1509  0.1848 -0.2267
 3740W        W 7791   9.859   1.769   1.806 -0.0408  0.2151 -0.2256
 3741W        W 7792   5.055   6.997   3.378 -0.2177 -0.1687 -0.1291
 3742W        W 7793   6.614   4.797  13.867  0.1658 -0.0495 -0.1196
 3743W        W 7794   1.181   6.760   2.256  0.0294  0.0858 -0.2223
 3744W        W 7795   1.136   5.396   2.136  0.0733 -0.0070 -0.0393
 3745W        W 7796   4.768   0.472   4.112  0.1934  0.1791 -0.2660
 3746W        W 7797   4.835   5.767   3.519  0.0953  0.0972 -0.1505
 3747W        W 7798   5.539   4.274   4.467  0.2255  0.1882  0.1731
 3748W        W 7799   9.884   4.219   3.164  0.2540 -0.1994  0.2622
 3749W        W 7800   7.972   9.619   1.614  0.0369 -0.0144  0.0961
 3750W        W 7801   3.418   7.761   3.176 -0.2183  0.0036  0.0647
 3751W        W 7802   0.461   8.073  13.745 -0.3152 -0.0017  0.3434
 3752W        W 7803  10.141   7.645   3.126 -0.1741  0.0902  0.2556
 3753W        W 7804   2.752   9.792   1.502  0.1537 -0.1512 -0.3474
 3754W        W 7805   6.084   6.835   0.961 -0.0415  0.1146  0.0826
 3755W        W 7806   3.978   7.202  12.801 -0.0081 -0.1913 -0.1630
 3756W        W 7807   9.460   1.899  10.537  0.1481  0.1122 -0.1363
 3757W        W 7808   7.825   0.015   9.499  0.2590 -0.1397  0.4778
 3758W        W 7809   2.162   8.237   1.610  0.0578 -0.1254  0.0746
 3759W        W 7810   7.560   9.042   4.182  0.0259 -0.0868  0.0848
 3760W        W 7811   6.403   3.599   0.726 -0.1558  0.0679 -0.2455
 3761W        W 7812   6.513   1.011   1.310  0.0820  0.1624 -0.1415
 3762W        W 7813   3.971   6.780   1.883 -0.0961 -0.0104 -0.0424
 3763W        W 7814   6.698   2.577  12.276 -0.2323 -0.1254 -0.1409
 3764W        W 7815   1.541   3.680   5.142 -0.3863 -0.1620  0.2414
 3765W        W 7816   6.768   0.038   2.009 -0.4605  0.0297  0.3341
 3766W        W 7817   9.922   7.109  12.376  0.1847  0.0505 -0.0800
 3767W        W 7818   9.983   5.757   3.079 -0.0180 -0.0577 -0.1238
 3768W        W 7819   0.693   8.978  10.792 -0.1588 -0.2716  0.2311
 3769W        W 7820   2.506   0.720  10.931 -0.0765 -0.3813 -0.0973
 3770W        W 7821   6.733   0.880  11.539 -0.2172 -0.1103  0.1482
 3771W        W 7822   1.745   6.551   3.334  0.1635 -0.1696  0.2504
 3772W        W 7823   7.282   6.583   2.682  0.2066 -0.0670 -0.0484
 3773W        W 7824   5.157   0.766  11.586  0.1957  0.1153  0.1862
 3774W        W 7825   0.447   8.872   2.462  0.2040  0.1510 -0.2172
 3775W        W 7826   2.598   2.013   4.420 -0.1434  0.1679  0.3014
 3776W        W 7827   1.252   2.316   2.465  0.2066 -0.3172 -0.1115
 3777W        W 7828   3.686   4.299  13.301 -0.0820 -0.1359 -0.0123
 3778W        W 7829   6.176   3.204   5.006  0.3532  0.0133  0.2809
 3779W        W 7830   1.156   5.864  12.514 -0.2383  0.0101 -0.1925
 3780W        W 7831   6.913   2.744  10.048 -0.3353 -0.1575  0.1088
 3781W        W 7832   8.247   5.360  12.958 -0.1577  0.0553  0.1751
 3782W        W 7833   6.880   6.218  12.664 -0.0234  0.1218 -0.0922
 3783W        W 7834   6.880   9.497   0.704 -0.0629 -0.1819 -0.1568
 3784W        W 7835   7.162   7.402   2.383 -0.0620  0.0116  0.0194
 3785W        W 7836   4.659   9.861   3.040 -0.4054 -0.0193 -0.0440
 3786W        W 7837   2.026   3.342   4.427  0.0744 -0.2544 -0.2289
 3787W        W 7838   6.860   3.883   2.890 -0.3072 -0.2173 -0.1477
 3788W        W 7839   0.585   9.137   1.779  0.2861  0.0564 -0.1014
 3789W        W 7840   3.035   6.928   0.494  0.0777 -0.0680  0.0369
 3790W        W 7841   0.013   4.921   5.738 -0.0245  0.0135 -0.0685
 3791W        W 7842   2.550   0.893   0.580 -0.0891  0.0952  0.0385
 3792W        W 7843   7.813   2.441   1.636 -0.1463  0.0782 -0.0316
 3793W        W 7844   1.549   1.653   1.781  0.1554 -0.2612  0.2624
 3794W        W 7845   1.126   6.529  12.688  0.0048 -0.2342 -0.0750
 3795W        W 7846   9.852   2.048   9.968 -0.2763 -0.2673 -0.1855
 3796W        W 7847   6.026   4.096   1.832 -0.0781 -0.2194  0.0287
 3797W        W 7848   1.658   8.650  10.883 -0.0144 -0.1472 -0.0808
 3798W        W 7849   8.428   3.520   3.707 -0.1228  0.1906 -0.0452
 3799W        W 7850   2.264   4.112  13.488  0.1646  0.2703 -0.2057
 3800W        W 7851   8.777   4.918   3.151  0.3669 -0.0019  0.1917
 3801W        W 7852   4.786   3.575  12.958  0.0631 -0.1442  0.0266
 3802W        W 7853   4.633   6.183  13.066 -0.3518 -0.1629 -0.5029
 3803W        W 7854   7.068   3.611   9.637 -0.1799 -0.0639  0.2098
 3804W        W 7855   6.189   7.852  12.399  0.5176  0.0570  0.1618
 3805W        W 7856   0.822   0.821  12.638 -0.1746  0.1354 -0.1945
 3806W        W 7857   2.137   7.687   9.451 -0.1947 -0.3393  0.0024
 3807W        W 7858   0.127   6.854  13.795 -0.0458  0.0923  0.1652
 3808W        W 7859   5.635   4.075  10.512 -0.0751 -0.0394  0.2006
 3809W        W 7860   1.555   0.636  13.047 -0.1996  0.1920 -0.3258
 3810W        W 7861   4.351   1.450   4.957 -0.2185  0.0166  0.1363
 3811W        W 7862   5.760   3.438   3.961 -0.2682  0.1389 -0.0620
 3812W        W 7863   0.788   9.323   2.794  0.0371 -0.0367 -0.1191
 3813W        W 7864   6.997   0.165   3.435  0.0145  0.2819  0.3972
 3814W        W 7865   6.176   6.602  11.734 -0.4754 -0.0706 -0.0019
 3815W        W 7866   6.556   8.597   2.213  0.0618  0.1574 -0.3320
 3816W        W 7867   1.266   5.355   4.016  0.1748  0.1902 -0.0922
 3817W        W 7868   4.764   2.256  11.378 -0.1721  0.2084 -0.3482
 3818W        W 7869   5.437   8.323   9.815  0.3090  0.1721  0.0203
 3819W        W 7870   2.613   1.638   9.181  0.0832  0.0067 -0.2479
 3820W        W 7871   4.433   4.287   1.212  0.0071  0.4160 -0.2124
 3821W        W 7872   8.333   1.745   0.579 -0.2114  0.0105 -0.4409
 3822W        W 7873   1.331   2.800   2.717 -0.1770  0.2736 -0.5102
 3823W        W 7874   8.400   4.090   3.888 -0.2210 -0.0615 -0.1449
 3824W        W 7875   0.242   4.893  12.511  0.1245 -0.0712 -0.1599
 3825W        W 7876   4.135   2.791   1.330  0.2020  0.1451  0.2356
 3826W        W 7877   3.097   1.113  10.135 -0.0642 -0.1132 -0.2374
 3827W        W 7878   8.860   0.896  12.116  0.0330  0.0080 -0.0944
 3828W        W 7879   9.560   1.195   4.675  0.2684  0.2467 -0.1938
 3829W        W 7880   3.158   3.925  10.597  0.1694  0.2136  0.1836
 3830W        W 7881   9.834   8.463   0.105  0.2036 -0.2583 -0.2814
 3831W        W 7882  10.138   5.530  13.583  0.2607  0.0801 -0.0192
 3832W        W 7883   6.864   4.497  12.908 -0.0512 -0.4475  0.0332
 3833W        W 7884   3.816   3.221   4.878  0.0145 -0.1357  0.1835
 3834W        W 7885   6.566   1.936   0.076  0.2348  0.0073 -0.3250
 3835W        W 7886   4.819   7.833   1.394 -0.1233  0.0778 -0.1577
 3836W        W 7887   3.212   2.704   1.686 -0.0226  0.2189 -0.1335
 3837W        W 7888   6.356   0.717  11.257 -0.1778 -0.2823  0.0918
 3838W        W 7889   2.831   7.321   0.895  0.2989  0.0764  0.0569
 3839W        W 7890   2.972   4.799   1.645 -0.0601  0.3685 -0.1121
 3840W        W 7891   4.568   5.937   0.346  0.0855 -0.3587 -0.0541
 3841W        W 7892   0.075   5.664   0.945 -0.0095 -0.0465  0.0138
 3842W        W 7893   2.429   0.173   2.973 -0.3127  0.1975 -0.1702
 3843W        W 7894   8.004   4.252   3.585 -0.0612 -0.0299  0.0784
 3844W        W 7895   1.715   9.230   2.354 -0.0571  0.1924 -0.0790
 3845W        W 7896   6.669   8.734   3.874  0.1348 -0.3995  0.3111
 3846W        W 7897   3.259   1.735   3.819 -0.1462 -0.2656 -0.1480
 3847W        W 7898   8.315   2.833   5.210 -0.3372 -0.2195 -0.3119
 3848W        W 7899   1.932   0.487  13.351 -0.0743 -0.3037 -0.1089
 3849W        W 7900   6.788   8.931   9.276  0.0502  0.1438  0.1510
 3850W        W 7901   2.977   1.936   3.446  0.0341  0.1800  0.3188
 3851W        W 7902   8.260   6.684  12.062  0.2083 -0.4732  0.2453
 3852W        W 7903   4.209   8.517  10.258  0.0943 -0.1786  0.0736
 3853W        W 7904   5.596   9.374   9.474 -0.3285 -0.2233  0.1095
 3854W        W 7905   6.172   5.697   8.725 -0.2174  0.3564  0.0844
 3855W        W 7906   1.525   7.019   1.882 -0.0461 -0.2690  0.0281
 3856W        W 7907   1.173   4.290  12.834 -0.0493  0.1049  0.0295
 3857W        W 7908   2.385   4.344  12.251  0.1039 -0.2934  0.0730
 3858W        W 7909   7.800   6.612   4.061 -0.1276  0.0107 -0.1666
 3859W        W 7910   3.495   1.604   1.070  0.0004 -0.0872 -0.1499
 3860W        W 7911   2.349   1.722   1.083 -0.1026  0.0353  0.1157
 3861W        W 7912   8.512   4.154  13.046 -0.1318 -0.1047 -0.0922
 3862W        W 7913   4.854   5.061  14.008 -0.1913  0.1007  0.0620
 3863W        W 7914   8.635   5.739   4.379 -0.1107 -0.1201  0.0836
 3864W        W 7915   3.300   4.549   0.083 -0.2462  0.1769  0.0213
 3865W        W 7916   0.463   5.546  11.582 -0.0499  0.0888  0.0507
 3866W        W 7917   1.460   4.457   0.568 -0.0808  0.0451  0.0130
 3867W        W 7918   4.484   0.408   3.594 -0.0062  0.1151 -0.2384
 3868W        W 7919   1.243   4.136   2.581  0.1761  0.3904  0.1803
 3869W        W 7920   8.113   2.565   4.855 -0.0811 -0.0479  0.1833
 3870W        W 7921   9.469   3.590   9.108  0.2338  0.1325 -0.2896
 3871W        W 7922   6.846   2.137  13.769 -0.1062  0.0070  0.2180
 3872W        W 7923   5.934   6.816  13.849 -0.2015  0.2126 -0.1911
 3873W        W 7924  10.059   9.304   1.238  0.1086  0.0021  0.1310
 3874W        W 7925   9.553   7.971   0.265  0.2634 -0.2874 -0.0942
 3875W        W 7926   5.594   7.030  12.279 -0.0604 -0.1219 -0.0988
 3876W        W 7927   2.912   1.039  11.153  0.3834 -0.1711  0.0015
 3877W        W 7928   4.566   6.871   3.418 -0.3155 -0.1965 -0.0119
 3878W        W 7929   3.003   1.413   1.690 -0.1670 -0.0740  0.0391
 3879W        W 7930   8.359   5.382  12.206 -0.1165 -0.0891 -0.0904
 3880W        W 7931   4.093   2.879  11.837 -0.3299  0.3441 -0.1947
 3881W        W 7932   5.313   1.756   1.585 -0.0900  0.3781  0.2165
 3882W        W 7933   5.515   6.412   0.402 -0.5122  0.0935 -0.2820
 3883W        W 7934   8.015   7.460   9.534  0.1483 -0.1695 -0.1644
 3884W        W 7935   8.189   5.284   3.778  0.1999  0.0659  0.1252
 3885W        W 7936   6.070   2.503   9.941 -0.0459  0.1839  0.0231
 3886W        W 7937   9.639   9.167  11.855  0.0735  0.0336 -0.2964
 3887W        W 7938   0.118   7.123   4.570  0.0069  0.1543  0.3416
 3888W        W 7939   0.690   4.245   3.453 -0.3002 -0.1403 -0.0011
 3889W        W 7940   3.732   6.363   3.040  0.0922  0.1668 -0.0176
 3890W        W 7941   8.971   2.886  13.437 -0.1455  0.0419 -0.0860
 3891W        W 7942   9.269   9.644   2.854  0.0004 -0.0764  0.4078
 3892W        W 7943   8.707   7.671  12.280  0.0834  0.2409  0.1445
 3893W        W 7944   9.458   3.939  13.869  0.3325  0.2038  0.4144
 3894W        W 7945   3.829   4.557   4.355  0.0289 -0.1696 -0.0621
 3895W        W 7946   0.794   2.590  12.112 -0.2247 -0.1971 -0.0907
 3896W        W 7947   3.105   0.797   1.696 -0.3328  0.1391 -0.0858
 3897W        W 7948   6.265   8.915  10.816  0.2697 -0.1884 -0.2279
 3898W        W 7949   4.653   4.137   4.739  0.0354 -0.1963  0.3684
 3899W        W 7950   1.723   7.390  12.697 -0.0166  0.1439 -0.0437
 3900W        W 7951   6.608   4.971  11.935  0.3138  0.1679  0.2074
 3901W        W 7952   6.325   8.365   9.912  0.1571 -0.0364  0.0694
 3902W        W 7953   3.603   0.024   9.536  0.2307  0.1081  0.0691
 3903W        W 7954   2.872   8.932  12.363  0.0536 -0.1438  0.5012
 3904W        W 7955   7.266   2.792   4.371 -0.0373 -0.0832  0.0230
 3905W        W 7956   2.639   5.296   4.819 -0.2089  0.2288  0.1591
 3906W        W 7957   7.917   8.422  12.160  0.1023 -0.0047 -0.1643
 3907W        W 7958   0.213   1.902   3.311 -0.1618 -0.4827 -0.0313
 3908W        W 7959   4.310   3.344   3.210  0.2816 -0.1653 -0.1491
 3909W        W 7960   3.767   1.920   3.342  0.1048 -0.0494  0.3097
 3910W        W 7961   8.049   4.997  13.295 -0.0242  0.1403  0.0181
 3911W        W 7962   5.436   9.964  10.276  0.0017 -0.0877  0.1879
 3912W        W 7963   5.177   9.594   2.471 -0.1149  0.0032 -0.0443
 3913W        W 7964   4.242   7.708   2.586 -0.0716  0.0812  0.1546
 3914W        W 7965   5.947   3.554   4.767  0.0505 -0.0091 -0.1638
 3915W        W 7966   4.796   7.238   1.419 -0.0162  0.0755  0.4741
 3916W        W 7967   4.566   9.008   1.430 -0.2886 -0.0552 -0.0564
 3917W        W 7968   3.852   8.471  13.417  0.2562  0.0782 -0.1194
 3918W        W 7969   5.364   4.361   9.818  0.4189 -0.2172  0.2752
 3919W        W 7970   5.645   5.647   4.680  0.0430 -0.0276 -0.1007
 3920W        W 7971  10.164   1.096  12.700 -0.3554  0.0307 -0.1493
 3921W        W 7972   7.156   3.771   3.306  0.1389  0.2130  0.0554
 3922W        W 7973   6.593   5.774   2.868 -0.3152 -0.1286 -0.1355
 3923W        W 7974   0.182   5.493  10.299 -0.2107  0.1340 -0.2573
 3924W        W 7975   2.236   1.088   0.126 -0.0598 -0.0723 -0.1543
 3925W        W 7976   0.921   5.196   3.575 -0.0126 -0.2058 -0.1337
 3926W        W 7977   7.629   6.100   4.255  0.0204  0.2208  0.0508
 3927W        W 7978   8.036   3.560   9.456 -0.1912  0.0932 -0.1227
 3928W        W 7979   9.569   3.379   3.890  0.1602 -0.0573 -0.3153
 3929W        W 7980   5.667   6.782   1.626  0.3354  0.0126  0.2647
 3930W        W 7981   8.306   9.986  12.267 -0.0453 -0.2338  0.0448
 3931W        W 7982   9.318   6.093  11.727  0.5752  0.1678 -0.3115
 3932W        W 7983   4.859   6.740   1.529  0.1028 -0.0004 -0.1688
 3933W        W 7984   8.812   2.311  11.314  0.0289  0.4045  0.3796
 3934W        W 7985   8.619   1.063  10.569  0.0082  0.0346  0.3217
 3935W        W 7986   6.340   0.958   3.221 -0.1529  0.4444 -0.4388
 3936W        W 7987   7.775   9.572   4.396  0.2300 -0.1708  0.1060
 3937W        W 7988   5.110   5.368   3.483 -0.2054 -0.2306  0.1726
 3938W        W 7989   5.410   1.694   2.535  0.0465  0.2762  0.0010
 3939W        W 7990   8.155   9.998  11.213  0.1380  0.0544 -0.1668
 3940W        W 7991   4.047   5.861   0.516 -0.0693  0.0384 -0.0075
 3941W        W 7992   0.499   5.890  10.189 -0.1866 -0.0174 -0.2469
 3942W        W 7993   1.772   9.166  10.968 -0.0303  0.2701  0.0131
 3943W        W 7994   9.130   3.693   0.127  0.0178 -0.3828  0.0396
 3944W        W 7995   9.859   5.110  13.772  0.0417 -0.0629  0.1984
 3945W        W 7996   7.112   9.649   2.212  0.1473  0.0333  0.2438
 3946W        W 7997   1.828   7.478  13.789 -0.0595  0.0858  0.2300
 3947W        W 7998   1.812   2.234   9.361 -0.2562  0.2205  0.2174
 3948W        W 7999   1.936   0.355   9.324  0.2247 -0.0549 -0.2661
 3949W        W 8000   2.667   2.088   1.862 -0.1077  0.1138 -0.0323
 3950W        W 8001   9.205   9.958   3.260  0.1622 -0.0499  0.3625
 3951W        W 8002   2.311   9.207   2.145  0.1038 -0.1668  0.3221
 3952W        W 8003   4.103   4.514  11.465  0.0386  0.4816 -0.1974
 3953W        W 8004   1.093   3.249  13.199 -0.3851 -0.1192 -0.0334
 3954W        W 8005   2.680  10.133  12.671 -0.2169 -0.0036  0.0472
 3955W        W 8006   7.487   9.532   0.601 -0.0142 -0.2798 -0.0658
 3956W        W 8007   9.158   7.992  13.223 -0.0664 -0.1115  0.1295
 3957W        W 8008   5.610   5.880   1.462 -0.1663 -0.2884 -0.1015
 3958W        W 8009   9.639   3.019  13.052  0.1266  0.1674 -0.0414
 3959W        W 8010   6.589   1.562   2.033 -0.2398 -0.0262 -0.2373
 3960W        W 8011   1.671   2.115  13.504 -0.2836 -0.2432 -0.1620
 3961W        W 8012   2.989   0.932   4.030  0.0142 -0.4062 -0.1520
 3962W        W 8013   1.502   0.745  12.168  0.3532 -0.2483  0.0194
 3963W        W 8014   5.704   9.538   2.575  0.2673 -0.0342 -0.0694
 3964W        W 8015   0.594   0.405   9.959  0.1160  0.0132 -0.0414
 3965W        W 8016   2.309   5.155   0.137  0.1244  0.0242  0.0043
 3966W        W 8017   0.047   0.332   1.476  0.0883 -0.0924 -0.0334
 3967W        W 8018   3.011   6.646   1.497  0.1792 -0.2044  0.1945
 3968W        W 8019   8.804   3.469   4.432  0.1115 -0.2443 -0.0938
 3969W        W 8020   6.681   5.164  10.665  0.0999  0.0861 -0.3981
 3970W        W 8021   9.871   7.336   2.587  0.0656  0.0032  0.0083
 3971W        W 8022   7.959   6.186   3.921 -0.0403  0.0368 -0.1603
 3972W        W 8023   7.770   1.102   1.586  0.2685 -0.2488 -0.0430
 3973W        W 8024   5.953   1.127   9.717 -0.0309  0.2321  0.1290
 3974W        W 8025   6.910   1.384   5.028 -0.2605  0.1011  0.1947
 3975W        W 8026   1.891   1.217   3.107  0.1301  0.2298  0.1814
 3976W        W 8027   3.996   8.348   9.814  0.0288 -0.1481  0.1382
 3977W        W 8028   5.467   1.743  13.025 -0.2100  0.2906  0.2018
 3978W        W 8029   9.793   5.937  10.830  0.1860  0.0450 -0.1936
 3979W        W 8030   4.173   5.274   4.638 -0.1079  0.1807  0.1081
 3980W        W 8031   0.684   2.352  12.990  0.3427  0.5357 -0.0528
 3981W        W 8032   0.509   3.230   1.204  0.1290 -0.3620  0.1214
 3982W        W 8033   4.052   4.362  10.500  0.1661  0.1733  0.0237
 3983W        W 8034   1.756   5.882   4.497 -0.3433 -0.1987  0.0348
 3984W        W 8035   0.005   5.532   1.666  0.3516  0.2772 -0.0732
 3985W        W 8036   0.209   6.010  10.897  0.1260  0.1756 -0.0088
 3986W        W 8037   1.715   9.266  13.244  0.0655  0.1763  0.1143
 3987W        W 8038   5.294   4.947  11.894 -0.0101 -0.0629 -0.1113
 3988W        W 8039   2.773   2.952  13.540  0.0412 -0.0561 -0.1079
 3989W        W 8040   0.415   6.503  12.127 -0.0089  0.0753  0.2230
 3990W        W 8041   4.518   4.666  12.037 -0.1798 -0.2521  0.2629
 3991W        W 8042   7.873   9.124   0.641 -0.0461  0.0511 -0.0095
 3992W        W 8043   2.349   6.456   4.344 -0.0037 -0.0345 -0.1496
 3993W        W 8044   8.902   6.135  13.962  0.2938 -0.3575  0.0882
 3994W        W 8045   9.100   3.300  13.729  0.2665  0.1696 -0.0338
 3995W        W 8046   7.636   6.181   2.688  0.0835 -0.0917  0.0569
 3996W        W 8047   3.319   8.274   3.097 -0.0496 -0.3654 -0.0309
 3997W        W 8048   3.108   7.852   2.734  0.2013 -0.2013 -0.0996
 3998W        W 8049   7.074   8.988  12.237 -0.0736  0.2677  0.1214
 3999W        W 8050   4.583   7.548   4.125  0.0649  0.1318  0.3200
 4000W        W 8051   5.365   8.174   8.975  0.0741 -0.1026  0.1632
 4001W        W 8052   7.782   8.033   4.063  0.0553  0.3484  0.0389
 4002W        W 8053   5.319   0.268   1.492 -0.2484  0.0822  0.1422
 4003W        W 8054  10.168   7.107   4.116 -0.0063  0.2536  0.4474
 4004W        W 8055   1.003   7.934   3.254 -0.0700 -0.1280 -0.2748
 4005W        W 8056   0.638   4.680   3.652 -0.2134 -0.1733  0.1505
 4006W        W 8057   1.098   0.602  11.282 -0.1922  0.1804 -0.0843
 4007W        W 8058   2.090   3.415  11.264 -0.2069 -0.0609 -0.0325
 4008W        W 8059   0.430   9.363  13.367 -0.1172 -0.0815 -0.1071
 4009W        W 8060   3.583   3.780  13.474  0.0649 -0.1968  0.3644
 4010W        W 8061   5.252   6.936  10.019 -0.0271 -0.3158 -0.2768
 4011W        W 8062   3.561   1.017   4.455 -0.0956  0.1067 -0.0741
 4012W        W 8063   0.998   0.273  10.873 -0.3356 -0.0505 -0.0745
 4013W        W 8064   4.685   2.283  11.869  0.3476 -0.2930  0.0443
 4014W        W 8065   0.696   6.408   2.473  0.0497 -0.2597 -0.2419
 4015W        W 8066   3.938   1.846  12.856 -0.3134 -0.2623 -0.0471
 4016W        W 8067   0.859   8.641  11.394  0.0115  0.0242  0.1664
 4017W        W 8068   0.521   3.927  11.088 -0.0133  0.1518  0.1210
 4018W        W 8069   2.246   6.917  11.357 -0.1118 -0.1715 -0.1095
 4019W        W 8070   7.147   4.855   2.672 -0.3805  0.2427  0.1228
 4020W        W 8071   8.461   1.476   9.967  0.0193  0.2800 -0.2107
 4021W        W 8072   2.544   9.381  13.838 -0.0016  0.0429 -0.1454
 4022W        W 8073   0.824   7.516  13.714 -0.0286  0.1239  0.0847
 4023W        W 8074   1.581   5.472   2.368  0.2225  0.0080  0.1117
 4024W        W 8075   0.262   7.588  13.806 -0.4437 -0.0780 -0.1859
 4025W        W 8076   8.979   3.836   0.599 -0.0252  0.4231  0.0725
 4026W        W 8077   3.534   5.508   3.672  0.0779 -0.0545  0.0855
 4027W        W 8078   8.744   1.747  11.403  0.4442  0.3426 -0.1685
 4028W        W 8079   0.537   9.581   0.134  0.2895  0.0580  0.0536
 4029W        W 8080   4.894   0.129   9.329 -0.1150  0.2224  0.4468
 4030W        W 8081   3.070   8.379   3.472  0.2648  0.1480  0.3016
 4031W        W 8082   5.778   2.483   3.358  0.1607 -0.0564 -0.2552
 4032W        W 8083   1.113   1.857   0.936  0.3353  0.0155  0.0129
 4033W        W 8084   4.716   0.924   2.200 -0.0425 -0.2357 -0.1442
 4034W        W 8085   6.506   3.453  13.755 -0.1504  0.1535 -0.0441
 4035W        W 8086   7.187   4.512   9.270  0.1773 -0.0157 -0.3801
 4036W        W 8087   4.720   3.298   5.142 -0.2469 -0.0806 -0.0579
 4037W        W 8088   1.542   7.475  13.199 -0.0223  0.1179 -0.0139
 4038W        W 8089   6.465   4.282   2.730 -0.1433  0.1585 -0.0859
 4039W        W 8090   7.088   3.166   1.225 -0.0867  0.0044  0.1694
 4040W        W 8091   4.921   0.723   3.566 -0.0009 -0.2106 -0.0243
 4041W        W 8092   3.341   4.078  11.361  0.5378 -0.0498 -0.1797
 4042W        W 8093   8.227   8.381   1.176  0.0818 -0.0674 -0.0934
 4043W        W 8094   9.591   6.274  11.319  0.0696  0.2163  0.3887
 4044W        W 8095   6.934   1.897   3.329 -0.2885 -0.0652 -0.1580
 4045W        W 8096   1.289   3.252   5.094  0.1501  0.0615 -0.3378
 4046W        W 8097   0.656   7.806   0.132  0.2235 -0.2006  0.2126
 4047W        W 8098  10.116   8.838  13.885  0.3400 -0.1055  0.0923
 4048W        W 8099   5.750   6.129   9.385  0.0291  0.0647 -0.0596
 4049W        W 8100   8.474   8.343   9.641  0.0131  0.0726 -0.1110
 4050W        W 8101   4.676   8.852   4.696 -0.2034 -0.2480  0.1054
 4051W        W 8102   8.202   9.460   9.797 -0.3121 -0.3013 -0.0122
 4052W        W 8103   6.152   4.761   4.911 -0.1800 -0.1403  0.1504
 4053W        W 8104   6.569   3.350   2.148 -0.1322 -0.6273  0.0269
 4054W        W 8105   9.292   4.710   0.795  0.3023 -0.2018  0.0760
 4055W        W 8106   1.069   1.080  13.788  0.2059  0.1502  0.0669
 4056W        W 8107   6.270   7.496   2.939 -0.3660 -0.1357 -0.2660
 4057W        W 8108   5.148   2.802   1.029 -0.0524 -0.1195  0.2669
 4058W        W 8109   7.562   4.763  10.561  0.1945  0.0374  0.0402
 4059W        W 8110   4.931   9.502  11.523 -0.0133 -0.0215  0.0714
 4060W        W 8111   6.544   0.912  12.765  0.0179  0.2110  0.2052
 4061W        W 8112   0.073   4.127  11.331 -0.2399  0.0902  0.0138
 4062W        W 8113   2.961   3.117   1.915  0.1866  0.3115  0.0856
 4063W        W 8114   8.435   7.151  12.172  0.0057 -0.4221 -0.1261
 4064W        W 8115   5.123   3.764  11.895  0.1615  0.0843  0.1363
 4065W        W 8116   8.861   1.442   9.581 -0.4137 -0.0277  0.0520
 4066W        W 8117   3.334   0.338  13.871 -0.0762  0.1746  0.1306
 4067W        W 8118   5.400   5.508  12.546  0.1310  0.7085  0.0326
 4068W        W 8119   3.173   2.562  12.993 -0.1885 -0.1592  0.0296
 4069W        W 8120   1.135   7.065  13.339 -0.0206 -0.0921 -0.1054
 4070W        W 8121   8.089   0.317  10.993 -0.4356 -0.2597  0.2593
 4071W        W 8122   7.304   6.462   4.202  0.0474  0.0834  0.0234
 4072W        W 8123   3.748   1.529   3.659  0.0304  0.1812 -0.1617
 4073W        W 8124   0.630   2.080   1.019 -0.1752  0.0755 -0.2209
 4074W        W 8125   7.273   9.780   4.369 -0.1386  0.1307  0.2878
 4075W        W 8126   8.426   7.796   9.659 -0.0983 -0.1128 -0.0634
 4076W        W 8127   5.758   4.228  12.037  0.0412  0.1651  0.1597
 4077W        W 8128   9.445   4.734   1.789  0.0918 -0.0579  0.2030
 4078W        W 8129   8.347   6.657   4.271  0.2217 -0.1406 -0.2466
 4079W        W 8130   4.320   2.413  11.563  0.2628 -0.0293 -0.0515
 4080W        W 8131   5.895   4.716   1.080  0.1785  0.0462  0.1867
 4081W        W 8132   8.705   5.048   3.679 -0.1967  0.2994 -0.0344
 4082W        W 8133   6.328   0.397   2.786  0.1895  0.2667  0.1288
 4083W        W 8134   8.141   7.183   0.557  0.2743  0.1680  0.0047
 4084W        W 8135   2.638   8.604  11.967  0.1211  0.0477 -0.2017
 4085W        W 8136   3.765   0.052  13.090 -0.1552  0.3297 -0.0532
 4086W        W 8137   8.418   9.789   1.381  0.1023  0.3172  0.3216
 4087W        W 8138   9.634   3.509   4.721 -0.3254  0.4726  0.1173
 4088W        W 8139   3.606   7.106   9.327 -0.1262  0.2109 -0.0314
 4089W        W 8140  10.152   9.096  11.217 -0.1639  0.2990  0.0976
 4090W        W 8141   7.654   6.600   3.032  0.2492 -0.1057  0.2208
 4091W        W 8142   8.850   0.958   2.139  0.4095 -0.4146 -0.0687
 4092W        W 8143   2.807   2.134  10.858 -0.2705  0.0513 -0.3626
 4093W        W 8144   8.877   1.793   0.170  0.0558 -0.1450  0.0249
 4094W        W 8145   0.663   4.364  13.476  0.0199 -0.0303  0.0899
 4095W        W 8146   7.878   3.384   2.194 -0.0427  0.0305 -0.3403
 4096W        W 8147   3.350   9.267  11.735  0.1455  0.1799 -0.1030
 4097W        W 8148   4.698   4.489   9.061 -0.1131 -0.0422  0.1996
 4098W        W 8149   7.636   7.593   3.141  0.1274  0.0134  0.0997
 4099W        W 8150   9.123   6.112   3.552  0.0942 -0.1626 -0.3449
 4100W        W 8151   3.045   6.519  13.479  0.3902  0.0149 -0.0828
 4101W        W 8152   7.407   8.335   4.814  0.3620  0.1012  0.1765
 4102W        W 8153   3.372   3.529   9.305  0.0339 -0.2212 -0.1695
 4103W        W 8154   7.065   3.057   1.865  0.1467 -0.0033 -0.1320
 4104W        W 8155   3.418   2.045  12.548 -0.1036  0.0587  0.0543
 4105W        W 8156   6.976   3.687  12.087  0.1745  0.1825 -0.0196
 4106W        W 8157   4.268   9.013   9.484  0.0895 -0.1620  0.0741
 4107W        W 8158   7.734   3.084   3.015  0.1499  0.0109 -0.0499
 4108W        W 8159   8.166   5.918   3.509  0.1080  0.2317  0.2144
 4109W        W 8160   8.763   5.587   4.826 -0.0580 -0.0842  0.1754
 4110W        W 8161   9.317   2.889   0.001  0.1393 -0.0681  0.2157
 4111W        W 8162   4.660   4.274   4.184  0.0764 -0.0672  0.1028
 4112W        W 8163   2.191   0.506   2.014  0.1545 -0.4355  0.0859
 4113W        W 8164   5.003   7.299   3.769 -0.1256 -0.3612  0.1245
 4114W        W 8165   1.813  10.074   2.328  0.0984  0.3252 -0.4148
 4115W        W 8166   6.017   9.417  13.015  0.0092  0.2792 -0.0909
 4116W        W 8167   0.199   8.588   9.959 -0.2502 -0.1904  0.0718
 4117W        W 8168   3.835   0.558  10.013 -0.1034  0.0452 -0.1776
 4118W        W 8169   9.197   0.644  13.325 -0.0565  0.1307  0.1998
 4119W        W 8170   0.764   5.256   4.709 -0.2720  0.0029 -0.3178
 4120W        W 8171   3.700   8.944  11.430 -0.2601 -0.1334  0.2385
 4121W        W 8172   8.917   7.683  10.948  0.0988 -0.3148  0.0194
 4122W        W 8173   0.006   0.599  12.966  0.2044 -0.2367 -0.0782
 4123W        W 8174   3.125   2.923   5.812 -0.0159  0.3505 -0.1106
 4124W        W 8175   0.081   0.111  12.616  0.0161 -0.0072 -0.3351
 4125W        W 8176   2.617   5.937   3.260 -0.2335  0.0784  0.2216
 4126W        W 8177   0.703   6.981  10.607  0.1606  0.1435 -0.1896
 4127W        W 8178   2.142   5.238  11.605 -0.1803  0.3124 -0.3347
 4128W        W 8179   6.717   0.207   0.976  0.1795  0.1641 -0.0261
 4129W        W 8180   1.645   6.007   4.917  0.0076 -0.0547  0.0157
 4130W        W 8181   7.955   3.480  12.971  0.2999 -0.0828 -0.1504
 4131W        W 8182  10.152   2.807  11.699 -0.1042 -0.1955 -0.1157
 4132W        W 8183   7.882   0.958   5.330 -0.1236 -0.1302 -0.0723
 4133W        W 8184   0.118   2.238   9.839  0.0294 -0.6272  0.1449
 4134W        W 8185   9.908   9.427  11.535  0.1372  0.1633  0.0503
 4135W        W 8186   6.045   1.886   9.277  0.1101  0.1519 -0.0286
 4136W        W 8187   8.782   8.025  13.655  0.1308  0.1819 -0.1540
 4137W        W 8188   6.521   1.738   4.932  0.0785 -0.0716  0.0621
 4138W        W 8189   5.687   2.823   2.308  0.0649 -0.1349 -0.2557
 4139W        W 8190   4.867   1.193   9.664 -0.0179 -0.2461 -0.0027
 4140W        W 8191   3.114   5.386  12.738  0.0427  0.1268  0.0792
 4141W        W 8192   7.825   2.155   3.417 -0.2156  0.0284 -0.2023
 4142W        W 8193   6.625   5.950   4.566 -0.0193  0.1558 -0.1047
 4143W        W 8194   0.886   6.307   9.199  0.0331 -0.1680 -0.0287
 4144W        W 8195   9.348   1.705   2.027  0.4609 -0.0293 -0.0597
 4145W        W 8196   7.092   2.246   2.576 -0.0723 -0.1826  0.0416
 4146W        W 8197   2.696   2.264  11.923  0.1631  0.0379 -0.2963
 4147W        W 8198   7.716   5.128  12.923 -0.1884 -0.0425 -0.4738
 4148W        W 8199   3.265   8.718   2.071  0.2373  0.0146 -0.4944
 4149W        W 8200   2.319   4.969  10.746  0.2235 -0.2066 -0.0409
 4150W        W 8201   3.939   3.559  13.709 -0.0342  0.1261  0.1158
 4151W        W 8202   0.642   0.097   0.689 -0.0422 -0.2657  0.1044
 4152W        W 8203   5.698   3.120   0.381 -0.0421 -0.2451 -0.3119
 4153W        W 8204   8.421   5.170   4.791  0.1427  0.1500 -0.1474
 4154W        W 8205   6.135   8.899  13.082 -0.0146  0.0980 -0.0664
 4155W        W 8206  10.070   2.868   3.136  0.1349  0.0209 -0.0539
 4156W        W 8207   5.793   7.157  10.559  0.0206  0.0577  0.0515
 4157W        W 8208   4.378   6.882  12.098  0.2152 -0.0381 -0.3303
 4158W        W 8209   5.487   8.489   0.156 -0.2417 -0.1191 -0.2753
 4159W        W 8210   6.272   9.405  11.667 -0.2458  0.1326 -0.1321
 4160W        W 8211   0.670   6.779  12.650  0.4215  0.4733 -0.0815
 4161W        W 8212   4.146   5.604   1.657 -0.4456 -0.0614  0.1213
 4162W        W 8213   6.986   8.117   0.794  0.3545 -0.1284  0.1155
 4163W        W 8214   0.398   0.634  10.849  0.1548 -0.0055 -0.1216
 4164W        W 8215   6.368   6.228   2.617  0.1932  0.1787  0.3177
 4165W        W 8216   3.093   7.609  13.177  0.2909 -0.0800 -0.4058
 4166W        W 8217   4.036   8.906   1.099 -0.0504  0.0521 -0.2591
 4167W        W 8218   3.502   3.990  12.507 -0.2300 -0.0360 -0.2249
 4168W        W 8219   7.897   3.739   0.787 -0.0842 -0.0127  0.0606
 4169W        W 8220   5.668   4.758   2.390  0.0483 -0.1858  0.1217
 4170W        W 8221   7.937   0.329   2.930  0.0908 -0.0909  0.0194
 4171W        W 8222   9.838   4.114  12.102 -0.2557 -0.1070 -0.0691
 4172W        W 8223   9.583   6.897  13.109  0.0528 -0.0234  0.0195
 4173W        W 8224   7.790   1.948   1.787 -0.5359  0.0172  0.4536
 4174W        W 8225   1.271   3.552   0.670 -0.0594  0.4575  0.1227
 4175W        W 8226   3.700   0.125  13.610 -0.2261  0.1752 -0.0740
 4176W        W 8227   9.031   1.917   1.688  0.0000 -0.3406  0.3181
 4177W        W 8228   4.861   5.118   2.379 -0.1613  0.0391  0.2342
 4178W        W 8229   6.631   9.518  10.953  0.2112 -0.2340  0.1349
 4179W        W 8230   7.618   1.005  12.384 -0.2668 -0.2116  0.2656
 4180W        W 8231   6.036   7.465  12.807  0.0668 -0.1267  0.0319
 4181W        W 8232   2.840   4.342   0.210 -0.4079 -0.1709  0.1318
 4182W        W 8233   4.851   1.026   0.797 -0.1942  0.1828  0.2204
 4183W        W 8234   3.309   3.454   4.959 -0.2289 -0.2510 -0.3570
 4184W        W 8235   1.646   8.703  11.864  0.2005 -0.2955 -0.0747
 4185W        W 8236   1.886   6.992  11.032 -0.0789  0.1490  0.0528
 4186W        W 8237   7.071   3.468  11.204 -0.0249  0.0266 -0.0831
 4187W        W 8238   3.712   1.546  13.938 -0.1138  0.2822 -0.3345
 4188W        W 8239   1.384   2.561  13.505 -0.3111  0.1154  0.0801
 4189W        W 8240   9.016   5.701  10.479  0.0488  0.1153 -0.1602
 4190W        W 8241   1.963   1.657  10.097  0.3306  0.0624  0.1763
 4191W        W 8242   8.354   3.827   2.848 -0.0625 -0.0257  0.1043
 4192W        W 8243   5.410   6.477  13.587 -0.0201  0.0541  0.2057
 4193W        W 8244   6.302   2.477   4.508 -0.0353 -0.1514  0.2037
 4194W        W 8245  10.051   1.133   1.101 -0.0732  0.0733 -0.0689
 4195W        W 8246   1.385   4.155  11.093 -0.0878  0.2004 -0.1200
 4196W        W 8247   3.544   4.629  12.034  0.0702  0.3070 -0.3232
 4197W        W 8248   7.574   2.565   2.691  0.0548 -0.0968  0.0394
 4198W        W 8249   0.712   1.751  13.085 -0.0934  0.0126  0.1603
 4199W        W 8250   8.212   0.718  11.363  0.0340  0.1725 -0.0365
 4200W        W 8251  10.056   5.970   2.616  0.0967  0.3870  0.1282
 4201W        W 8252   1.390   4.358  12.213  0.1085  0.0245 -0.0764
 4202W        W 8253   1.264   4.576   1.159  0.1446  0.4778 -0.1610
 4203W        W 8254   0.485   8.537   2.089 -0.0144 -0.0614 -0.2195
 4204W        W 8255   7.424   0.652   9.522  0.2999  0.1538 -0.0139
 4205W        W 8256   0.039   1.322   0.621 -0.1071  0.1453 -0.2819
 4206W        W 8257   8.837   3.016   0.018  0.2046 -0.1491  0.1184
 4207W        W 8258   3.623   9.525  12.104 -0.1243  0.1204  0.2121
 4208W        W 8259   3.603   5.177  11.886 -0.2069 -0.1062  0.1400
 4209W        W 8260   2.195   4.199   1.435 -0.1721 -0.1493 -0.1601
 4210W        W 8261   6.737   1.910  10.618  0.3464 -0.0926 -0.1660
 4211W        W 8262   9.202   7.366  11.232  0.0970 -0.0547  0.1195
 4212W        W 8263   6.257   4.753  11.567  0.0171 -0.1351 -0.2407
 4213W        W 8264   1.371   6.524  11.894  0.3793  0.0501 -0.0252
 4214W        W 8265   7.166   1.192  10.366 -0.0035 -0.0233 -0.0785
 4215W        W 8266   4.448   0.645   2.622 -0.1318  0.0500 -0.0529
 4216W        W 8267   9.650   1.898   3.047 -0.1875  0.1024  0.4004
 4217W        W 8268   9.871   6.488  10.936 -0.1247 -0.0279  0.2568
 4218W        W 8269  10.122   0.308   0.026 -0.0868  0.1880  0.1913
 4219W        W 8270   0.510   1.953  10.102 -0.2480  0.0330 -0.0872
 4220W        W 8271   5.421   4.617   1.174 -0.0263  0.0050  0.2333
 4221W        W 8272   3.180   3.065  10.904 -0.1124  0.1306 -0.0473
 4222W        W 8273   1.681   2.449  13.885 -0.2127  0.1732 -0.2933
 4223W        W 8274   2.063   8.315  10.911 -0.0132 -0.0846 -0.1408
 4224W        W 8275   6.941   6.474   5.263 -0.0048  0.0943 -0.4390
 4225W        W 8276   9.355   1.936   0.466  0.0142 -0.2411  0.0319
 4226W        W 8277   3.841   0.730   1.061  0.1534 -0.2214  0.1171
 4227W        W 8278   9.649   7.966   1.874  0.0237  0.2142 -0.2305
 4228W        W 8279   0.543   6.333   9.837 -0.1543  0.3713 -0.1772
 4229W        W 8280   0.721   0.979  13.322 -0.0968  0.2093 -0.1133
 4230W        W 8281   1.805   5.229   0.910  0.2153  0.0551  0.0068
 4231W        W 8282   2.719   4.871   4.045  0.2177 -0.1887 -0.0702
 4232W        W 8283   5.439   7.674   5.050 -0.1190 -0.0327 -0.1570
 4233W        W 8284   5.664   7.571   4.247 -0.0583  0.0303  0.0826
 4234W        W 8285   6.678   3.995  13.031 -0.1452  0.3001  0.2394
 4235W        W 8286   4.018   9.864  11.927  0.2099 -0.0759  0.5547
 4236W        W 8287   1.294   0.961   2.072 -0.1683  0.1446 -0.1056
 4237W        W 8288   1.950   3.250   3.906 -0.0932  0.2422  0.0678
 4238W        W 8289   3.140   1.789   0.749  0.1271 -0.0446 -0.2608
 4239W        W 8290  10.101   7.896   2.188  0.2216 -0.3695  0.1750
 4240W        W 8291   9.846   2.622   0.320  0.2213 -0.1034  0.1145
 4241W        W 8292   9.856   5.908   9.499 -0.0604 -0.0001  0.2773
 4242W        W 8293   0.239   2.860   2.248 -0.0337  0.1447  0.1265
 4243W        W 8294   9.782   5.276  10.087 -0.0097  0.1358 -0.4021
 4244W        W 8295   8.283   8.414   3.592  0.0219  0.2903  0.0146
 4245W        W 8296   9.301   4.486   2.248 -0.0707  0.1176 -0.1410
 4246W        W 8297   3.315   1.786   0.203  0.1195  0.1470 -0.3256
 4247W        W 8298   6.579   1.801  10.070 -0.3181 -0.2663  0.1210
 4248W        W 8299   7.111   9.588  10.951 -0.2657  0.1357 -0.1289
 4249W        W 8300   5.683   0.723  12.650  0.0372  0.0335  0.1870
 4250W        W 8301   3.307   5.072  10.996 -0.0669  0.0243 -0.0819
 4251W        W 8302   0.415   5.189  11.997 -0.0645  0.2100  0.0803
 4252W        W 8303   2.172   0.076  13.611 -0.0965 -0.1059 -0.0222
 4253W        W 8304   5.017   3.905  13.284 -0.2400  0.0120 -0.3901
 4254W        W 8305   8.906   8.430   3.659  0.1005  0.0570 -0.0060
 4255W        W 8306   9.401   1.829  12.092 -0.0139 -0.0314 -0.1964
 4256W        W 8307   3.055   9.332  10.739 -0.1075  0.2497 -0.3519
 4257W        W 8308   5.966   6.105   2.296 -0.0358  0.0225  0.1851
 4258W        W 8309   3.092   4.127   0.683 -0.2553 -0.1206  0.0686
 4259W        W 8310   2.622   0.614   1.752  0.1056  0.0087  0.0449
 4260W        W 8311   1.511   1.952   2.190  0.0932 -0.0056  0.0078
 4261W        W 8312   2.414   2.324   3.148 -0.2757  0.1162  0.1789
 4262W        W 8313   3.256   3.026   9.165 -0.1222 -0.0141 -0.0978
 4263W        W 8314   0.189   3.681   4.730  0.0477  0.0154  0.2344
 4264W        W 8315   8.028   4.405   4.075 -0.2364 -0.1388  0.0138
 4265W        W 8316   6.413   6.557  13.952  0.3803 -0.2675  0.1995
 4266W        W 8317   4.109   8.704  11.180 -0.1595 -0.0384  0.1842
 4267W        W 8318   6.409   1.229   0.745 -0.1368 -0.2772  0.1603
 4268W        W 8319   7.222   3.778  11.560  0.0684  0.0439 -0.0600
 4269W        W 8320   0.606   5.557   3.371  0.0128 -0.2655 -0.0365
 4270W        W 8321   2.287   4.844   9.633  0.1339 -0.2834  0.4502
 4271W        W 8322   5.913   2.752   1.835  0.1505  0.1365 -0.2608
 4272W        W 8323   1.011   6.267  13.225 -0.2841 -0.0656  0.0763
 4273W        W 8324   9.424   2.058   1.050 -0.0908  0.0460 -0.0991
 4274W        W 8325   6.713   0.476   2.510  0.2070 -0.1567 -0.0658
 4275W        W 8326   2.444   0.442  13.423 -0.1557  0.2293  0.0770
 4276W        W 8327   1.728   6.355   4.421 -0.2266 -0.1261  0.0810
 4277W        W 8328   9.011   7.852   0.160 -0.1291  0.0024  0.0251
 4278W        W 8329   4.773   6.296   3.063 -0.2522  0.1881  0.1173
 4279W        W 8330   8.406  10.084  13.578 -0.0917 -0.0130 -0.1572
 4280W        W 8331   3.906   5.971  10.586  0.1005 -0.0546 -0.0867
 4281W        W 8332   6.216   4.692  13.666  0.0138  0.3860  0.2162
 4282W        W 8333   7.168   9.733   0.299 -0.2097 -0.1910 -0.0125
 4283W        W 8334   2.463   5.816  12.269  0.0539 -0.2606 -0.3382
 4284W        W 8335   3.590   5.484  10.777  0.3003 -0.1131 -0.0881
 4285W        W 8336   0.845   0.019   2.770  0.0158 -0.3338  0.0010
 4286W        W 8337   7.763   1.039   2.163  0.2586  0.1634  0.0526
 4287W        W 8338   2.698   2.851  13.033 -0.3408  0.1180  0.0468
 4288W        W 8339   6.464   2.522   1.041  0.2009  0.1211  0.0323
 4289W        W 8340   2.762   8.885   9.505  0.0308 -0.0063 -0.2068
 4290W        W 8341   1.728   1.575   2.510  0.0668 -0.0694 -0.3620
 4291W        W 8342   8.917   0.297   1.124  0.0534  0.2108 -0.1948
 4292W        W 8343   3.570   2.202  12.056 -0.1134  0.3865  0.0298
 4293W        W 8344   6.334   1.676  13.738 -0.0076 -0.2821 -0.0443
 4294W        W 8345   6.741   5.276  11.468  0.1848  0.0163 -0.0028
 4295W        W 8346   3.076   6.418   2.497 -0.1560 -0.1212 -0.1482
 4296W        W 8347   9.289   4.795   5.005 -0.2874  0.1335 -0.0921
 4297W        W 8348   0.980   8.263   2.338 -0.0126 -0.1309 -0.1332
 4298W        W 8349   4.403   2.992   1.830  0.2581  0.0707  0.0620
 4299W        W 8350   2.118   3.747   0.524  0.1094 -0.2185  0.0239
 4300W        W 8351  10.136   5.795   0.462  0.0511  0.0824 -0.3672
 4301W        W 8352   6.017   8.355  12.953 -0.0038  0.1048 -0.1796
 4302W        W 8353   2.405   5.733  11.380 -0.1111 -0.3084  0.3386
 4303W        W 8354   8.948   9.065   1.272  0.2001 -0.1847  0.0919
 4304W        W 8355   9.341   6.491   2.771  0.2323 -0.1304  0.0609
 4305W        W 8356   7.556   0.089   2.137  0.0467 -0.1926  0.1140
 4306W        W 8357   4.528   9.687   9.972 -0.2907  0.1423 -0.3179
 4307W        W 8358   3.287   2.988  11.371  0.0030  0.1429  0.3206
 4308W        W 8359   0.677   3.642  13.514 -0.1081 -0.0227 -0.1072
 4309W        W 8360   6.764   6.055  10.373 -0.1690  0.3129  0.0712
 4310W        W 8361  10.080   1.038  10.168  0.0307 -0.1273 -0.0962
 4311W        W 8362   5.049   4.041  10.625  0.1951  0.1055 -0.0340
 4312W        W 8363   3.763   1.862   5.013 -0.0084  0.0672  0.2082
 4313W        W 8364   7.274   7.556   9.566  0.2512  0.1430 -0.0752
 4314W        W 8365   8.293   2.966  11.957 -0.0075 -0.3007 -0.2011
 4315W        W 8366   3.801   2.328   5.226  0.1208 -0.0939  0.0754
 4316W        W 8367   4.809   8.075  13.870 -0.1251 -0.0541 -0.1765
 4317W        W 8368   4.965   5.557   3.989  0.1656 -0.2003 -0.0634
 4318W        W 8369   6.906   1.150   5.535 -0.0531  0.2102 -0.1716
 4319W        W 8370   7.213   8.806   5.484  0.2665 -0.0099 -0.1961
 4320W        W 8371   7.977   5.231  10.558  0.0262 -0.1635  0.1332
 4321W        W 8372   8.537   1.047   9.624 -0.0152 -0.0585 -0.0904
 4322W        W 8373   9.642   6.106   3.327  0.0162  0.5164 -0.1040
 4323W        W 8374   8.726   8.127  12.488 -0.0313  0.1846 -0.1328
 4324W        W 8375   9.406   8.460   1.934 -0.2240 -0.0156 -0.0731
 4325W        W 8376   1.237   5.565  11.722  0.0442  0.1007  0.0574
 4326W        W 8377   3.458   5.664   3.174 -0.1135 -0.0505  0.0082
 4327W        W 8378   8.879   4.123   9.584 -0.2757 -0.0962 -0.0926
 4328W        W 8379   2.738   1.986  13.381 -0.1345 -0.0535  0.0293
 4329W        W 8380   3.180   9.735  11.869  0.2277  0.0394 -0.0055
 4330W        W 8381   2.116   1.742   0.587 -0.6164 -0.0510 -0.1497
 4331W        W 8382   6.566   1.259   4.727 -0.1680  0.1310 -0.0835
 4332W        W 8383   1.837   6.411   2.839  0.0964  0.1607 -0.4327
 4333W        W 8384   0.784   8.565  12.710 -0.2772  0.3820 -0.2872
 4334W        W 8385   9.029   9.999  12.813  0.2302  0.3838 -0.0903
 4335W        W 8386   3.219   8.526   0.291  0.1319 -0.0670 -0.1389
 4336W        W 8387   4.000   0.516   0.519  0.1344 -0.1242 -0.0401
 4337W        W 8388   0.456   8.337  11.455  0.1093 -0.0342  0.0916
 4338W        W 8389   1.945   8.410   0.604  0.0938 -0.4285 -0.0425
 4339W        W 8390   7.987   1.590   2.696 -0.0427 -0.0530 -0.1153
 4340W        W 8391   0.297   6.506   3.445  0.2184  0.0109 -0.0534
 4341W        W 8392   4.583   2.815  11.936 -0.1634 -0.3066 -0.0836
 4342W        W 8393   2.241   3.851  11.531 -0.2921  0.0519 -0.0403
 4343W        W 8394   6.163   2.167   0.479 -0.1679 -0.3097  0.0494
 4344W        W 8395   8.931   5.055   2.710  0.1858  0.0475 -0.0391
 4345W        W 8396   2.983   8.132   2.360 -0.2561 -0.2087 -0.2470
 4346W        W 8397   7.988   7.146   2.356  0.2230  0.0920  0.0695
 4347W        W 8398   1.142   3.971   3.105 -0.2394 -0.2228 -0.3794
 4348W        W 8399   6.965   6.939   0.011  0.1399 -0.0272 -0.0918
 4349W        W 8400   8.244  10.018  11.690 -0.1975 -0.1280 -0.0593
 4350W        W 8401   9.775   9.475   0.056 -0.1082  0.1512 -0.0830
 4351W        W 8402   1.577   3.053  11.987  0.3022 -0.0779 -0.0829
 4352W        W 8403   6.964   9.821   3.270  0.1859 -0.1234  0.0230
 4353W        W 8404   7.260   3.357   0.665 -0.0354  0.0405  0.0417
 4354W        W 8405   8.200   5.686  12.590 -0.1354 -0.0350  0.0544
 4355W        W 8406   6.767   2.607  11.263  0.0027 -0.3379 -0.1341
 4356W        W 8407   3.578   9.081  10.043  0.1093  0.0796 -0.1660
 4357W        W 8408   5.011   9.158   2.376  0.3119 -0.1123  0.1543
 4358W        W 8409   8.378   2.805  13.354 -0.0262  0.1647 -0.0289
 4359W        W 8410   5.594   1.623   9.940 -0.0946  0.0496  0.0286
 4360W        W 8411   7.021   5.767   2.065 -0.1979  0.1337 -0.0739
 4361W        W 8412   6.809   7.898  12.613  0.0830 -0.0543  0.0558
 4362W        W 8413   6.731   3.898   0.133  0.3019 -0.0709  0.3291
 4363W        W 8414   5.456   7.879  11.571  0.1102 -0.2062 -0.3329
 4364W        W 8415   1.053   8.838   0.771 -0.2798 -0.0312  0.1215
 4365W        W 8416   2.235   3.539   5.714  0.0029 -0.0484  0.1975
 4366W        W 8417   2.436   2.926  11.197  0.0050  0.0453  0.0873
 4367W        W 8418   1.032   5.248   0.041  0.3550  0.1785 -0.1423
 4368W        W 8419   6.960   5.500   1.174  0.0809  0.0230  0.0656
 4369W        W 8420   0.264   1.507  12.855 -0.2431  0.2690  0.0556
 4370W        W 8421   4.901   4.758   1.311  0.0333 -0.1627 -0.1179
 4371W        W 8422   4.978   7.891   0.801  0.2464 -0.2989 -0.4535
 4372W        W 8423   6.639   2.831   1.876  0.0466  0.1312  0.0703
 4373W        W 8424   1.314   7.599   3.883 -0.3074 -0.2090  0.0396
 4374W        W 8425   9.803   4.921   8.924 -0.0156 -0.0022 -0.3633
 4375W        W 8426   2.580   4.581  10.996 -0.1308 -0.0086  0.0693
 4376W        W 8427   1.613   1.398   3.495 -0.0266 -0.0109 -0.0002
 4377W        W 8428   9.795   8.646   4.195 -0.2059  0.2349  0.1840
 4378W        W 8429   4.637   4.472   1.684  0.4219  0.1511 -0.1899
 4379W        W 8430   8.118   9.533   4.033 -0.0021 -0.1071 -0.0994
 4380W        W 8431   7.208   2.393   9.603 -0.1300  0.0918 -0.1773
 4381W        W 8432   4.070   9.534  13.780  0.3184 -0.0411  0.1999
 4382W        W 8433   3.753   1.150  12.228 -0.0983  0.1826  0.2174
 4383W        W 8434   4.920   7.284   2.938  0.0567  0.0143  0.3665
 4384W        W 8435   5.520   1.504  10.442  0.2831 -0.0208 -0.1584
 4385W        W 8436   6.981   2.631  11.804 -0.1422  0.1802 -0.1098
 4386W        W 8437   6.941   5.643   0.716  0.0074 -0.2627 -0.1279
 4387W        W 8438   7.521   1.843  13.963  0.2221 -0.1675  0.2043
 4388W        W 8439   4.034   4.539  13.778  0.2645 -0.0627  0.4147
 4389W        W 8440   3.001   0.291   1.913 -0.1066 -0.0421 -0.0703
 4390W        W 8441  10.172   5.675  11.263  0.1026  0.2733  0.0539
 4391W        W 8442   0.121   6.222   3.959 -0.3723  0.0886  0.2070
 4392W        W 8443   0.796   3.319   1.585  0.4483 -0.2455  0.2501
 4393W        W 8444   3.574   9.949   3.174  0.1173  0.1472  0.3038
 4394W        W 8445   5.480  10.023   2.496  0.0303 -0.0852 -0.2801
 4395W        W 8446   5.374   6.338   1.671  0.2064 -0.0845  0.0973
 4396W        W 8447   6.201   2.030  10.050 -0.0594  0.0730  0.3570
 4397W        W 8448   4.957   2.145   2.739 -0.2742  0.4380 -0.0023
 4398W        W 8449   8.283   7.726   0.438 -0.2544 -0.2522  0.0992
 4399W        W 8450   8.351   0.304   2.730  0.3010  0.2580 -0.1218
 4400W        W 8451   4.723   1.424  13.103 -0.0708 -0.0062  0.3332
 4401W        W 8452   5.100   6.088   3.837  0.1933  0.0708  0.1986
 4402W        W 8453   5.513   7.748  13.631  0.4506 -0.1557 -0.0073
 4403W        W 8454   0.032   7.121  12.927  0.0837  0.0886  0.3070
 4404W        W 8455   1.233   4.140   4.371  0.0008  0.0444 -0.0511
 4405W        W 8456   3.700   9.725  12.922  0.0101  0.0567 -0.1318
 4406W        W 8457   1.347   2.720   2.183 -0.2879 -0.0583  0.0186
 4407W        W 8458   7.185   2.218   4.812  0.0050  0.1136  0.1863
 4408W        W 8459   0.262   0.764   9.793  0.0288  0.3433  0.0582
 4409W        W 8460   8.673   1.182   4.205 -0.0425 -0.2425  0.1435
 4410W        W 8461   2.823   4.992  12.588 -0.2220 -0.2139 -0.1150
 4411W        W 8462   8.763   1.019  13.580 -0.0065  0.0860 -0.4056
 4412W        W 8463   6.950   1.308   1.669  0.0426  0.1330  0.3583
 4413W        W 8464   0.495   4.645   4.862 -0.0831  0.0369 -0.1093
 4414W        W 8465   5.212   5.120   4.102  0.0580 -0.0742  0.2478
 4415W        W 8466   2.064   0.018  11.299  0.2133  0.2862 -0.2359
 4416W        W 8467   4.079   0.886  10.502 -0.2409 -0.2227  0.0701
 4417W        W 8468   7.495   2.153   0.398  0.1801 -0.0743  0.0043
 4418W        W 8469   9.318   5.796  10.835 -0.0516 -0.1926 -0.1817
 4419W        W 8470   8.055   7.841   9.953  0.3495 -0.3627  0.1358
 4420W        W 8471   5.741   6.875  13.367 -0.1263  0.1258 -0.0634
 4421W        W 8472   7.777   4.922   9.540  0.0915 -0.1431 -0.0805
 4422W        W 8473   5.791   1.701  12.619 -0.0515  0.0109 -0.0163
 4423W        W 8474   8.311   5.516   2.105  0.0179  0.2560  0.0329
 4424W        W 8475   0.621   3.190  13.361 -0.1419 -0.4070 -0.0385
 4425W        W 8476   8.440   1.523   2.431 -0.1832 -0.0308  0.2264
 4426W        W 8477   3.929   0.535  12.637 -0.4254  0.1163 -0.0728
 4427W        W 8478   4.720   1.760   4.143  0.3158  0.0566  0.0322
 4428W        W 8479   6.549   0.713  13.865  0.0700 -0.1850 -0.0165
 4429W        W 8480   8.515   3.650  11.297  0.0053 -0.0145  0.3692
 4430W        W 8481   4.185   8.302  11.921  0.2236  0.0053  0.1751
 4431W        W 8482   9.589   5.556   4.646  0.0350  0.1728 -0.2660
 4432W        W 8483   0.804   1.453   0.823 -0.2900 -0.0103 -0.0376
 4433W        W 8484   4.486   1.369   1.079  0.0835 -0.0935  0.0042
 4434W        W 8485   2.888   0.435  13.646  0.0772  0.0320 -0.0342
 4435W        W 8486   2.098   0.363  10.849  0.1568 -0.1427  0.1697
 4436W        W 8487   5.635   7.618   0.114 -0.0500  0.1320 -0.2946
 4437W        W 8488   8.527   5.340   9.677 -0.2514  0.1897 -0.1454
 4438W        W 8489   8.488  10.048  10.049 -0.2730  0.3736 -0.2886
 4439W        W 8490   3.335   8.687  12.919  0.1895  0.0300 -0.1139
 4440W        W 8491   2.972   6.241  12.814 -0.2677 -0.3162 -0.1414
 4441W        W 8492   2.480   7.938   1.466 -0.0820  0.1994  0.0620
 4442W        W 8493   5.663   8.543   1.998  0.0599 -0.2878  0.0936
 4443W        W 8494   1.548   9.602  10.798 -0.0184 -0.2058  0.0305
 4444W        W 8495  10.133   9.060  11.931 -0.3123 -0.0226  0.0060
 4445W        W 8496   7.063   6.513   4.680 -0.3221 -0.1520  0.1306
 4446W        W 8497   7.965   5.425   9.512  0.0172  0.2215 -0.5194
 4447W        W 8498   5.810   7.464  12.356  0.0001  0.0313 -0.0791
 4448W        W 8499   3.033   3.288   3.667 -0.0223  0.1137  0.1387
 4449W        W 8500   1.005   9.207  11.194 -0.1775 -0.0640 -0.0798
 4450W        W 8501   5.507   6.711   3.611  0.0553  0.0050 -0.0919
 4451W        W 8502   0.475   5.174   9.514  0.0276 -0.1132 -0.1898
 4452W        W 8503   9.952   2.246   3.356 -0.1778  0.3852  0.0326
 4453W        W 8504   0.225   8.502   3.988  0.1914  0.3398 -0.1596
 4454W        W 8505   5.595   6.125  13.885  0.1306 -0.2849  0.0205
 4455W        W 8506   3.690   2.920   3.776 -0.0684 -0.1400  0.1382
 4456W        W 8507   4.191   4.370   3.381 -0.1000  0.2104 -0.1834
 4457W        W 8508   8.670   8.932   1.726  0.2701  0.3593  0.1298
 4458W        W 8509   0.379   9.885  10.709 -0.4910  0.3016 -0.2202
 4459W        W 8510   4.481   6.235   9.781  0.3818  0.1862  0.0406
 4460W        W 8511   4.560   4.214   5.257 -0.4158 -0.0283  0.0846
 4461W        W 8512   7.435   5.188  13.914 -0.1375  0.1573  0.1564
 4462W        W 8513   6.965   3.047   4.108  0.0518  0.0740  0.1846
 4463W        W 8514   2.543   5.050   2.118  0.1003  0.1100 -0.0045
 4464W        W 8515   3.876   5.596   2.797  0.1723 -0.2395 -0.2000
 4465W        W 8516   6.393   0.217  11.468  0.0882 -0.2542  0.2467
 4466W        W 8517   9.979   5.674  13.073 -0.2866 -0.0206  0.1738
 4467W        W 8518   9.184   5.144   9.474 -0.1153 -0.3189  0.2141
 4468W        W 8519   3.140   7.271  12.331  0.0786 -0.4557  0.0761
 4469W        W 8520   6.742   2.592   5.180  0.0416  0.2882 -0.0007
 4470W        W 8521   3.069   0.242   4.708  0.0610 -0.1301  0.0755
 4471W        W 8522   3.350   2.184   3.200 -0.1763  0.1298  0.2163
 4472W        W 8523   0.822   2.071   2.489  0.1587 -0.0866  0.2810
 4473W        W 8524   4.530   3.525   3.692 -0.1502 -0.2788  0.2863
 4474W        W 8525   5.099   3.256  12.676 -0.0779 -0.3933  0.3256
 4475W        W 8526   9.048   2.315  11.762  0.1551 -0.1603  0.1503
 4476W        W 8527   2.572   0.861   1.203 -0.1648  0.1737  0.0339
 4477W        W 8528   4.339   7.340   2.914 -0.0772 -0.3413 -0.1651
 4478W        W 8529   2.265   8.077  13.541 -0.2718 -0.0790  0.1502
 4479W        W 8530   1.366   0.661   3.746  0.0571 -0.4412  0.0548
 4480W        W 8531   8.832   1.726   4.306 -0.3263  0.4220  0.0716
 4481W        W 8532   0.857   9.191   0.332  0.0557  0.2508  0.1215
 4482W        W 8533  10.162   2.959   2.683  0.0760  0.1047  0.1881
 4483W        W 8534   3.102   7.550   1.329  0.2283  0.1135 -0.1042
 4484W        W 8535   1.223   6.424   4.447  0.2958 -0.0648  0.2209
 4485W        W 8536   7.666   6.618  13.809  0.0442 -0.0829  0.0685
 4486W        W 8537   9.557   9.569   4.361  0.0433 -0.2596 -0.0383
 4487W        W 8538   2.047   8.730   0.995  0.2652  0.3030  0.2478
 4488W        W 8539   8.546   0.890   4.638 -0.0503 -0.0565 -0.4767
 4489W        W 8540   8.092   9.558  10.312 -0.0546  0.0982 -0.2988
 4490W        W 8541   1.621   4.187   9.189  0.0478  0.0059 -0.1405
 4491W        W 8542   5.248   4.097  12.266 -0.1087 -0.1120 -0.0178
 4492W        W 8543   6.036   6.749  12.999 -0.1341  0.1163 -0.4723
 4493W        W 8544   7.454   3.647  12.038 -0.0756 -0.0145  0.0817
 4494W        W 8545   1.165   5.251   3.109 -0.0340  0.0003 -0.1453
 4495W        W 8546   2.316   1.297  11.800  0.3197  0.3002 -0.1741
 4496W        W 8547   7.052   7.587   1.421  0.0997  0.2965 -0.0386
 4497W        W 8548   8.251   3.293  13.356 -0.0767 -0.2622 -0.1269
 4498W        W 8549   7.677   2.990  10.679  0.1128 -0.1349 -0.2952
 4499W        W 8550   9.218   2.949   3.486 -0.1365  0.0268 -0.2597
 4500W        W 8551   7.092   7.783   3.478  0.2327 -0.2477 -0.1018
 4501W        W 8552   1.441   6.051   4.133 -0.3605  0.3207  0.0848
 4502W        W 8553   4.464   6.514   1.788  0.0172 -0.1389  0.3662
 4503W        W 8554   3.255   6.455   4.029 -0.2022 -0.3188 -0.2087
 4504W        W 8555   7.558   6.167   4.768 -0.0671  0.1168  0.3868
 4505W        W 8556   8.261   1.214   0.838  0.0240 -0.3436 -0.1183
 4506W        W 8557   3.677   1.811   9.716  0.3027 -0.0236 -0.0553
 4507W        W 8558   5.944   9.942   4.107 -0.1955  0.1143 -0.2212
 4508W        W 8559   1.940   5.473  13.120 -0.3387 -0.1034  0.0707
 4509W        W 8560   4.976   6.432  12.610  0.1086  0.2124 -0.2558
 4510W        W 8561   7.198   6.354   0.661  0.0986  0.1957 -0.0527
 4511W        W 8562   9.991   5.981  12.230  0.1076  0.0845 -0.0182
 4512W        W 8563   4.263   7.999   3.818  0.0182  0.1610  0.1847
 4513W        W 8564   8.978   0.374  12.093  0.0160  0.2917 -0.0692
 4514W        W 8565   5.132   7.457  11.777  0.2432  0.1871 -0.2166
 4515W        W 8566   7.006   6.315  13.169 -0.1931 -0.2408  0.1079
 4516W        W 8567   7.555   9.287   1.050  0.2795  0.0313 -0.1197
 4517W        W 8568   8.009   6.939   4.624 -0.2824  0.2751 -0.0049
 4518W        W 8569   4.243   7.290  12.410  0.1098  0.1838  0.0026
 4519W        W 8570   5.361   7.990  12.485 -0.1537  0.1738 -0.0609
 4520W        W 8571   1.921   5.244  10.957  0.1332 -0.0006  0.0526
 4521W        W 8572   6.118   0.816  10.143  0.3625 -0.3098 -0.0363
 4522W        W 8573   6.300   4.611   5.454  0.0475  0.1359 -0.0431
 4523W        W 8574   9.241   7.672  12.151 -0.2578 -0.1106  0.3367
 4524W        W 8575   6.560  10.008   3.469  0.0787  0.3623 -0.2870
 4525W        W 8576   5.624   4.503   1.911 -0.5398  0.0901  0.3320
 4526W        W 8577   4.321   7.888   0.120 -0.3004  0.0867  0.1991
 4527W        W 8578   8.767   4.350   4.319  0.2129  0.0697  0.0217
 4528W        W 8579   6.458   1.301  10.857 -0.0260  0.0900  0.1726
 4529W        W 8580   9.569   5.527  11.186  0.2763  0.3299  0.1227
 4530W        W 8581   7.782   4.840  11.616  0.0049 -0.1707  0.0943
 4531W        W 8582   8.846   0.226  10.360 -0.1951  0.1593 -0.2467
 4532W        W 8583   5.173   3.084   0.627 -0.0876  0.0847  0.1179
 4533W        W 8584   8.255   8.489  10.046  0.2067  0.1272 -0.1222
 4534W        W 8585   7.058   5.080   9.994 -0.1285 -0.0472  0.0856
 4535W        W 8586   2.109   7.289   0.692  0.2561  0.0929 -0.0005
 4536W        W 8587   5.925   6.934   4.819  0.0353 -0.1316 -0.1150
 4537W        W 8588   5.424   8.063   4.184 -0.1112 -0.1288 -0.1083
 4538W        W 8589   8.124   3.051   4.683  0.0357 -0.0342  0.3329
 4539W        W 8590   4.643   1.349   2.419  0.0896 -0.1083 -0.0501
 4540W        W 8591   1.248   8.045   1.962  0.0478  0.1561  0.1791
 4541W        W 8592   8.040   3.339   3.317 -0.1563 -0.1053 -0.1426
 4542W        W 8593   6.568   8.928  10.435  0.2173  0.0362  0.2783
 4543W        W 8594   6.780   5.180   5.499 -0.0252  0.1653 -0.0628
 4544W        W 8595   5.828   0.254  12.868 -0.1812 -0.1667 -0.0097
 4545W        W 8596   5.326   4.025   1.066  0.1117 -0.2547 -0.1139
 4546W        W 8597   4.351   7.356  11.875 -0.0504  0.1132 -0.2867
 4547W        W 8598   2.905   7.329  11.621  0.2098 -0.0732 -0.1969
 4548W        W 8599   0.761   3.876   2.746 -0.0880  0.2001  0.3658
 4549W        W 8600   8.313   3.727   0.287 -0.0002 -0.0936 -0.3857
 4550W        W 8601   2.821   8.434   1.996 -0.0387 -0.0046  0.0838
 4551W        W 8602   6.283   6.719  13.429  0.1910  0.1158  0.0091
 4552W        W 8603   1.844   8.823  13.571 -0.1291 -0.3379 -0.0345
 4553W        W 8604   6.580   7.438  10.594  0.3059 -0.2522 -0.1372
 4554W        W 8605   4.497   5.417   0.020  0.4520  0.1445  0.1998
 4555W        W 8606   6.346   4.290  13.354  0.0451 -0.0696  0.1765
 4556W        W 8607   6.380   7.060  12.874  0.0928  0.0699  0.1550
 4557W        W 8608   5.430   3.715   9.673  0.2657  0.2094 -0.2131
 4558W        W 8609   7.256   3.030  12.159  0.0054  0.1207  0.0210
 4559W        W 8610   3.259   5.154   5.860 -0.1867 -0.0639  0.1687
 4560W        W 8611   7.192   3.691   1.051 -0.2114 -0.1081 -0.0551
 4561W        W 8612   1.833   2.648  12.168 -0.2979  0.0229  0.0522
 4562W        W 8613   6.103   1.056   2.213 -0.1059  0.0657  0.5267
 4563W        W 8614   7.531  10.023   0.455  0.1292  0.2474 -0.3487
 4564W        W 8615  10.038   4.576  12.119  0.1495 -0.4190  0.1964
 4565W        W 8616   1.941   5.040   2.778 -0.4488  0.1325  0.2447
 4566W        W 8617   2.436   5.655   0.132 -0.2833  0.1438  0.2237
 4567W        W 8618   8.633   3.713  10.091 -0.2186 -0.0531 -0.1092
 4568W        W 8619   3.484   7.245  11.912 -0.1955  0.0831  0.0796
 4569W        W 8620   2.561   2.018  12.527  0.2072  0.2954  0.1285
 4570W        W 8621   0.756   4.739   4.452  0.2611 -0.0472  0.0258
 4571W        W 8622   0.260   5.596   9.373 -0.1066 -0.1071 -0.2302
 4572W        W 8623   0.633   7.128   2.792  0.0347  0.0821 -0.3118
 4573W        W 8624  10.035   2.665   1.923 -0.1018  0.2643  0.0879
 4574W        W 8625   1.596   9.186  10.505  0.1087  0.0879  0.0926
 4575W        W 8626   6.716   9.291   1.501  0.1469 -0.1526  0.0661
 4576W        W 8627   3.625   8.057  13.228  0.2737 -0.3104  0.0558
 4577W        W 8628   7.439   1.823   3.536 -0.0583 -0.0150 -0.0154
 4578W        W 8629   2.620   7.500  13.027 -0.2435  0.1932 -0.0008
 4579W        W 8630   7.235  10.007   1.904  0.0919 -0.1804 -0.4430
 4580W        W 8631   3.743   3.101  10.453  0.1691 -0.2979  0.0375
 4581W        W 8632   6.520   6.582  10.766  0.1778 -0.1777  0.0386
 4582W        W 8633   3.494   5.787   4.502  0.2991  0.3183  0.1110
 4583W        W 8634   9.284   5.521  13.028  0.3002 -0.2392  0.1972
 4584W        W 8635   0.378   4.332   5.186  0.4175  0.0620 -0.1175
 4585W        W 8636   9.995   0.546   0.988 -0.0172 -0.1509  0.0843
 4586W        W 8637   1.666   0.356   2.529  0.1235 -0.0862  0.2079
 4587W        W 8638   0.795   1.263  12.925  0.1008  0.0845  0.0067
 4588W        W 8639   4.401   2.852   5.859  0.0268 -0.0445 -0.2896
 4589W        W 8640   0.517   7.233   3.644  0.0217 -0.0725 -0.0010
 4590W        W 8641   6.456   0.310  13.559 -0.2419 -0.2098 -0.1294
 4591W        W 8642   6.503   8.219   0.740 -0.0504 -0.2894 -0.4034
 4592W        W 8643   3.281   6.746  10.596 -0.1467 -0.0109 -0.2283
 4593W        W 8644   4.055   2.424   3.584  0.2357  0.3781 -0.0707
 4594W        W 8645   4.022   0.515  14.017  0.0853 -0.1194 -0.1160
 4595W        W 8646   4.065   5.397   3.310  0.0144  0.0119 -0.1496
 4596W        W 8647   3.400   2.935   2.114  0.0856 -0.0324 -0.0614
 4597W        W 8648   4.793   1.687  12.628  0.3085 -0.0076 -0.0721
 4598W        W 8649   8.275   3.664  12.568  0.0984  0.0081  0.0921
 4599W        W 8650   6.675   5.407   2.125  0.2024  0.0141  0.3185
 4600W        W 8651   2.478   4.508   4.819  0.2545  0.2509 -0.1483
 4601W        W 8652   0.379   3.125  11.301 -0.1287  0.1676 -0.1696
 4602W        W 8653   2.473   0.295  10.534  0.0879  0.1192  0.0989
 4603W        W 8654   7.844   5.712  10.433 -0.0584 -0.0422 -0.0466
 4604W        W 8655   9.123   0.160   0.700 -0.0659 -0.2170  0.0901
 4605W        W 8656   0.316   9.149   0.243  0.0684  0.2316  0.1623
 4606W        W 8657   1.923  10.020   0.792  0.1284  0.0005  0.0078
 4607W        W 8658   9.368   5.177   0.679 -0.0310  0.0608  0.0753
 4608W        W 8659   2.525   3.121  11.803  0.1125  0.1486  0.3367
 4609W        W 8660   7.550   9.891   2.436 -0.4108 -0.0272  0.0465
 4610W        W 8661   5.237   0.443   9.582  0.0533  0.0653 -0.2792
 4611W        W 8662   5.152   7.911  11.996  0.0238 -0.0935 -0.1247
 4612W        W 8663   4.903   7.336  10.114  0.0308  0.0382 -0.0191
 4613W        W 8664   8.721   7.215  11.147 -0.0158  0.0426 -0.2493
 4614W        W 8665   3.241   1.982  11.183  0.0453  0.1683  0.0267
 4615W        W 8666   3.699   9.491  11.124  0.1978 -0.3367 -0.1038
 4616W        W 8667   2.506   6.133   0.039 -0.3483 -0.0988 -0.0360
 4617W        W 8668   5.738   2.662  12.984 -0.0228 -0.0165  0.0029
 4618W        W 8669   6.341   4.985   2.158  0.0620  0.3138  0.1223
 4619W        W 8670   5.824   2.975   3.160 -0.0600  0.1988 -0.1868
 4620W        W 8671   3.936   0.262   4.241 -0.0173  0.0285  0.0416
 4621W        W 8672   7.721   6.605   8.860  0.0819  0.2021  0.0811
 4622W        W 8673   5.319   2.723  13.477  0.2421  0.2140  0.1979
 4623W        W 8674   6.847   0.839   1.563  0.0436  0.2201 -0.1201
 4624W        W 8675   8.587   6.725  11.401 -0.0120 -0.0523 -0.1572
 4625W        W 8676   7.620   6.492   0.992 -0.3648 -0.0333 -0.2625
 4626W        W 8677   7.584   4.048  10.678 -0.0783  0.0844  0.0902
 4627W        W 8678   1.796   9.774   1.662  0.0313 -0.3057 -0.0907
 4628W        W 8679   6.879   8.926   1.136 -0.1788 -0.4839  0.0236
 4629W        W 8680   3.281   2.956  10.424 -0.2256 -0.1696 -0.3286
 4630W        W 8681   4.662   3.509   1.876 -0.0924  0.2003 -0.0025
 4631W        W 8682   1.703   7.792   4.333  0.0777 -0.1137  0.0942
 4632W        W 8683   3.964   7.272  11.505  0.1334 -0.1101  0.0007
 4633W        W 8684   7.640   3.034  12.593 -0.0051  0.0568 -0.1278
 4634W        W 8685   8.551   0.033  13.133  0.2108 -0.0073  0.0748
 4635W        W 8686   9.479   6.988   2.943 -0.1392  0.2407  0.0715
 4636W        W 8687   0.387   3.721  12.062 -0.1114  0.3319 -0.0522
 4637W        W 8688   8.087  10.023  12.738  0.0506 -0.3219 -0.0009
 4638W        W 8689   7.260   8.073   4.420 -0.1710  0.0301  0.1112
 4639W        W 8690   8.047   4.701  12.877  0.0365  0.0434  0.0629
 4640W        W 8691   7.210   1.084  13.291  0.0099 -0.1478 -0.1914
 4641W        W 8692   8.972   8.795  12.655  0.0615  0.3295  0.0375
 4642W        W 8693   6.319   8.687  12.572 -0.1575 -0.1180  0.2754
 4643W        W 8694   8.151   0.807  10.625 -0.2553  0.2372  0.0176
 4644W        W 8695   9.838   3.093   9.434 -0.2092 -0.0015  0.0714
 4645W        W 8696   5.532   9.764   9.806 -0.1985 -0.0689  0.2013
 4646W        W 8697   4.854   1.770  11.389 -0.0709 -0.3144 -0.2002
 4647W        W 8698   7.961   1.603  13.786  0.0377  0.0610 -0.0035
 4648W        W 8699   5.590   7.841   3.114 -0.1008  0.1852  0.2042
 4649W        W 8700   0.514   7.987   2.290  0.0290  0.2543 -0.1807
 4650W        W 8701   6.766   7.057  12.429  0.0520 -0.0494 -0.0993
 4651W        W 8702   9.107   6.214  11.130  0.0939  0.3379 -0.1292
 4652W        W 8703   0.526   5.408  12.462 -0.2386  0.1899 -0.0888
 4653W        W 8704   0.204   3.476  13.846  0.2690 -0.4239 -0.0516
 4654W        W 8705   7.566   7.369   1.104 -0.2158 -0.1733  0.2290
 4655W        W 8706   7.065   1.930  12.971 -0.2211  0.1939  0.2485
 4656W        W 8707   8.804   4.755  13.392 -0.1104  0.0386  0.1294
 4657W        W 8708   7.871   4.385  11.429  0.0211 -0.3384 -0.1588
 4658W        W 8709   8.051   4.823   4.748  0.0600  0.5938 -0.1199
 4659W        W 8710   2.743   9.380   0.691  0.0985  0.0292 -0.0153
 4660W        W 8711   6.885   5.006  12.476 -0.2688  0.0179 -0.3075
 4661W        W 8712   2.455   3.875   5.143 -0.0324  0.0677  0.1543
 4662W        W 8713   1.439   5.602  11.236 -0.2731  0.3137 -0.0275
 4663W        W 8714   6.296   8.932   1.791 -0.2409  0.1410  0.2108
 4664W        W 8715   5.175   8.398  11.885 -0.1275 -0.3371 -0.0750
 4665W        W 8716   1.925   5.589  11.328  0.2914 -0.1877  0.1067
 4666W        W 8717   3.040   5.514  12.204 -0.0660  0.0375  0.2651
 4667W        W 8718   8.312   0.435  13.900  0.0525  0.0509  0.2065
 4668W        W 8719   2.153   3.789  13.023 -0.2119  0.2210 -0.3234
 4669W        W 8720   5.548   7.828   1.614 -0.0000  0.2203 -0.1520
 4670W        W 8721   5.594   6.499  11.758 -0.2383 -0.1170 -0.1819
 4671W        W 8722   1.908   6.637  10.056 -0.0651  0.1521  0.3839
 4672W        W 8723   0.177   5.844  12.707 -0.0242 -0.3323 -0.3160
 4673W        W 8724   4.245   5.181  13.026  0.2333 -0.2103 -0.2439
 4674W        W 8725   1.271   5.754   4.477  0.0745 -0.2434  0.2132
 4675W        W 8726   6.527   0.600   9.765  0.0432  0.2314  0.0537
 4676W        W 8727   2.130   8.097  12.083 -0.1036  0.2374 -0.1294
 4677W        W 8728   4.713   1.754  11.945  0.1084  0.0522  0.0334
 4678W        W 8729   9.558   4.856   4.009 -0.4334  0.1348 -0.3554
 4679W        W 8730   4.994   7.872   0.251 -0.0543  0.2937  0.0362
 4680W        W 8731   7.792   4.917   0.047 -0.0761  0.0073 -0.3640
 4681W        W 8732   9.777   6.388  13.276 -0.3271  0.0352 -0.0122
 4682W        W 8733   4.493   5.633  12.977  0.1418 -0.2530  0.1017
 4683W        W 8734   1.488   7.392  10.146 -0.0279 -0.1579 -0.3317
 4684W        W 8735   3.919   6.709  12.934  0.1153  0.2456  0.0085
 4685W        W 8736   3.696   2.739  10.821 -0.2578 -0.2600  0.0039
 4686W        W 8737   0.524   0.967  11.587 -0.0114 -0.3106  0.0682
 4687W        W 8738   5.445   3.660  13.464 -0.2293  0.2655  0.4840
 4688W        W 8739   8.212   5.586   9.938 -0.3387  0.2293 -0.3899
 4689W        W 8740   9.809   0.363  12.699 -0.2071  0.1818 -0.0179
 4690W        W 8741   9.019   9.009  10.108 -0.1356  0.1131  0.1078
 4691W        W 8742   7.975   9.796  10.810  0.1098  0.0045 -0.2682
 4692W        W 8743   2.068   2.729   1.992 -0.1278  0.1231  0.0940
 4693W        W 8744   6.676   8.831   9.773 -0.0071 -0.0120 -0.2120
 4694W        W 8745   0.070   3.994   9.100  0.1082  0.1091  0.1255
 4695W        W 8746   7.907   5.478  13.297 -0.3854 -0.0975 -0.0680
 4696W        W 8747   6.154   3.685   4.122  0.2508  0.0090  0.2228
 4697W        W 8748   2.841   4.868   5.096 -0.0196 -0.0489 -0.2871
 4698W        W 8749   4.099   3.047   2.800  0.4627 -0.0803 -0.0232
 4699W        W 8750   3.580   6.798   1.481  0.0006 -0.0177 -0.0149
 4700W        W 8751   8.419   1.766   5.495 -0.2599  0.1512  0.0139
 4701W        W 8752   5.939   1.413   4.133  0.0762  0.1123  0.2580
 4702W        W 8753   4.470   7.654  13.221 -0.1628  0.0733 -0.2015
 4703W        W 8754   2.290   8.749   0.520 -0.2246 -0.0496  0.1282
 4704W        W 8755   5.707   0.067   3.353 -0.0318 -0.0780 -0.1650
 4705W        W 8756   3.167   8.534  12.305  0.1546 -0.0731  0.3711
 4706W        W 8757  10.124   2.112   3.833 -0.1751 -0.1636  0.5134
 4707W        W 8758   1.236   4.649  10.892  0.1776 -0.1469 -0.3856
 4708W        W 8759  10.164   8.340   9.569  0.2808  0.0932 -0.0864
 4709W        W 8760   1.911   7.009  13.964  0.1336  0.1785 -0.1580
 4710W        W 8761   7.780   6.682  11.868  0.0331 -0.0263 -0.0402
 4711W        W 8762   9.489   1.014  11.958 -0.1441  0.4835 -0.2482
 4712W        W 8763   9.426   0.916   2.936 -0.1274  0.0761 -0.0892
 4713W        W 8764   4.894   4.260   0.968  0.0536 -0.2910  0.1427
 4714W        W 8765   5.868   9.450   0.381  0.0581 -0.0211 -0.4655
 4715W        W 8766   4.547   8.219  10.031  0.3559  0.1256  0.1427
 4716W        W 8767   6.617   3.962  10.729  0.1459 -0.2253 -0.3342
 4717W        W 8768   7.492   7.039   2.429  0.1695 -0.0891 -0.2462
 4718W        W 8769   5.456   1.127  10.774  0.2382  0.0656 -0.2180
 4719W        W 8770   9.898   8.785  11.542 -0.0012 -0.0706  0.0807
 4720W        W 8771   3.325   3.771   4.567  0.2715  0.1002 -0.1120
 4721W        W 8772   7.424   6.131  12.893 -0.1805 -0.2910 -0.2222
 4722W        W 8773   9.682   1.629   9.738 -0.0476  0.0549  0.0193
 4723W        W 8774   3.205   5.951   0.784  0.1175  0.0952  0.1134
 4724W        W 8775   8.603   8.870   3.676 -0.1605  0.1784  0.1862
 4725W        W 8776   4.570   0.828  12.282  0.0056  0.3130  0.2783
 4726W        W 8777   9.358   1.575   1.537  0.0043  0.2866 -0.0483
 4727W        W 8778   1.114   5.908  11.063 -0.2791 -0.2019  0.0447
 4728W        W 8779   7.366   7.277   3.446  0.0949 -0.0213  0.0380
 4729W        W 8780   7.803   5.479   4.150 -0.2035 -0.2295  0.1559
 4730W        W 8781   1.395   4.758  11.832  0.2642  0.0385  0.0919
 4731W        W 8782   3.753   2.416   9.060 -0.0441  0.3156 -0.0230
 4732W        W 8783   5.591   5.225   0.243 -0.1374 -0.1249 -0.0027
 4733W        W 8784   5.083   9.078  11.803 -0.1426  0.2791 -0.0476
 4734W        W 8785   0.551   0.354  12.733  0.0960 -0.1715 -0.3815
 4735W        W 8786   9.784   5.870  11.713  0.2012 -0.0353 -0.1731
 4736W        W 8787   4.220   6.481   2.260  0.2356  0.2207 -0.1953
 4737W        W 8788   5.078   6.450  11.907 -0.0456 -0.3893 -0.4100
 4738W        W 8789   0.929   7.182   4.489 -0.0421 -0.3421 -0.1597
 4739W        W 8790   8.582   8.019   0.104  0.1980  0.0120 -0.3971
 4740W        W 8791   4.332   2.459   5.081 -0.1365 -0.0485 -0.3452
 4741W        W 8792   3.278   0.908  12.052  0.3266 -0.2198 -0.0679
 4742W        W 8793   3.165   3.787   5.344 -0.0064 -0.1735  0.3625
 4743W        W 8794   7.997   3.426  11.229  0.1039 -0.1243  0.0878
 4744W        W 8795   5.362   9.993  10.891 -0.2815  0.0377  0.1532
 4745W        W 8796   8.421   4.177   2.429 -0.1790  0.0495 -0.0571
 4746W        W 8797   3.497   0.667   0.209 -0.3456  0.2675  0.1462
 4747W        W 8798   6.844   0.169  10.215 -0.0830  0.3425  0.1100
 4748W        W 8799   3.161   3.145   2.506 -0.0876  0.1469  0.1040
 4749W        W 8800   1.085   2.220   3.467  0.0001 -0.0168 -0.0190
 4750W        W 8801   1.127   1.627  13.842 -0.1676 -0.1536  0.2514
 4751W        W 8802   7.519   6.856  10.385  0.1499  0.0675  0.1573
 4752W        W 8803   2.009   3.248   2.233  0.3350 -0.0568 -0.0378
 4753W        W 8804   3.516   5.749  11.976  0.0638 -0.1166 -0.2442
 4754W        W 8805   4.388   6.948   1.159 -0.1483  0.1904  0.0671
 4755W        W 8806   2.228   1.578  11.455  0.0188 -0.2413 -0.0395
 4756W        W 8807   1.732   7.868   3.877 -0.3123 -0.0479 -0.1655
 4757W        W 8808   0.021   1.745  13.258  0.1142  0.1772 -0.1609
 4758W        W 8809   7.935   0.289  11.549 -0.2365 -0.0762 -0.0060
 4759W        W 8810   6.453   3.952   3.718 -0.1137  0.1712 -0.0008
 4760W        W 8811   3.079   0.223   2.387 -0.2575  0.3032 -0.3665
 4761W        W 8812   0.627   5.019   1.611 -0.1390 -0.0685  0.1111
 4762W        W 8813   1.362   9.217  13.696 -0.0892  0.0605  0.0275
 4763W        W 8814   1.878   2.356  13.087  0.3813  0.2408 -0.0959
 4764W        W 8815   3.751   7.778   4.119 -0.2653  0.2472  0.3259
 4765W        W 8816   5.235   2.796   9.895  0.3041  0.0329  0.2237
 4766W        W 8817   2.411   3.326  10.887  0.0277  0.0149 -0.2481
 4767W        W 8818   6.114   0.666   9.542  0.0514 -0.2785  0.0917
 4768W        W 8819   2.565   8.292   1.054  0.3946  0.1377  0.2403
 4769W        W 8820   4.541   1.559   9.658 -0.2969  0.2114  0.0206
 4770W        W 8821   1.547   5.163  10.621 -0.1066  0.0178 -0.4154
 4771W        W 8822   6.317   2.522  12.600  0.1957  0.1614 -0.2014
 4772W        W 8823   3.421   4.980   1.148 -0.0230  0.2033  0.1228
 4773W        W 8824   1.787   2.752   2.395  0.0787 -0.0751 -0.2004
 4774W        W 8825   9.789   0.878  12.470 -0.1153  0.0882  0.2871
 4775W        W 8826   7.668   5.078   5.461  0.2168  0.1273  0.0283
 4776W        W 8827   0.104   4.780   5.293 -0.2658 -0.0354  0.0880
 4777W        W 8828   5.324   2.359  13.844 -0.2657 -0.1824  0.1010
 4778W        W 8829   2.174   7.637   4.331  0.4670 -0.0401  0.3806
 4779W        W 8830   6.075   1.705  13.016 -0.1791  0.2026  0.1008
 4780W        W 8831   4.515   2.695  10.090  0.1306 -0.1027 -0.0818
 4781W        W 8832   2.762   5.454   9.965  0.0323  0.2526 -0.2514
 4782W        W 8833   9.439   3.661   0.869  0.2163  0.0290  0.1042
 4783W        W 8834   7.391   8.577  13.894 -0.0787 -0.0412 -0.0929
 4784W        W 8835   0.142   3.682  10.215 -0.0086 -0.2060 -0.4694
 4785W        W 8836   1.964   8.130   2.574 -0.1833  0.2364 -0.2083
 4786W        W 8837   7.437   5.594   0.997 -0.2329  0.0629  0.0370
 4787W        W 8838   2.035   0.211   1.071  0.0459 -0.1766  0.0052
 4788W        W 8839   2.876   1.671  10.211 -0.0584  0.2321  0.1496
 4789W        W 8840   9.961   7.387  13.799 -0.2493  0.4844  0.4615
 4790W        W 8841   9.082   0.979   9.712  0.0833  0.0632 -0.1087
 4791W        W 8842   9.804   6.916  13.899 -0.3448  0.0431 -0.0236
 4792W        W 8843   3.576   0.109  12.538  0.0326 -0.2407 -0.2303
 4793W        W 8844   2.437   2.965   1.770 -0.2304  0.0203  0.1211
 4794W        W 8845   6.574   3.938  13.641  0.2878 -0.1578  0.0928
 4795W        W 8846   7.085   2.391   1.982 -0.0187 -0.0377 -0.1298
 4796W        W 8847   6.819   9.282   9.643 -0.0497 -0.3112 -0.1128
 4797W        W 8848   4.032   8.126  11.244  0.1150 -0.1283 -0.0360
 4798W        W 8849   7.200   9.998  10.282 -0.2368 -0.1331  0.3432
 4799W        W 8850   5.843   0.681   2.476  0.0172  0.3476 -0.0476
 4800W        W 8851   1.132   9.170   1.689 -0.2424 -0.2007 -0.2361
 4801W        W 8852   6.191   0.458   4.603  0.3990  0.3472  0.0798
 4802W        W 8853   4.729   5.932   4.211  0.0155  0.2846  0.0551
 4803W        W 8854   4.362   7.810   1.096 -0.0621  0.1945  0.0685
 4804W        W 8855   6.315   1.994   1.367  0.0550  0.1902 -0.3158
 4805W        W 8856   0.019   7.949  12.442 -0.0369  0.0365 -0.0400
 4806W        W 8857   6.912   3.784   3.862  0.0815 -0.1543 -0.0763
 4807W        W 8858   2.926   0.811   2.187  0.1345 -0.0726 -0.2119
 4808W        W 8859   4.694   7.758  11.949 -0.1611 -0.0108  0.3758
 4809W        W 8860   0.024   4.323   0.540  0.1928  0.1158 -0.0614
 4810W        W 8861   5.739   7.550   1.251  0.0922  0.0271  0.0211
 4811W        W 8862   2.841   3.720   3.914  0.0874  0.0508  0.1109
 4812W        W 8863   2.715   6.785   2.327 -0.0508 -0.1171  0.0919
 4813W        W 8864   1.080   8.030   1.474  0.0007 -0.0973 -0.1815
 4814W        W 8865   8.845   0.596   9.431 -0.0757  0.0826 -0.0270
 4815W        W 8866   1.001   3.780   3.619  0.0506 -0.1577  0.1981
 4816W        W 8867   7.495   4.590   2.946 -0.0171  0.1073 -0.0219
 4817W        W 8868   8.078   3.247  12.427 -0.2037 -0.1794 -0.0937
 4818W        W 8869   4.624   9.727   0.541  0.1390  0.0806  0.1860
 4819W        W 8870   1.621   9.652  11.713 -0.2573 -0.0151  0.1773
 4820W        W 8871   5.713   5.901  13.464 -0.1895  0.1148 -0.0690
 4821W        W 8872   6.449   1.553   2.502  0.3425  0.1043 -0.1880
 4822W        W 8873   5.910   0.627   3.670  0.0460 -0.1634  0.0372
 4823W        W 8874   6.152  10.167   3.150 -0.3694 -0.2372  0.1077
 4824W        W 8875   8.347   9.553  11.506 -0.2089  0.1586  0.3234
 4825W        W 8876   7.007   6.879   2.206  0.0576  0.1237 -0.1347
 4826W        W 8877   2.602   5.407  13.481 -0.1863  0.1666  0.2307
 4827W        W 8878   4.959   4.661  12.303 -0.1065 -0.1928 -0.0817
 4828W        W 8879   5.041   6.385   4.300  0.1361 -0.0424  0.1283
 4829W        W 8880   8.746   1.403  13.272  0.2814  0.0776  0.3485
 4830W        W 8881   5.978   6.133  11.698  0.0038 -0.0828 -0.3360
 4831W        W 8882   4.285   0.599  13.036  0.0570 -0.1039  0.1347
 4832W        W 8883   7.650   7.802   4.814  0.2326  0.2589  0.1206
 4833W        W 8884   9.079   7.219   3.034 -0.0415 -0.0175  0.0471
 4834W        W 8885   3.978   6.983   0.363 -0.4616  0.0224 -0.1107
 4835W        W 8886   4.961   6.822  12.269  0.0122  0.0087  0.0470
 4836W        W 8887   2.419   2.969   4.683  0.4559 -0.0310 -0.2461
 4837W        W 8888   6.258   3.171   1.692  0.2026  0.0193 -0.3735
 4838W        W 8889   9.296   5.766   1.925  0.1220 -0.3974 -0.0981
 4839W        W 8890   2.067   6.499  11.147  0.0257 -0.0122  0.1347
 4840W        W 8891   7.226   0.565  11.852 -0.0503 -0.0945 -0.3550
 4841W        W 8892   5.465   2.757  10.919 -0.1382 -0.0122  0.2609
 4842W        W 8893   0.666   0.168  11.397 -0.1256  0.1475 -0.2946
 4843W        W 8894   0.662   2.837  12.950  0.1182 -0.0052 -0.2063
 4844W        W 8895   7.600   7.588  10.052  0.0511  0.1908  0.0046
 4845W        W 8896   2.206   1.537   2.854 -0.0053  0.0229 -0.1346
 4846W        W 8897   0.638   6.159  11.868 -0.1481 -0.0047  0.0779
 4847W        W 8898   8.480   5.278   2.938 -0.0984 -0.1015  0.1210
 4848W        W 8899   1.048   4.814  11.435  0.1011 -0.0169  0.1345
 4849W        W 8900   5.974   2.824   4.548  0.0572 -0.1104  0.3828
 4850W        W 8901   1.253   5.941   1.228 -0.1974 -0.3234 -0.1049
 4851W        W 8902   9.377   3.845   3.828  0.1653  0.1675 -0.3108
 4852W        W 8903   3.664   5.900   1.758  0.1282 -0.1688 -0.0286
 4853W        W 8904   4.094   1.503   3.187 -0.1598  0.0671  0.1214
 4854W        W 8905   5.789   0.017   1.481 -0.2552 -0.1277 -0.0976
 4855W        W 8906   7.725   9.553   5.247 -0.1955  0.2372 -0.1267
 4856W        W 8907   2.943   1.382   3.561 -0.0800  0.1340  0.0294
 4857W        W 8908   6.833   6.513  12.294  0.1420 -0.0620  0.1522
 4858W        W 8909   7.943   9.916   2.821 -0.0659  0.0165  0.2511
 4859W        W 8910   3.834   5.134   2.584  0.1789 -0.0598 -0.0056
 4860W        W 8911   2.604   7.120  12.622 -0.2526  0.1304  0.4099
 4861W        W 8912   5.150  10.029   4.586 -0.1583  0.2089 -0.2565
 4862W        W 8913   9.538   7.718  12.955 -0.0174 -0.1137 -0.3943
 4863W        W 8914   9.938   4.473   3.601 -0.1814  0.1215 -0.0533
 4864W        W 8915   1.379   0.524   0.526  0.1255 -0.0204  0.4241
 4865W        W 8916   9.427   0.469  11.816  0.0506 -0.0768 -0.0125
 4866W        W 8917   6.461   2.244   3.216  0.1619  0.1558  0.1834
 4867W        W 8918   0.168   0.096  13.564  0.1017  0.1936 -0.3319
 4868W        W 8919   1.847   8.153   3.079 -0.4607  0.0275  0.1028
 4869W        W 8920   8.842   6.581   0.243  0.1135 -0.0251 -0.1859
 4870W        W 8921   9.167   4.787  10.860  0.0053 -0.3498  0.1066
 4871W        W 8922   8.597   5.945  10.382  0.2521  0.0019 -0.0900
 4872W        W 8923   4.935   1.302   4.356  0.0442  0.0712 -0.0586
 4873W        W 8924   0.727   5.477   1.851 -0.0234 -0.0263  0.0763
 4874W        W 8925   7.470   7.810  11.727  0.2588  0.0924 -0.0051
 4875W        W 8926   0.226   3.947  12.814 -0.0131  0.3314 -0.1376
 4876W        W 8927   5.794   0.197   4.417  0.2103 -0.3631 -0.4550
 4877W        W 8928   0.518   1.884  10.619  0.0653 -0.3370 -0.0951
 4878W        W 8929   0.887   7.882   1.048  0.0762  0.1993  0.1387
 4879W        W 8930   5.728   9.255   1.821  0.0734  0.0251 -0.1953
 4880W        W 8931   5.241   6.568   3.196  0.0906  0.0156 -0.3120
 4881W        W 8932   5.684   0.656   0.603 -0.0685 -0.2308  0.0248
 4882W        W 8933   4.644   9.949  10.823 -0.2785  0.0317  0.0840
 4883W        W 8934   0.867   0.059  12.413 -0.1899  0.0339 -0.2383
 4884W        W 8935   7.930   9.288   4.914  0.3511 -0.0099 -0.1578
 4885W        W 8936   5.456   5.788  13.089 -0.1449  0.2481 -0.5434
 4886W        W 8937   4.302   1.145   9.569 -0.2043  0.0419  0.1473
 4887W        W 8938   5.679   9.009   3.910  0.0729  0.4398  0.0461
 4888W        W 8939   4.929   3.734  12.518 -0.5319 -0.1019 -0.3549
 4889W        W 8940   0.539   2.491   9.579 -0.1799 -0.2349  0.0790
 4890W        W 8941   6.554   2.022   4.505 -0.0857 -0.0281 -0.1188
 4891W        W 8942   4.580   4.814   3.163 -0.0973  0.0317 -0.0431
 4892W        W 8943   9.401   1.016   0.098 -0.0436 -0.2160 -0.2842
 4893W        W 8944   1.318  10.049  11.813 -0.3527  0.0103  0.2585
 4894W        W 8945   3.768   6.499   3.585  0.0326  0.0139  0.1660
 4895W        W 8946   4.221   0.885   0.780 -0.0606 -0.1128  0.4078
 4896W        W 8947   6.085   1.447   4.931 -0.0688  0.0453 -0.0141
 4897W        W 8948   8.724   5.701   0.111 -0.3606 -0.2840 -0.1940
 4898W        W 8949   3.809   7.526   0.024 -0.2800  0.0289 -0.0295
 4899W        W 8950   4.255   2.297   8.912 -0.0987 -0.0349  0.1497
 4900W        W 8951   5.931   0.729  12.006 -0.1765 -0.1500 -0.1597
 4901W        W 8952   4.834   8.046   4.287 -0.2200  0.6047  0.0645
 4902W        W 8953   1.643   2.186  12.175  0.1674 -0.0390 -0.1100
 4903W        W 8954   2.960   5.217   1.366 -0.0237  0.0087  0.0763
 4904W        W 8955   9.256   9.809   0.229 -0.1194 -0.0692 -0.2935
 4905W        W 8956   1.760   3.371  13.277 -0.3561 -0.0723 -0.1409
 4906W        W 8957   0.204   3.918   0.348  0.2067 -0.2506  0.2840
 4907W        W 8958   3.700   3.851  12.987  0.3699  0.3340 -0.0192
 4908W        W 8959   3.681   9.950  13.949 -0.0619  0.2238  0.3473
 4909W        W 8960   5.208   7.093  10.472  0.2623  0.1724 -0.2380
 4910W        W 8961  10.100   7.851  10.391 -0.1966  0.2634  0.0261
 4911W        W 8962   6.145   7.184  13.291 -0.1313  0.0223  0.0269
 4912W        W 8963   1.084   4.757   4.805 -0.1802 -0.1131 -0.3616
 4913W        W 8964   6.737   0.734   0.890 -0.1451 -0.2521  0.1650
 4914W        W 8965   7.258   4.501   1.694  0.0432  0.1952  0.1449
 4915W        W 8966   2.436   2.021  11.564  0.1582 -0.1007 -0.1999
 4916W        W 8967   2.656   7.325   2.615 -0.0842 -0.2005  0.3338
 4917W        W 8968   7.314   2.420   3.516 -0.0347  0.2889  0.1699
 4918W        W 8969   7.085   7.277  10.846 -0.0037  0.3703 -0.0601
 4919W        W 8970   6.963   6.971   2.742 -0.1687 -0.1530 -0.0605
 4920W        W 8971   2.506   5.050   1.586  0.0238  0.2133  0.2174
 4921W        W 8972   0.846   2.135   9.770 -0.1287 -0.0156  0.1075
 4922W        W 8973   5.004   0.043  13.334 -0.0467 -0.0638 -0.0435
 4923W        W 8974   4.294   2.902  12.405 -0.0476  0.0460 -0.0167
 4924W        W 8975   4.232   4.485   3.986  0.3999 -0.1712  0.2203
 4925W        W 8976   9.787   8.680  13.400 -0.0192 -0.0588 -0.0485
 4926W        W 8977   2.195   1.194   9.815 -0.1764 -0.2745 -0.2233
 4927W        W 8978   6.647   5.898   1.097  0.0834 -0.0292 -0.1393
 4928W        W 8979   2.968   0.825   3.472  0.1327 -0.1080  0.2041
 4929W        W 8980   9.872   3.578   3.408 -0.1693 -0.1202  0.0504
 4930W        W 8981   9.165   1.976   2.855 -0.1009 -0.0461 -0.2334
 4931W        W 8982   4.544   0.608   3.130  0.0690  0.2611  0.6428
 4932W        W 8983   4.427   0.386  12.526  0.0324  0.0766  0.1960
 4933W        W 8984   9.964   3.105  12.153 -0.2177 -0.1614  0.4019
 4934W        W 8985   7.735   3.561  12.533  0.0809 -0.1290  0.4069
 4935W        W 8986   3.566   7.102  13.771  0.1274 -0.1399  0.2176
 4936W        W 8987   3.503   6.795   0.231  0.1318  0.3775 -0.1659
 4937W        W 8988   9.635   7.778  13.487  0.1684  0.1617  0.0849
 4938W        W 8989   4.953   1.496   1.850  0.0007 -0.1395  0.2084
 4939W        W 8990   8.100   7.443   2.724 -0.1277  0.0741  0.2126
 4940W        W 8991   8.554   9.031   9.770  0.3244 -0.0490 -0.0230
 4941W        W 8992   0.642   8.404   9.777  0.1809  0.1252 -0.2849
 4942W        W 8993   5.049   0.774   1.302 -0.0885 -0.0120  0.4397
 4943W        W 8994   1.321   8.762  10.495 -0.0886 -0.0294  0.1039
 4944W        W 8995   1.441   0.827  13.598 -0.0252 -0.3777  0.0115
 4945W        W 8996   9.101   1.914   3.390  0.1770  0.2900  0.2966
 4946W        W 8997   7.896   9.051   2.490  0.1342 -0.1664  0.1106
 4947W        W 8998   3.110   6.938  11.952 -0.1334  0.1249 -0.1505
 4948W        W 8999   4.931   5.708  11.321 -0.0982 -0.1667  0.0590
 4949W        W 9000   4.715   7.339  12.219  0.0371  0.1850  0.3223
 4950W        W 9001   9.183   7.660   4.719  0.1358 -0.0814  0.0727
 4951W        W 9002   3.424   8.567   1.650 -0.2707 -0.1071 -0.0688
 4952W        W 9003   0.995   4.455   2.222  0.1029 -0.3167 -0.2951
 4953W        W 9004   3.746   1.903  13.452 -0.2607  0.1551 -0.0869
 4954W        W 9005   4.555   4.316  10.739  0.0379  0.1281 -0.0907
 4955W        W 9006   0.792   5.853   9.795  0.0055 -0.2701 -0.3253
 4956W        W 9007   9.626   4.020  12.553  0.0660  0.0337 -0.2576
 4957W        W 9008   3.485   2.113   4.695 -0.0417 -0.0934  0.0843
 4958W        W 9009   5.656   8.309  11.748  0.0318 -0.0670  0.0439
 4959W        W 9010   5.152   5.871  12.707  0.1540  0.1008 -0.1718
 4960W        W 9011   8.436   9.071   0.358 -0.0251  0.0963  0.2320
 4961W        W 9012   1.377   6.236  13.696 -0.0449 -0.3503 -0.4178
 4962W        W 9013   9.543   6.222   2.389  0.0916  0.1032  0.1351
 4963W        W 9014   3.265   4.576   0.556 -0.3193  0.1174  0.0583
 4964W        W 9015   0.934   1.303   3.005 -0.0695 -0.3731 -0.0921
 4965W        W 9016   9.386   5.090  13.741  0.0111  0.0227 -0.1137
 4966W        W 9017   2.726   3.474   2.219  0.2406  0.0184 -0.2680
 4967W        W 9018   5.035   0.206   3.749 -0.0378 -0.1275 -0.0829
 4968W        W 9019   4.161  10.170   3.710 -0.3231 -0.0651  0.2424
 4969W        W 9020   6.977   2.714   2.794  0.0064  0.0886  0.0156
 4970W        W 9021   7.158   7.190  13.382 -0.2166 -0.0177  0.1831
 4971W        W 9022   6.256   5.248  11.649  0.0112 -0.1388 -0.0929
 4972W        W 9023   6.950   2.824   0.949  0.2045 -0.2136 -0.0683
 4973W        W 9024   7.333   0.148   9.676 -0.1369  0.1121  0.1602
 4974W        W 9025   7.739   0.247   0.615  0.3391  0.2156  0.1190
 4975W        W 9026   5.655   2.322  11.170  0.1455 -0.2234 -0.2321
 4976W        W 9027   4.943   8.005   3.304 -0.1890 -0.0375  0.0966
 4977W        W 9028   3.043   5.213   3.881  0.0273  0.0084  0.1684
 4978W        W 9029   8.667   8.860  13.499  0.2629  0.2068  0.1787
 4979W        W 9030   9.202   8.325   2.425  0.2702 -0.0584 -0.1380
 4980W        W 9031   7.097   0.488   1.145  0.1884 -0.0783 -0.1825
 4981W        W 9032   6.988   4.376   2.495 -0.0345  0.0816  0.2370
 4982W        W 9033   7.763   3.685  11.587 -0.0122  0.0197 -0.2332
 4983W        W 9034   6.673   3.648  12.567 -0.0469 -0.1860 -0.2756
 4984W        W 9035   7.443   9.145  12.499  0.0380  0.1782  0.0093
 4985W        W 9036   0.173   6.823  12.527  0.1961  0.2104 -0.1318
 4986W        W 9037   7.816   5.643   5.534 -0.0433  0.4040 -0.0561
 4987W        W 9038   6.289  10.104   0.218 -0.0276 -0.0179 -0.0984
 4988W        W 9039   8.031   3.617  10.071 -0.1602 -0.1751 -0.3342
 4989W        W 9040   9.847   2.663  12.115  0.2418  0.0615 -0.2336
 4990W        W 9041   7.462   2.212   3.058 -0.2498 -0.4602  0.0346
 4991W        W 9042   8.283   0.821  13.568 -0.2012 -0.1768 -0.0406
 4992W        W 9043   0.979   8.738  12.271 -0.2376  0.0949 -0.0647
 4993W        W 9044   5.842   9.929  13.895 -0.0267  0.1147  0.1193
 4994W        W 9045   9.803   6.109   9.042 -0.0574  0.1207 -0.1127
 4995W        W 9046   8.117   2.789   2.973 -0.1742 -0.2319 -0.0676
 4996W        W 9047  10.048   0.756  13.881 -0.3248 -0.2007  0.0468
 4997W        W 9048   2.544   9.648   0.330  0.2954 -0.3505 -0.1401
 4998W        W 9049   1.772   7.048   9.750 -0.5696  0.0485  0.1325
 4999W        W 9050   2.949   4.442  10.190  0.1081 -0.1047  0.1685
 5000W        W 9051   4.834   3.389   0.935  0.3733  0.2186  0.0701
 5001W        W 9052   4.787   7.034  11.783 -0.1728  0.0176 -0.1472
 5002W        W 9053   3.408   3.438  10.629  0.2431  0.0241  0.0715
 5003W        W 9054   8.788   5.400  11.662  0.1542  0.1581  0.1794
 5004W        W 9055   9.838   5.528   0.041 -0.3798 -0.3446  0.4156
 5005W        W 9056   5.141   0.940   4.113 -0.0475 -0.1329  0.1134
 5006W        W 9057   6.301   4.165   3.227 -0.1937 -0.0148 -0.0506
 5007W        W 9058   9.841   7.369  13.191  0.2498  0.0952  0.0379
 5008W        W 9059   2.535   5.594   2.506 -0.1378  0.1473  0.2021
 5009W        W 9060   4.834   2.929  12.408  0.2737  0.0371 -0.0924
 5010W        W 9061   3.655   7.295  12.440 -0.2214 -0.2969 -0.0214
 5011W        W 9062   7.058   6.103  11.772 -0.0399 -0.1764  0.0466
 5012W        W 9063   2.208   2.046  13.301 -0.0808  0.3963  0.0397
 5013W        W 9064   6.820   1.625   0.456  0.0299  0.0692 -0.0940
 5014W        W 9065   1.054   7.359  10.684  0.2384  0.1149 -0.1996
 5015W        W 9066   8.257   6.436   9.438 -0.0942 -0.0874  0.1592
 5016W        W 9067   0.625   1.585   4.081  0.0539  0.0086  0.0016
 5017W        W 9068   6.585   8.529   1.701 -0.2048  0.1314  0.0917
 5018W        W 9069   8.571   5.240  12.602  0.1462 -0.1803  0.0628
 5019W        W 9070   4.376   5.957  12.279 -0.1913 -0.3067  0.2132
 5020W        W 9071  10.155   4.593  10.650 -0.1372 -0.1205  0.1561
 5021W        W 9072   9.726   5.463  12.092  0.2108 -0.0299 -0.0108
 5022W        W 9073   2.890   2.054   0.226  0.0089 -0.1194 -0.1750
 5023W        W 9074   9.718   4.204   0.199  0.0352  0.0753  0.0228
 5024W        W 9075   4.161   2.309   4.163  0.1492  0.1538  0.1361
 5025W        W 9076   9.447   5.122   5.343  0.3442 -0.2149 -0.0141
 5026W        W 9077   3.077   7.208  10.380  0.0658 -0.0599 -0.1283
 5027W        W 9078   7.699   4.879   2.521 -0.0276 -0.1013  0.3254
 5028W        W 9079   8.383   8.694   0.721  0.0839  0.1477  0.0367
 5029W        W 9080   5.379   5.040  13.852 -0.0231 -0.0123  0.1803
 5030W        W 9081   4.029   1.622   1.980 -0.2028  0.0442  0.1564
 5031W        W 9082   0.502   7.180  13.922 -0.1432 -0.2703  0.0767
 5032W        W 9083   6.648   1.802  11.201  0.1471  0.0350 -0.0716
 5033W        W 9084   7.454   6.525   2.192 -0.0656 -0.1885 -0.1225
 5034W        W 9085   9.613   5.692   2.334 -0.3862  0.0279 -0.1014
 5035W        W 9086   1.897   2.141  10.869  0.1843  0.1390  0.3668
 5036W        W 9087   9.470   7.948  11.223 -0.5915 -0.1359  0.1023
 5037W        W 9088   7.963   2.098  11.015  0.2592  0.1295  0.0540
 5038W        W 9089   8.483   5.220  13.387 -0.0254 -0.1445 -0.1574
 5039W        W 9090   6.640   5.660   5.020  0.2674  0.2029 -0.1793
 5040W        W 9091   3.816   8.378  12.919 -0.0086 -0.1585  0.0041
 5041W        W 9092   7.713   5.035   3.077 -0.1864  0.1134 -0.1439
 5042W        W 9093   7.181   9.278   9.259  0.0283  0.0400  0.2316
 5043W        W 9094   3.655   2.941  12.556  0.0051  0.1542  0.0866
 5044W        W 9095   4.526   1.405   2.980 -0.2807 -0.1047  0.2356
 5045W        W 9096   3.590   2.635   3.124 -0.1340  0.1074 -0.1064
 5046W        W 9097   7.698   4.114   4.255 -0.1526  0.5041  0.1252
 5047W        W 9098   8.573   9.930  12.692  0.2306 -0.1290 -0.0824
 5048W        W 9099   5.403   3.602  10.661  0.0583 -0.0296  0.0758
 5049W        W 9100   2.306   2.636   3.578  0.0874 -0.1081 -0.0484
 5050W        W 9101   3.663   0.139   0.760 -0.0128 -0.0173  0.2132
 5051W        W 9102   0.409   2.722  13.325 -0.2101 -0.5350 -0.1673
 5052W        W 9103   9.341   5.262   1.912 -0.1231  0.3660 -0.0416
 5053W        W 9104   4.216   5.602   4.210  0.2505 -0.1123  0.1032
 5054W        W 9105   7.818   3.278  11.926 -0.0539  0.0360  0.2432
 5055W        W 9106   9.329   4.098   1.212 -0.1297  0.0617  0.0899
 5056W        W 9107   9.357   4.630  13.417  0.0440 -0.1882 -0.1856
 5057W        W 9108   5.228   8.492   4.113 -0.1776  0.1696  0.3979
 5058W        W 9109   1.113  10.051  13.367  0.1983  0.1526 -0.0774
 5059W        W 9110   5.381   7.163  10.956  0.3007  0.2415  0.0531
 5060W        W 9111   4.648   1.738  13.534 -0.0889  0.2099  0.1110
 5061W        W 9112   1.069   8.281  10.324  0.0794 -0.0557 -0.2965
 5062W        W 9113   1.816   1.519   9.618  0.0737  0.2353  0.1127
 5063W        W 9114   4.739   7.122   0.139  0.1728  0.2205  0.2516
 5064W        W 9115   7.702   1.351   0.147  0.1240 -0.0418  0.0354
 5065W        W 9116   7.169   5.455   3.723 -0.2122 -0.3746  0.0552
 5066W        W 9117   9.850   4.007   3.736 -0.1664 -0.0262  0.0834
 5067W        W 9118   6.271   0.192  10.973 -0.0332 -0.0449  0.0906
 5068W        W 9119   8.489   3.759  13.555 -0.1713 -0.1459  0.1914
 5069W        W 9120   7.453   3.353  12.995 -0.2686  0.0262  0.2198
 5070W        W 9121   9.395   9.867  12.358 -0.2128  0.1128  0.0195
 5071W        W 9122   5.625   2.324   0.267  0.2220 -0.1043 -0.2400
 5072W        W 9123   9.109   8.262  11.257 -0.2964  0.0725 -0.0177
 5073W        W 9124   7.134   7.776  10.047 -0.0393 -0.2013  0.1149
 5074W        W 9125   1.874   4.204   2.368 -0.0249  0.0260  0.0435
 5075W        W 9126   2.771   6.999  13.042 -0.0558  0.1105  0.1650
 5076W        W 9127   8.136   2.967  10.876 -0.2490  0.0927  0.1973
 5077W        W 9128   5.460   5.799  11.976  0.3495  0.1989  0.1727
 5078W        W 9129   6.274   3.999  10.058 -0.0559 -0.2484  0.1071
 5079W        W 9130   5.055   4.015   9.744  0.0379  0.2439 -0.0704
 5080W        W 9131   9.375   0.657  12.243  0.0812  0.0755 -0.1065
 5081W        W 9132   3.911   2.421   5.684  0.1748 -0.3309 -0.2089
 5082W        W 9133   1.834   6.648   4.831  0.2367 -0.1167 -0.1304
 5083W        W 9134   5.420   0.006   0.698 -0.0332 -0.0133  0.2191
 5084W        W 9135   4.669   7.566  13.904  0.1522 -0.2227 -0.1186
 5085W        W 9136  10.149   4.827   0.590  0.1853  0.1019 -0.2082
 5086W        W 9137   8.591   5.307   0.383  0.2878  0.3564  0.2796
 5087W        W 9138   5.410   4.741   4.352 -0.1617  0.1466 -0.1170
 5088W        W 9139   8.014   3.628   1.793  0.0241 -0.1000 -0.1612
 5089W        W 9140   5.566   9.149   2.272  0.1539 -0.3622 -0.0820
 5090W        W 9141   2.911   7.407   3.037 -0.1398 -0.0516 -0.2788
 5091W        W 9142   5.052   6.564  10.453 -0.0095  0.1056  0.1862
 5092W        W 9143   3.725   0.295   2.431  0.1677  0.1952  0.2104
 5093W        W 9144   6.172   4.083  13.854 -0.2811 -0.0966 -0.2442
 5094W        W 9145   3.138   4.610   4.169  0.4376 -0.1569 -0.3962
 5095W        W 9146   6.772   5.407  13.116 -0.0835  0.0217  0.0795
 5096W        W 9147   4.693   5.648   2.305 -0.2890 -0.0143  0.1721
 5097W        W 9148   6.852   3.185   2.931  0.1071 -0.1191  0.0727
 5098W        W 9149   2.719   3.593  11.734 -0.0066 -0.1397 -0.0401
 5099W        W 9150   4.004   5.291   3.801 -0.1829  0.1898  0.1934
 5100W        W 9151   6.267   7.916   9.707  0.0565  0.0766  0.2027
 5101W        W 9152   4.428   5.498   0.711  0.5048  0.0572  0.0074
 5102W        W 9153   9.901   0.015   1.664 -0.1055 -0.1062  0.1348
 5103W        W 9154   0.511   8.225  13.119  0.2791 -0.1418 -0.2499
 5104W        W 9155   8.160   0.847  12.625  0.0982  0.2915  0.1684
 5105W        W 9156   8.543   5.910  13.700 -0.0045  0.3824 -0.0662
 5106W        W 9157   6.024   2.912  11.752  0.0340 -0.2155 -0.1076
 5107W        W 9158   0.598   2.934   3.725  0.1241 -0.1626  0.0291
 5108W        W 9159   1.745   9.041   2.851 -0.1021 -0.0100 -0.1773
 5109W        W 9160   7.088   8.976  11.333  0.3000  0.0573  0.0190
 5110W        W 9161   6.704   7.516   3.783  0.1348  0.0583  0.2802
 5111W        W 9162   5.364   6.189   4.614  0.1008 -0.1502 -0.0448
 5112W        W 9163   0.215   5.065   9.974 -0.0960  0.1342 -0.0944
 5113W        W 9164   0.687   1.012   1.530 -0.2214 -0.2431 -0.0893
 5114W        W 9165   4.721   3.055   3.852  0.0907 -0.0111 -0.0532
 5115W        W 9166   6.684   7.017  13.350 -0.0119 -0.2367 -0.1826
 5116W        W 9167   3.053   4.330   5.377  0.0265 -0.0628  0.1139
 5117W        W 9168   7.847   9.965  12.023  0.2482  0.0225 -0.1320
 5118W        W 9169   5.627   4.963  12.443  0.1363 -0.0918  0.0072
 5119W        W 9170   8.794   3.398   0.387 -0.0235  0.0719  0.2151
 5120W        W 9171   9.778   3.419  10.241  0.2664 -0.2074 -0.1466
 5121W        W 9172   3.110   9.406  12.240 -0.1910  0.3889 -0.2498
 5122W        W 9173   8.144   0.353  11.989 -0.0525  0.2536  0.0612
 5123W        W 9174   1.906   6.573  12.183  0.3531 -0.0574  0.2186
 5124W        W 9175   6.819   3.665   4.402 -0.0721  0.0451  0.1262
 5125W        W 9176   4.534   4.658   0.790 -0.1326 -0.1256  0.0301
 5126W        W 9177   7.199   1.597   4.150  0.3160 -0.3737  0.4805
 5127W        W 9178   6.520   0.418   4.243 -0.1583  0.2900 -0.3106
 5128W        W 9179   2.578   5.341  12.434 -0.1252  0.3249  0.0675
 5129W        W 9180   7.285   6.273  12.373  0.0168 -0.1966  0.1356
 5130W        W 9181   5.943   2.326   1.564  0.1450  0.0341 -0.0401
 5131W        W 9182   7.746   1.542   9.404  0.0059  0.0148  0.0800
 5132W        W 9183   1.536   0.053   1.491  0.1638  0.0508  0.1026
 5133W        W 9184   4.857   5.709   1.055 -0.1327  0.1731  0.0647
 5134W        W 9185   6.317   5.809   0.660  0.4216 -0.2516  0.0337
 5135W        W 9186   1.707   7.632   0.645 -0.2320  0.1101  0.1919
 5136W        W 9187   3.192   0.244   0.989 -0.0036 -0.2721 -0.3644
 5137W        W 9188   8.515   1.559  12.400  0.0876 -0.3885 -0.0726
 5138W        W 9189   9.261   3.514   4.290 -0.0796 -0.0961 -0.0814
 5139W        W 9190   0.193   8.236   1.702  0.2419 -0.2877 -0.1169
 5140W        W 9191   5.231   2.750   0.218 -0.3253  0.1550  0.0859
 5141W        W 9192   2.831   8.263   2.841  0.0613 -0.1392 -0.2076
 5142W        W 9193   5.483   8.626   1.190  0.1777  0.1158  0.0642
 5143W        W 9194  10.010   3.009  11.262  0.0691 -0.0236  0.3298
 5144W        W 9195   5.780   4.779  11.929 -0.1388  0.0827 -0.1313
 5145W        W 9196   1.265   3.113  10.265 -0.0711 -0.1166  0.0547
 5146W        W 9197   4.570   5.423   4.933  0.0609 -0.0319 -0.0176
 5147W        W 9198   3.627   5.407   1.928 -0.2195 -0.0979 -0.0188
 5148W        W 9199   5.442   3.863   0.430 -0.0114  0.1972 -0.0212
 5149W        W 9200   2.098   5.283   2.244 -0.0656 -0.2137  0.2207
 5150W        W 9201   8.647   6.263  13.355  0.1025 -0.0983 -0.2856
 5151W        W 9202   7.187   4.236   2.937  0.4857  0.1284  0.1610
 5152W        W 9203   6.378   2.556   1.558  0.0233  0.1495  0.0623
 5153W        W 9204   2.399   1.012  11.376 -0.1794  0.2706 -0.0323
 5154W        W 9205   5.363   3.099   3.903 -0.3155 -0.1378 -0.0507
 5155W        W 9206   2.091   4.608   2.211  0.1207  0.0595 -0.0524
 5156W        W 9207   9.113   8.924   0.316  0.0705  0.1722 -0.1605
 5157W        W 9208   8.953   4.176   3.796 -0.1813 -0.1840 -0.1895
 5158W        W 9209   7.700   0.621  12.732 -0.1185 -0.3212 -0.3294
 5159W        W 9210   8.079   6.702  12.590  0.1799  0.1497 -0.0577
 5160W        W 9211   7.810   0.752   9.180 -0.0115 -0.1734  0.0543
 5161W        W 9212   7.340   1.332  11.269 -0.2984 -0.0947 -0.2557
 5162W        W 9213   0.863   5.138  11.790  0.1108  0.1918 -0.0466
 5163W        W 9214   8.087   4.145   0.472  0.0716  0.2915 -0.0862
 5164W        W 9215   9.262   5.154   3.691 -0.1503  0.1113 -0.1145
 5165W        W 9216   4.522   7.699  10.148  0.1798 -0.2670 -0.0569
 5166W        W 9217   7.350   1.501  13.027 -0.1275  0.0965 -0.1394
 5167W        W 9218   9.326   7.849   2.546  0.0531  0.2612 -0.1927
 5168W        W 9219   7.265   3.926   2.412 -0.0382 -0.0337  0.0523
 5169W        W 9220   2.600   3.716  11.214 -0.1018 -0.1088  0.1720
 5170W        W 9221   8.247   5.255  11.472  0.5423 -0.2451 -0.1230
 5171W        W 9222   6.170   5.800   9.192 -0.0584 -0.0035 -0.0922
 5172W        W 9223   5.691   6.752  10.931  0.0966 -0.1307  0.0929
 5173W        W 9224   9.480   0.651  10.176 -0.1415 -0.0186  0.1004
 5174W        W 9225   4.438   4.774  13.967 -0.2528 -0.0158 -0.0954
 5175W        W 9226   5.013   4.200   1.489  0.0429  0.2717  0.1703
 5176W        W 9227   3.595   5.301   4.630 -0.4353  0.1023 -0.3518
 5177W        W 9228   5.199   7.432   1.788 -0.1364 -0.1253  0.1514
 5178W        W 9229   7.630   1.694   3.079 -0.0579  0.0253 -0.0661
 5179W        W 9230   9.432   4.724   4.499 -0.1208 -0.5508 -0.0436
 5180W        W 9231   0.526   5.074   1.140 -0.0510  0.1800  0.1378
 5181W        W 9232   8.047   9.641   3.577  0.0419 -0.0776 -0.0610
 5182W        W 9233   3.971   1.028   0.009  0.0827 -0.0277  0.0792
 5183W        W 9234   8.474   0.918   0.437  0.0816  0.0699 -0.1065
 5184W        W 9235   0.889   8.791   2.053  0.3394  0.2459  0.2396
 5185W        W 9236   5.733   8.807  12.516  0.2567 -0.1011 -0.0522
 5186W        W 9237   7.545   2.610   4.880  0.0875 -0.0175  0.1563
 5187W        W 9238   6.649  10.131   2.522 -0.0171  0.1882 -0.0074
 5188W        W 9239   8.045   4.041  12.791  0.0966  0.1309  0.0458
 5189W        W 9240   5.770   1.885   1.835  0.1819 -0.1862 -0.1607
 5190W        W 9241   3.901   3.028   3.310 -0.1775 -0.0658 -0.1505
 5191W        W 9242   8.637   1.126  12.668 -0.3617  0.1535 -0.3694
 5192W        W 9243   1.499   5.169   5.625  0.1528 -0.0857  0.1033
 5193W        W 9244   5.017   9.549  11.055  0.1818 -0.0774  0.2645
 5194W        W 9245   7.121   4.587  12.313  0.1217 -0.0760  0.1374
 5195W        W 9246   3.763   8.754  12.604 -0.0558 -0.0528 -0.2191
 5196W        W 9247   6.080   8.899  13.978  0.0651  0.0726  0.1865
 5197W        W 9248   6.979   9.720   2.775 -0.0875  0.0583  0.4967
 5198W        W 9249   7.540   3.320   1.057 -0.1372 -0.1760  0.0596
 5199W        W 9250   2.912   1.965   4.031  0.0889 -0.2859 -0.0412
 5200W        W 9251   6.838   7.392  11.436 -0.1024  0.0670  0.2633
 5201W        W 9252   3.881   2.587  12.291 -0.0277  0.2228 -0.3295
 5202W        W 9253   5.261   0.406  13.107  0.0079 -0.4929 -0.2113
 5203W        W 9254   3.959   0.566  10.919  0.2100  0.1323  0.0277
 5204W        W 9255   9.880   2.498   9.654 -0.0137 -0.0138  0.0851
 5205W        W 9256   3.530   4.517   1.067 -0.3748 -0.0838  0.2959
 5206W        W 9257   5.834   9.035   5.240 -0.0791  0.0719  0.0020
 5207W        W 9258   8.767   7.098  13.123 -0.0115  0.1195  0.2318
 5208W        W 9259   1.639   4.188   5.298  0.1672  0.1154  0.0970
 5209W        W 9260   9.812   2.330  13.888  0.0034 -0.0715  0.3441
 5210W        W 9261   9.345   5.955   0.738 -0.1979 -0.5408  0.0635
 5211W        W 9262   9.330   6.376  12.852  0.1947 -0.4183  0.0753
 5212W        W 9263   5.389   3.138   2.146 -0.1438  0.0242 -0.1000
 5213W        W 9264   6.639   3.508  10.936 -0.0849  0.2162  0.0799
 5214W        W 9265   8.097   7.014   3.948  0.3403 -0.0085 -0.1555
 5215W        W 9266   0.915   2.981  11.832 -0.1633  0.0372 -0.0078
 5216W        W 9267   9.635   4.525  12.385  0.1536  0.0058 -0.0674
 5217W        W 9268   0.765   7.957  10.569  0.1375 -0.2411  0.1052
 5218W        W 9269   3.897   5.723  11.601  0.0347 -0.0388 -0.1949
 5219W        W 9270   3.449   0.683   3.527  0.1323  0.0013  0.1584
 5220W        W 9271   9.967   3.692   4.305  0.1484  0.1639 -0.0143
 5221W        W 9272   9.668   3.171   1.843 -0.2208 -0.0243  0.0597
 5222W        W 9273   2.175   5.902  13.453  0.1805 -0.1247  0.1339
 5223W        W 9274   4.745   7.469   0.997 -0.1712 -0.0158 -0.1120
 5224W        W 9275   6.387   6.312  12.259  0.0101  0.0504 -0.1087
 5225W        W 9276   9.645   5.461  13.467  0.0490  0.2582  0.3231
 5226W        W 9277   7.649   4.486  12.714  0.1053 -0.2930  0.1112
 5227W        W 9278   2.662   1.650   2.661  0.0705 -0.0145 -0.1197
 5228W        W 9279   5.267   5.109  11.426 -0.0622  0.1522  0.0612
 5229W        W 9280   7.899   8.031   0.896 -0.0613  0.1483  0.2894
 5230W        W 9281   3.960   6.849  12.408  0.0902 -0.1167 -0.0859
 5231W        W 9282   3.296   2.495  12.376 -0.0547  0.0989  0.2084
 5232W        W 9283   0.017   1.889   2.226  0.1232  0.0767 -0.0285
 5233W        W 9284   6.369   2.528  11.670 -0.1697  0.1286  0.0052
 5234W        W 9285   1.391   4.003   3.943  0.0130  0.1571  0.1748
 5235W        W 9286   8.223   3.512  11.720 -0.0755  0.3794  0.0832
 5236W        W 9287   8.000   3.794   4.029  0.0058 -0.0819  0.0470
 5237W        W 9288   4.066   0.576   3.397 -0.0697  0.0614 -0.2909
 5238W        W 9289   8.950   2.200   9.898 -0.0204 -0.2511  0.1211
 5239W        W 9290   3.569  10.024  12.027 -0.1155 -0.0503 -0.1731
 5240W        W 9291   7.437   7.389  10.498  0.0078  0.0769  0.1450
 5241W        W 9292   1.121   8.771  11.795 -0.1679  0.2493 -0.0749
 5242W        W 9293   1.954   8.725   1.559 -0.2871  0.3335 -0.1157
 5243W        W 9294   0.701   6.841   2.153 -0.1177 -0.2641  0.3235
 5244W        W 9295   1.732   6.752   1.398  0.2656 -0.0979 -0.0680
 5245W        W 9296   7.610   3.880  13.076  0.0538  0.1414 -0.0805
 5246W        W 9297   2.853   2.612  13.923  0.0406  0.1112  0.1400
 5247W        W 9298   2.621   4.489   4.347 -0.0232  0.0585  0.0594
 5248W        W 9299   3.022   3.799   0.305 -0.0355 -0.1182 -0.0331
 5249W        W 9300   4.266   5.856   2.351 -0.0340  0.1921  0.1479
 5250W        W 9301   1.062   6.327   1.494  0.0658  0.2928 -0.5109
 5251W        W 9302   9.159   7.011   4.056  0.0108  0.1484 -0.1808
 5252W        W 9303   4.218   7.353   0.840  0.0988 -0.3511 -0.1630
 5253W        W 9304   7.710   2.151   4.871  0.0655  0.0355  0.1121
 5254W        W 9305   8.757  10.077   3.442  0.0874 -0.1831 -0.1083
 5255W        W 9306   3.775   4.548  10.075 -0.0196 -0.3148 -0.2177
 5256W        W 9307   9.443   4.337   3.690 -0.2421  0.0968 -0.2099
 5257W        W 9308   1.489   6.844   4.459 -0.0726 -0.3672 -0.3052
 5258W        W 9309   1.871   2.822   0.107  0.0153 -0.3734  0.1117
 5259W        W 9310   9.368   8.634  10.125  0.0909  0.1118 -0.1239
 5260W        W 9311   7.634   8.982  11.310 -0.0565 -0.0304 -0.0764
 5261W        W 9312   0.156   8.140   0.857  0.0007  0.2199 -0.0003
 5262W        W 9313   9.562   2.586   2.086 -0.2143  0.3289  0.1731
 5263W        W 9314   0.879   7.337  12.536 -0.4249  0.0936  0.0526
 5264W        W 9315   8.827   7.146   1.224 -0.0690  0.1191 -0.2035
 5265W        W 9316   2.884   2.004   2.934  0.2098 -0.1944 -0.1336
 5266W        W 9317   8.043   0.710  13.113 -0.0171  0.4077  0.4107
 5267W        W 9318   7.980   6.149  12.684 -0.2984 -0.0096  0.0608
 5268W        W 9319   0.265   4.619   4.402 -0.0079 -0.0008 -0.0515
 5269W        W 9320   1.767   0.765  10.586 -0.0556  0.1146  0.2955
 5270W        W 9321   4.880   6.931   1.005 -0.0741  0.2032  0.1284
 5271W        W 9322   3.884   5.822   3.868  0.0053 -0.1246  0.0174
 5272W        W 9323   6.082   5.790   2.661  0.0990  0.2864  0.1386
 5273W        W 9324   5.723   9.686  10.542  0.1023  0.1305  0.0889
 5274W        W 9325   2.874   5.130  10.353  0.0153 -0.1217 -0.1304
 5275W        W 9326   8.563   9.701   3.774  0.1689  0.0475 -0.0434
 5276W        W 9327   9.463   9.056   3.055  0.0209 -0.1514 -0.2706
 5277W        W 9328   9.690   5.572   1.747 -0.0023 -0.1830 -0.1206
 5278W        W 9329   8.319   2.122  13.997 -0.0190 -0.0873  0.0410
 5279W        W 9330   7.194   7.255   9.193  0.0811  0.1293 -0.0078
 5280W        W 9331   3.178   2.488  10.134 -0.0872 -0.0232  0.0748
 5281W        W 9332   5.128   5.884   2.239  0.1496 -0.2368  0.1639
 5282W        W 9333   0.035   1.309  13.661  0.2902 -0.2219  0.2921
 5283W        W 9334   5.325   5.862   5.014  0.0482  0.0061 -0.1612
 5284W        W 9335   5.252   6.483   2.749  0.2821 -0.0874  0.4019
 5285W        W 9336   5.167   6.703  10.876  0.2279  0.0689 -0.0549
 5286W        W 9337   8.511   7.725   4.226 -0.1006  0.0840  0.1971
 5287W        W 9338   1.460   4.672  13.789 -0.0973 -0.0933  0.0472
 5288W        W 9339   3.026   3.889  12.709  0.0196 -0.0138  0.0957
 5289W        W 9340   3.627   2.690   9.442  0.3284  0.0587 -0.0005
 5290W        W 9341   4.153   1.018  10.003 -0.0297 -0.0610 -0.0304
 5291W        W 9342   8.382   3.034  13.814 -0.0670 -0.2325  0.1058
 5292W        W 9343   5.699   3.117   4.895  0.1153  0.0016  0.0515
 5293W        W 9344   1.033   1.362   9.852  0.4618 -0.4310  0.0810
 5294W        W 9345   3.561   1.250   1.426 -0.1730  0.1171 -0.0529
 5295W        W 9346   5.242   7.333   2.559  0.0722 -0.2390  0.1275
 5296W        W 9347   0.387   5.435   4.435 -0.5221 -0.0125  0.2201
 5297W        W 9348   2.544   6.626  13.984  0.2196  0.0109 -0.1237
 5298W        W 9349   7.554   0.098   1.589  0.0172 -0.1149 -0.3021
 5299W        W 9350   8.883   5.450   3.990 -0.0153  0.5298 -0.0889
 5300W        W 9351   0.542   1.467  11.255 -0.0858  0.2993  0.0936
 5301W        W 9352   6.074   9.632   5.181  0.2449  0.0617  0.0774
 5302W        W 9353   5.700   4.504  13.831  0.2168 -0.2219  0.0114
 5303W        W 9354   2.873   4.141  11.251 -0.2195 -0.3430 -0.2017
 5304W        W 9355   8.745   4.873  11.201 -0.1145 -0.1439  0.0751
 5305W        W 9356   0.359   7.673   1.933 -0.1417 -0.0115  0.2143
 5306W        W 9357   3.398   7.753   0.392  0.2215 -0.1096  0.0397
 5307W        W 9358   1.274   3.261   1.483  0.2400 -0.1094 -0.0555
 5308W        W 9359   0.396   6.412  13.903 -0.1873  0.3185  0.2354
 5309W        W 9360   8.024   7.526   0.950  0.0584  0.0681 -0.0338
 5310W        W 9361   6.364   8.098   1.483 -0.3106  0.1562  0.0681
 5311W        W 9362   5.884   2.447  11.583 -0.0820 -0.0072  0.1517
 5312W        W 9363   5.464   5.816   1.004  0.0056 -0.0197  0.1559
 5313W        W 9364   5.599   5.172   4.431 -0.1558  0.2741 -0.0298
 5314W        W 9365   8.900   0.894   1.622  0.0413  0.3321  0.1364
 5315W        W 9366   4.670   0.815   9.909 -0.0816 -0.2916 -0.1221
 5316W        W 9367   7.691   0.542   2.354 -0.1391 -0.0778 -0.1326
 5317W        W 9368   5.582   3.381  13.949 -0.0601  0.1589  0.0854
 5318W        W 9369   2.214   6.917   2.433  0.0469 -0.0756 -0.0650
 5319W        W 9370   4.332   9.332  11.986 -0.3163 -0.3638 -0.1134
 5320W        W 9371   7.474   9.992  12.907 -0.0399 -0.2601  0.1811
 5321W        W 9372   1.333   7.419  13.703 -0.1140  0.3487 -0.2556
 5322W        W 9373   6.601   6.040  10.932  0.0206 -0.2516  0.0890
 5323W        W 9374  10.094   0.409   0.528  0.4644 -0.0311 -0.3996
 5324W        W 9375   6.357   9.478   1.944 -0.1134  0.0063  0.0248
 5325W        W 9376   2.877   3.320   1.159 -0.4814  0.1264 -0.0269
 5326W        W 9377   9.948   0.200  11.683 -0.0948  0.0298 -0.3215
 5327W        W 9378   4.160   9.994  10.349  0.2767  0.0817  0.3263
 5328W        W 9379   7.125   3.997  10.414  0.0406  0.1100 -0.0731
 5329W        W 9380   6.201   9.529   4.351  0.4156 -0.1074  0.3351
 5330W        W 9381   1.936   4.818  12.978 -0.1596 -0.1149 -0.1205
 5331W        W 9382   4.564   7.663   0.589 -0.3093 -0.4444  0.2480
 5332W        W 9383   4.004   2.870   9.669 -0.1094 -0.2997  0.0048
 5333W        W 9384   0.256   2.352   1.983  0.0254  0.2241  0.1836
 5334W        W 9385   2.850   3.732   4.893 -0.1416  0.0799  0.1416
 5335W        W 9386   0.797   0.647  13.750 -0.0437  0.2919  0.1332
 5336W        W 9387   4.388   2.121  12.684  0.3764  0.2012 -0.3046
 5337W        W 9388   2.401   2.846  10.631  0.1926  0.4056 -0.1471
 5338W        W 9389   6.623   5.047  13.357 -0.3261  0.1696 -0.1260
 5339W        W 9390   2.367   4.727  11.902 -0.1073  0.3048  0.1451
 5340W        W 9391   0.554   7.824   1.522 -0.2364  0.1895  0.2129
 5341W        W 9392   9.264   1.002  13.646 -0.0680 -0.2773  0.1085
 5342W        W 9393   8.523   9.482  12.331  0.1752 -0.1032 -0.0022
 5343W        W 9394   0.405   7.682  12.423 -0.0601 -0.2600  0.1533
 5344W        W 9395   6.463   7.142   2.638  0.1365 -0.0731  0.0727
 5345W        W 9396   0.171   6.156   0.877  0.2200  0.1337  0.1478
 5346W        W 9397   8.484  10.160   0.016  0.2108 -0.1268  0.0712
 5347W        W 9398   6.482   2.266  10.937  0.0712  0.1032  0.2393
 5348W        W 9399   6.984   5.037   9.113  0.0099  0.2010 -0.0067
 5349W        W 9400   5.970   6.468   3.932 -0.1814 -0.1615  0.0196
 5350W        W 9401   0.372   7.443   0.944  0.0114 -0.1019  0.2080
 5351W        W 9402   2.794   5.329  14.011  0.2126  0.2503  0.2228
 5352W        W 9403   0.674   4.603  11.650 -0.0280 -0.1681 -0.1990
 5353W        W 9404   5.671   9.235  12.201  0.2593  0.6768  0.1091
 5354W        W 9405   0.779   3.257  13.899  0.0162 -0.1954 -0.0445
 5355W        W 9406   1.466   0.236  10.610 -0.5383  0.0167  0.0631
 5356W        W 9407   8.154   8.620   2.055  0.0806  0.1610 -0.2710
 5357W        W 9408   5.916  10.108  10.253  0.4165 -0.2311  0.2324
 5358W        W 9409   5.884   0.513   9.033 -0.0979  0.0006 -0.0080
 5359W        W 9410   6.721   0.196  11.890  0.0550 -0.0293 -0.2094
 5360W        W 9411   9.817   9.288   0.767  0.4191 -0.1524 -0.2181
 5361W        W 9412   8.129   9.541  12.014  0.1097  0.0365 -0.2172
 5362W        W 9413   8.935   4.794   4.647  0.3755  0.0917  0.6136
 5363W        W 9414   7.066   7.230   1.865  0.0064  0.0753 -0.0373
 5364W        W 9415   2.702   7.781   1.018 -0.0805 -0.1229  0.3230
 5365W        W 9416   4.742   5.150   0.953 -0.1621  0.0080 -0.0768
 5366W        W 9417   9.903   8.713  10.353 -0.1832 -0.0583  0.1791
 5367W        W 9418   2.957   5.669   2.956 -0.1513 -0.0452  0.0435
 5368W        W 9419   2.160   7.705   3.355 -0.0493 -0.2034 -0.4014
 5369W        W 9420   5.202   9.682   2.962  0.2287  0.1497 -0.0477
 5370W        W 9421   8.041   9.121  11.626  0.1170  0.0175  0.1108
 5371W        W 9422   6.211   7.409   1.824  0.0206 -0.2004  0.1984
 5372W        W 9423   4.584   6.452  11.787 -0.2201  0.2461  0.2428
 5373W        W 9424   4.108   3.850   3.364  0.1234  0.1717 -0.2353
 5374W        W 9425   0.993   6.346  11.532  0.1460  0.1565 -0.0640
 5375W        W 9426   8.077   8.265  11.690 -0.1589 -0.0914 -0.0710
 5376W        W 9427   2.410   5.923   4.275  0.0961  0.4193 -0.2808
 5377W        W 9428   0.732   8.874  13.276 -0.3845  0.0304 -0.1970
 5378W        W 9429   9.213   6.947   0.583  0.0242 -0.2095 -0.2620
 5379W        W 9430   6.980   8.669   2.891  0.1957 -0.1127  0.0066
 5380W        W 9431   9.059   0.629   0.754 -0.2085  0.0764  0.0992
 5381W        W 9432   7.392   3.773   5.632 -0.1914  0.2062 -0.0663
 5382W        W 9433   7.167   0.843   9.129  0.0661  0.2356  0.2541
 5383W        W 9434   2.759   2.499  12.480  0.1159  0.4055  0.0752
 5384W        W 9435   8.610   4.439  13.714  0.1304 -0.0237  0.2100
 5385W        W 9436   8.340   1.153   2.713  0.1488 -0.0590  0.1651
 5386W        W 9437   0.349   0.161  10.987 -0.1137 -0.1859 -0.1727
 5387W        W 9438   7.514   7.283  11.439  0.2103  0.0878 -0.3358
 5388W        W 9439   9.493   6.972   4.990  0.1582 -0.2124 -0.2078
 5389W        W 9440   9.626   8.376   9.384 -0.0359  0.1886  0.1911
 5390W        W 9441   7.328   3.338   5.174 -0.0833 -0.0980 -0.1479
 5391W        W 9442   0.833   0.597   2.029  0.0578 -0.0573  0.2017
 5392W        W 9443   7.268   9.430   3.464  0.2846 -0.2400 -0.2859
 5393W        W 9444   6.542   7.063   4.139 -0.2118 -0.1840  0.0261
 5394W        W 9445   0.720   3.960   3.965  0.1731 -0.0415 -0.0627
 5395W        W 9446   9.904   1.484   2.227 -0.4180 -0.1989  0.1919
 5396W        W 9447   8.051   2.660   9.721  0.1274  0.0354  0.3239
 5397W        W 9448   5.333   9.226  11.344 -0.1733 -0.0959  0.1276
 5398W        W 9449   9.483   8.955  10.598  0.3005 -0.0456 -0.0318
 5399W        W 9450  10.042   4.768   1.305 -0.2712 -0.0507  0.1711
 5400W        W 9451   0.037   1.696   1.172 -0.4723 -0.0680  0.0261
 5401W        W 9452   0.258   9.430   0.941 -0.1465  0.1860  0.3105
 5402W        W 9453   8.704   3.193  11.712 -0.3455 -0.0014 -0.3974
 5403W        W 9454   4.214   8.121   2.263  0.1139  0.1828 -0.2271
 5404W        W 9455   5.182   1.228   5.138  0.0006  0.0956  0.1923
 5405W        W 9456   3.871   6.375   5.064 -0.0498  0.1890 -0.0514
 5406W        W 9457   6.205   4.208  12.354 -0.1699 -0.0378 -0.0926
 5407W        W 9458   5.169   6.856   2.431  0.1195 -0.2901 -0.0845
 5408W        W 9459   7.904   5.693   1.229 -0.1332 -0.2243  0.0713
 5409W        W 9460   5.908   4.533  12.534  0.2745  0.1019 -0.0839
 5410W        W 9461   6.414   0.465  13.072  0.2839 -0.3019 -0.0155
 5411W        W 9462   1.470   9.228  12.155  0.0586  0.2953 -0.3166
 5412W        W 9463   8.577   0.659  10.302  0.2363  0.1663 -0.0081
 5413W        W 9464   1.550   6.637  11.367 -0.0600  0.2517  0.1888
 5414W        W 9465   9.186   3.461   1.778  0.0960  0.0458  0.0538
 5415W        W 9466   1.762   4.713  10.728  0.1829  0.0193 -0.0728
 5416W        W 9467   0.723   1.053  10.821  0.0811 -0.4722  0.0527
 5417W        W 9468  10.026   4.810   9.668 -0.0469 -0.1479 -0.2577
 5418W        W 9469   5.246   5.085   1.077  0.1549 -0.1563 -0.0669
 5419W        W 9470   0.068   8.260  13.441  0.3283  0.5162  0.0208
 5420W        W 9471   0.390   1.700   0.781 -0.1124 -0.1498 -0.2398
 5421W        W 9472   5.420   8.462  10.432  0.3647  0.1682  0.0639
 5422W        W 9473   5.238   2.040  11.238  0.1426 -0.0450  0.1432
 5423W        W 9474   7.484   0.757   9.999 -0.0499 -0.2145  0.0785
 5424W        W 9475   9.179   3.839  12.491 -0.2097 -0.0754 -0.1304
 5425W        W 9476   0.218   9.140  10.736 -0.3857  0.1337 -0.3204
 5426W        W 9477   9.929   0.465  10.345 -0.1362 -0.0905 -0.0633
 5427W        W 9478   9.862   5.145  11.086 -0.2033  0.0929 -0.1250
 5428W        W 9479   1.014   6.490   0.578  0.1486  0.1668 -0.2402
 5429W        W 9480   8.665   6.495   8.997  0.0473  0.2422 -0.2240
 5430W        W 9481   5.028   2.355  13.240 -0.1209  0.0665 -0.2843
 5431W        W 9482   3.203   9.931   0.258 -0.3651 -0.1568 -0.0233
 5432W        W 9483   5.554   2.771   1.466 -0.0310 -0.1519  0.1894
 5433W        W 9484   8.984   0.243   3.134 -0.0250 -0.4260 -0.1522
 5434W        W 9485   5.026   9.206  12.865 -0.0062  0.0761  0.1679
 5435W        W 9486   5.420   9.172   2.756 -0.0476 -0.4005 -0.1120
 5436W        W 9487   3.901   4.424   1.947 -0.0249 -0.3063 -0.1755
 5437W        W 9488   8.380   5.760   1.153  0.0668  0.2813 -0.0330
 5438W        W 9489   2.982   5.155   2.533  0.0929  0.0162  0.0483
 5439W        W 9490   1.124   3.708  10.916 -0.0039  0.0394 -0.1523
 5440W        W 9491   7.491   4.688   0.954  0.1265  0.2013  0.0940
 5441W        W 9492   6.793   0.380  10.836 -0.1654 -0.0987  0.1463
 5442W        W 9493   1.422   2.720   0.916  0.3049 -0.1630 -0.1121
 5443W        W 9494   5.535   8.378   4.563  0.1425 -0.2243  0.0794
 5444W        W 9495   1.483   2.264  10.685 -0.0450 -0.6147 -0.1863
 5445W        W 9496   8.633   6.138   1.335  0.0442 -0.4175  0.3701
 5446W        W 9497   1.899   5.092   0.426  0.1438 -0.0477  0.3098
 5447W        W 9498   1.451   6.738  13.791 -0.0855  0.1767 -0.0150
 5448W        W 9499   4.118   2.525   3.075  0.1478  0.1369 -0.1061
 5449W        W 9500   6.333   6.850   9.332 -0.2752  0.0206  0.1834
 5450W        W 9501   3.814   0.264   1.271  0.0883 -0.0565  0.3144
 5451W        W 9502   4.962   4.953  12.771  0.1827  0.0499  0.1205
 5452W        W 9503   4.730   1.062   5.243 -0.0979  0.0866 -0.2398
 5453W        W 9504   1.711   5.381   4.326  0.1909 -0.1586 -0.0981
 5454W        W 9505   9.228   5.877   9.303 -0.1306 -0.0522 -0.0834
 5455W        W 9506   8.715   2.293   3.644  0.0339 -0.1623  0.0103
 5456W        W 9507   4.529   9.749  13.669  0.1212  0.1594  0.1283
 5457W        W 9508   5.091   5.495   2.584 -0.2177 -0.4419  0.2175
 5458W        W 9509   9.307   1.962  13.935  0.0777  0.0840  0.2185
 5459W        W 9510   6.274   2.898  11.331 -0.0658 -0.0414  0.2083
 5460W        W 9511  10.046   3.701   0.690  0.3519  0.0666 -0.1570
 5461W        W 9512   4.163   2.200   0.704 -0.0183  0.2515  0.3163
 5462W        W 9513   1.291   3.753  13.347  0.1757  0.0332 -0.1154
 5463W        W 9514   5.199   7.540  12.284  0.0030  0.1154  0.3937
 5464W        W 9515   8.951   5.627   2.834  0.2914  0.0341  0.0856
 5465W        W 9516   2.095   5.390  13.782  0.0232  0.1014  0.0453
 5466W        W 9517   1.415   0.741  10.159  0.0810  0.0677 -0.1049
 5467W        W 9518   8.702   9.215  12.726  0.2541 -0.1427 -0.2145
 5468W        W 9519   7.294   3.327   3.123  0.1006  0.0802  0.2264
 5469W        W 9520  10.076   2.416  12.460  0.0694  0.1136  0.1573
 5470W        W 9521   5.291   4.572  12.812 -0.0665  0.0002  0.0605
 5471W        W 9522   5.726   4.837   1.494 -0.0524 -0.3262 -0.0405
 5472W        W 9523   2.459   1.193   3.889  0.3111 -0.0116 -0.2290
 5473W        W 9524   2.289   2.890   4.043  0.4899 -0.1455 -0.0367
 5474W        W 9525   5.484   0.336  11.166  0.0071 -0.0605 -0.1021
 5475W        W 9526   4.979   5.922   4.640  0.0934 -0.1605 -0.3576
 5476W        W 9527   4.550   5.213   3.997 -0.0829 -0.3154 -0.0211
 5477W        W 9528   4.507   4.942   9.110  0.1492  0.5126 -0.1711
 5478W        W 9529   7.120   9.259   4.223  0.0737 -0.1427 -0.0942
 5479W        W 9530   2.603   4.161   3.167  0.1995 -0.5452  0.3259
 5480W        W 9531   2.324   6.803  12.874  0.0558  0.0435 -0.1275
 5481W        W 9532   1.617   3.620  10.641  0.0704  0.3618 -0.3450
 5482W        W 9533   9.740   7.423  11.961  0.2394 -0.2285 -0.2622
 5483W        W 9534   3.571   3.261  12.914  0.1034 -0.0954  0.1108
 5484W        W 9535   0.350   5.853   4.214  0.3443  0.1370 -0.1668
 5485W        W 9536   4.415   2.858   5.389 -0.0660  0.1263  0.1781
 5486W        W 9537   2.230   2.226   2.007 -0.0082 -0.0202 -0.3213
 5487W        W 9538   2.997   6.957   1.887  0.0155 -0.0980  0.2766
 5488W        W 9539   8.053   9.198   8.673  0.0906 -0.1753 -0.2908
 5489W        W 9540   7.770   3.938  13.773  0.1732 -0.2783 -0.0033
 5490W        W 9541   9.877   4.491   0.918 -0.4236 -0.0642 -0.1216
 5491W        W 9542   8.391   7.924   2.036  0.1498  0.1091  0.1001
 5492W        W 9543   5.587   4.878   0.653  0.1469  0.1441 -0.1530
 5493W        W 9544   9.946   3.683   0.192 -0.0219 -0.1247  0.1947
 5494W        W 9545   7.130   6.043   4.484 -0.3015 -0.2330 -0.2274
 5495W        W 9546   3.449   1.072  13.711 -0.0298  0.2767  0.2209
 5496W        W 9547   0.865   8.637   0.300  0.4103 -0.1133  0.1728
 5497W        W 9548   3.819   6.936   2.407  0.0393  0.1197 -0.0802
 5498W        W 9549   1.852   2.531   9.816  0.0612  0.1548 -0.0449
 5499W        W 9550   8.299   2.672   1.675  0.0793  0.3827 -0.3373
 5500W        W 9551   4.123   8.763  12.186  0.2452  0.3472 -0.1644
 5501W        W 9552   1.261   9.955   2.011 -0.3135 -0.0872  0.0203
 5502W        W 9553   8.822   8.099   9.793 -0.1767 -0.1538 -0.5607
 5503W        W 9554   2.136   2.135   1.249  0.1883 -0.1180  0.2809
 5504W        W 9555   7.148   4.517  10.621 -0.0534  0.0565 -0.1931
 5505W        W 9556   6.097   4.667   1.835 -0.0619 -0.0278 -0.1184
 5506W        W 9557   6.156   9.900   1.022  0.0637 -0.1202  0.0599
 5507W        W 9558   6.909   4.688   0.823 -0.1362  0.1860 -0.0743
 5508W        W 9559   3.532   7.399  13.033  0.1459 -0.3230 -0.1336
 5509W        W 9560   9.048   8.132  11.786  0.2859  0.3820 -0.1058
 5510W        W 9561   1.028   2.539  11.624 -0.1430 -0.2063 -0.0981
 5511W        W 9562   5.727   5.048   3.198  0.1952  0.0975  0.0245
 5512W        W 9563   6.153   0.950   4.837  0.2039  0.1778 -0.2724
 5513W        W 9564   3.262   2.811   3.472  0.3772 -0.2331  0.2262
 5514W        W 9565   0.187   5.501  10.789 -0.2394  0.0784 -0.3436
 5515W        W 9566   0.116   1.071   3.565 -0.3994  0.2844 -0.0711
 5516W        W 9567   3.006   5.581  13.197  0.1362  0.2202  0.2211
 5517W        W 9568   4.410   7.372   9.778 -0.3807  0.1156  0.0989
 5518W        W 9569   7.663   1.662  13.414 -0.3596 -0.0585  0.1356
 5519W        W 9570   3.926   2.231   9.524  0.1764 -0.1631  0.1386
 5520W        W 9571   0.099   2.810   3.612  0.1297  0.0841 -0.0656
 5521W        W 9572   5.446   1.346   4.244  0.1238 -0.2200 -0.1858
 5522W        W 9573   0.051   3.424  11.115  0.1118 -0.0862 -0.1710
 5523W        W 9574   8.351   4.604  13.316 -0.1606 -0.2354  0.1034
 5524W        W 9575   2.312   2.481  12.790 -0.1529 -0.0456 -0.0219
 5525W        W 9576   4.431   1.836  13.097  0.0382 -0.4055  0.0650
 5526W        W 9577   9.213   1.081  12.559  0.0088 -0.4369 -0.0165
 5527W        W 9578   2.717   3.458   9.314 -0.3113 -0.2099  0.1701
 5528W        W 9579   5.108   8.707  13.877  0.1944  0.1736  0.1805
 5529W        W 9580   2.224   5.138   4.015 -0.2497 -0.4353  0.0821
 5530W        W 9581   4.356   0.694   3.957 -0.0928  0.0384 -0.2887
 5531W        W 9582   2.811   9.024  11.868 -0.1640 -0.5340  0.0181
 5532W        W 9583   3.605   4.152   1.450  0.0857  0.0263 -0.3169
 5533W        W 9584   4.643   7.990   2.589 -0.3214 -0.1452  0.0062
 5534W        W 9585   8.184  10.019   3.864 -0.0244 -0.0846  0.1467
 5535W        W 9586   6.372   8.871   1.274  0.1042  0.0839 -0.1269
 5536W        W 9587   6.921   6.145   2.334  0.0573 -0.2297 -0.1589
 5537W        W 9588   0.607   6.472   2.996  0.2491 -0.1986  0.1855
 5538W        W 9589   4.585   2.422  12.362  0.1072  0.1324  0.2457
 5539W        W 9590   3.263   4.569   3.204 -0.2011 -0.3779  0.0739
 5540W        W 9591   3.218   9.108   2.647  0.0339 -0.3126 -0.1037
 5541W        W 9592   1.929  10.045  10.080  0.0428 -0.0958 -0.0216
 5542W        W 9593   4.642   3.707  11.950  0.2532  0.2637  0.2800
 5543W        W 9594   4.619   3.799  10.883 -0.0488 -0.0881  0.0074
 5544W        W 9595   7.040   3.526  10.627 -0.3044  0.1471  0.0926
 5545W        W 9596   9.719   8.200   2.356 -0.0690  0.1659 -0.0872
 5546W        W 9597   9.986   5.160  13.189 -0.0864 -0.0097  0.4877
 5547W        W 9598   9.364   9.888  13.707  0.0620  0.2623  0.3221
 5548W        W 9599   4.992   2.049   1.899  0.1510 -0.1055  0.0948
 5549W        W 9600   9.462   7.094  12.273 -0.0626 -0.0012  0.1197
 5550W        W 9601   2.926   9.823   2.760  0.0100  0.1234  0.1955
 5551W        W 9602   4.769   9.249   0.495 -0.1357 -0.0021 -0.2391
 5552W        W 9603   8.518   8.622   3.246 -0.3665 -0.0037 -0.3339
 5553W        W 9604   9.554   2.150   9.553  0.4142  0.1859  0.2878
 5554W        W 9605   0.954   6.751   2.730  0.0983  0.0652 -0.1568
 5555W        W 9606   9.802  10.017   0.067 -0.1360  0.2276  0.3894
 5556W        W 9607   5.319   2.783   9.323 -0.0797 -0.2240 -0.2062
 5557W        W 9608   9.082   7.539  13.781 -0.3512 -0.2235  0.0613
 5558W        W 9609   0.560   5.029   0.052  0.1298  0.1335  0.3344
 5559W        W 9610   6.280   7.300   0.533 -0.3810  0.2384 -0.0548
 5560W        W 9611   1.386   5.619   1.603 -0.0802  0.1265 -0.1339
 5561W        W 9612   3.525   2.790  11.969  0.0803  0.3077 -0.2543
 5562W        W 9613   3.752   2.876  11.461  0.2224 -0.1719  0.0888
 5563W        W 9614   6.545   8.254  12.421  0.2270 -0.2869  0.0544
 5564W        W 9615   5.883   1.901  13.571 -0.3625  0.1218 -0.1733
 5565W        W 9616   4.978   2.560   3.118  0.1186 -0.1198  0.2992
 5566W        W 9617   3.397   5.915  13.797  0.0328 -0.0590 -0.0814
 5567W        W 9618   0.403   5.133   3.579 -0.6221  0.1706  0.1340
 5568W        W 9619   5.622   2.810  13.894  0.0999 -0.0716 -0.1612
 5569W        W 9620   5.269   4.922   2.146 -0.1814 -0.1132  0.0058
 5570W        W 9621   5.545   0.494  11.821 -0.0488 -0.1890 -0.2949
 5571W        W 9622   9.524   3.778   1.503 -0.1779  0.5598  0.1372
 5572W        W 9623   1.061   0.200  10.268 -0.1661  0.0598  0.0211
 5573W        W 9624   9.955   8.448  12.423 -0.0004  0.0344  0.1781
 5574W        W 9625   3.445   5.134   1.577  0.2186 -0.0464 -0.2021
 5575W        W 9626   3.230   1.202   2.576 -0.3020  0.1155 -0.0422
 5576W        W 9627   4.610   7.301  10.554 -0.0478 -0.0025 -0.0773
 5577W        W 9628   8.677   7.425   0.346 -0.1654  0.1382 -0.4061
 5578W        W 9629   3.241   9.515  13.626 -0.4359 -0.1903  0.0445
 5579W        W 9630   7.903   4.054  10.296  0.3174 -0.0271  0.2997
 5580W        W 9631   8.475   2.002   9.986 -0.0638 -0.2569 -0.0858
 5581W        W 9632   9.158   1.130   3.329 -0.0649 -0.0673  0.0002
 5582W        W 9633   8.721   8.221   1.263  0.1980  0.2707  0.1931
 5583W        W 9634  10.136   3.120   8.989 -0.0398 -0.0311 -0.1006
 5584W        W 9635   3.446   3.117   0.333  0.1582 -0.2185  0.5022
 5585W        W 9636   5.186   9.022  10.957 -0.2289 -0.2529 -0.0409
 5586W        W 9637   1.991   6.197  10.692  0.1020 -0.4101  0.1151
 5587W        W 9638   5.033   4.774   0.780 -0.2004  0.1603  0.2345
 5588W        W 9639   5.185   7.102  12.628 -0.0861 -0.2506 -0.0155
 5589W        W 9640   6.712   9.838   0.062 -0.1270  0.3422  0.2856
 5590W        W 9641   9.398   9.428   9.849 -0.0864  0.1124  0.1984
 5591W        W 9642   8.986   1.837  11.807  0.2388 -0.1254 -0.0624
 5592W        W 9643   2.774   2.833   4.380  0.0150  0.0307  0.1540
 5593W        W 9644   8.853   2.995  12.900  0.0854 -0.4166  0.1872
 5594W        W 9645   9.167   9.938  11.551  0.2143 -0.0213  0.0582
 5595W        W 9646   3.759   8.892   9.450  0.0202 -0.1088 -0.1230
 5596W        W 9647   4.146   4.852   3.439  0.2509 -0.3102  0.1961
 5597W        W 9648   3.695   5.447   4.138  0.3659  0.0619 -0.1557
 5598W        W 9649   4.070   5.221   0.379 -0.1386 -0.1351  0.1019
 5599W        W 9650   6.442   6.835  12.094 -0.0570 -0.3346 -0.2372
 5600W        W 9651   5.005   9.239   3.644 -0.0784  0.0125  0.1133
 5601W        W 9652   8.381   9.851   1.926  0.1210 -0.0552  0.2273
 5602W        W 9653   3.748   6.434  13.435 -0.0865  0.1219  0.2177
 5603W        W 9654   7.742   7.020  12.245  0.1427  0.0992  0.3128
 5604W        W 9655   8.247   0.855   1.663  0.4170 -0.0680  0.1364
 5605W        W 9656   7.236   2.875  12.828  0.1123  0.2895 -0.1782
 5606W        W 9657   7.180   0.117   0.723  0.0584 -0.2757 -0.0667
 5607W        W 9658   0.160   8.764  13.423 -0.0592  0.0908  0.1659
 5608W        W 9659   0.042   4.747  11.173 -0.0024  0.2491 -0.4216
 5609W        W 9660   2.139   3.808  10.901 -0.0303 -0.0580  0.1885
 5610W        W 9661   0.941   3.477   2.481  0.2077 -0.2238  0.0243
 5611W        W 9662   3.763   8.046  11.983  0.2072  0.0519  0.1764
 5612W        W 9663   2.185   0.191   2.459  0.2989 -0.0140 -0.0889
 5613W        W 9664   4.970   7.041  13.626 -0.0824 -0.3682 -0.2057
 5614W        W 9665   1.351   3.453  12.318 -0.0668  0.2608  0.1960
 5615W        W 9666   4.652   8.569   9.377 -0.3389  0.2858  0.0705
 5616W        W 9667   1.711   5.298   3.121 -0.1001 -0.0370  0.3639
 5617W        W 9668   7.230   5.799  13.954 -0.1853  0.1687 -0.0924
 5618W        W 9669   5.292   7.207   0.916  0.1171  0.3772  0.0881
 5619W        W 9670   0.038   9.795  13.386 -0.0721  0.1393  0.3492
 5620W        W 9671   6.111   4.617   2.428 -0.4536 -0.0764  0.0915
 5621W        W 9672   4.507   6.051   2.715 -0.1319 -0.2463  0.0533
 5622W        W 9673   5.884   2.774  12.366 -0.2169  0.3579 -0.1391
 5623W        W 9674  10.043   7.459   1.998 -0.2010 -0.1582 -0.0703
 5624W        W 9675   3.649   2.455   1.571  0.0597 -0.0283  0.1973
 5625W        W 9676   9.910   7.444   4.386  0.0939 -0.1511 -0.2443
 5626W        W 9677   4.765   0.989   2.774  0.0189 -0.1671  0.0831
 5627W        W 9678   3.212   7.042   1.323 -0.1908  0.1189  0.0655
 5628W        W 9679   3.299   6.530   3.486 -0.0760 -0.1432 -0.1856
 5629W        W 9680   7.953   1.638   3.562 -0.0534 -0.2384 -0.0883
 5630W        W 9681   7.008   3.619   2.077 -0.1497  0.0374 -0.1422
 5631W        W 9682   6.578   9.084  11.245  0.0214 -0.1088  0.0740
 5632W        W 9683   9.627   9.084  13.136  0.0987  0.1964 -0.0597
 5633W        W 9684   9.392   7.040   1.787 -0.1922 -0.1674  0.0016
 5634W        W 9685   9.858   7.779   3.912  0.2216  0.0115 -0.0353
 5635W        W 9686   2.883   2.460   0.752 -0.2583 -0.1053  0.1640
 5636W        W 9687   3.325   5.879  10.516 -0.4160  0.0533  0.3805
 5637W        W 9688   9.024   1.172   1.246 -0.1012  0.1870 -0.1003
 5638W        W 9689   3.600   6.566   9.264 -0.1293  0.1379  0.0748
 5639W        W 9690   6.335   6.438   0.423  0.3720 -0.0133  0.2104
 5640W        W 9691   8.800   6.747  10.484  0.2862 -0.1072 -0.2680
 5641W        W 9692   0.891   5.852  11.530 -0.1332  0.1949 -0.2466
 5642W        W 9693   6.437   5.383   2.589 -0.1884 -0.2440  0.1263
 5643W        W 9694   4.763   4.370   3.120 -0.1379 -0.2007 -0.1728
 5644W        W 9695   7.117   6.685  10.112  0.2696 -0.3582  0.4288
 5645W        W 9696   8.701   7.351   2.726  0.3000  0.1632  0.0568
 5646W        W 9697   3.004   7.455   0.394  0.0174  0.0009 -0.2368
 5647W        W 9698   8.382   3.457  10.799  0.1557  0.0399 -0.2203
 5648W        W 9699   3.539   7.332   1.486 -0.1877 -0.1007 -0.4300
 5649W        W 9700   2.686   0.861   0.102  0.0616  0.1708 -0.1053
 5650W        W 9701   0.341   8.208  10.357  0.0091  0.0152  0.0239
 5651W        W 9702   8.978   2.951   0.573  0.0835 -0.2368  0.1021
 5652W        W 9703   6.066   8.008   4.298 -0.0226 -0.0157 -0.1544
 5653W        W 9704   0.938   9.248  12.105  0.0173 -0.0989 -0.2760
 5654W        W 9705   4.638   4.309   5.769  0.4361 -0.1726 -0.0826
 5655W        W 9706   9.248   1.754  10.989 -0.0781 -0.0630  0.0676
 5656W        W 9707   9.364   1.335  11.295 -0.2679 -0.0144  0.0346
 5657W        W 9708   3.436   0.423  11.761 -0.0460  0.1805  0.0603
 5658W        W 9709   4.362   3.951   0.320 -0.0620  0.1954 -0.1101
 5659W        W 9710   4.083   8.079  10.359  0.0323 -0.4642  0.3148
 5660W        W 9711   2.196   3.076   2.691 -0.3127 -0.0267  0.3027
 5661W        W 9712   1.655   5.404   0.108 -0.1458 -0.5534 -0.0790
 5662W        W 9713   7.363   0.920   2.410  0.0198  0.1558  0.1559
 5663W        W 9714   2.950   1.488   0.322 -0.2912  0.0254  0.3490
 5664W        W 9715   8.388   4.908  13.764  0.0136  0.0101  0.0383
 5665W        W 9716   7.111   5.989  10.855 -0.0685  0.0597  0.1482
 5666W        W 9717   2.878   6.457   1.967  0.3706 -0.0860 -0.2426
 5667W        W 9718   7.643   0.794   3.828  0.0540 -0.1301  0.0727
 5668W        W 9719   2.579   0.323   2.189  0.0152  0.0371  0.1247
 5669W        W 9720   9.751   4.097   8.909  0.1662 -0.0965  0.2700
 5670W        W 9721   3.074   2.355   3.727 -0.0764 -0.1202  0.3724
 5671W        W 9722   0.966   3.483   3.158  0.0997 -0.1155  0.1862
 5672W        W 9723   4.001   3.727  12.024  0.3679  0.3902 -0.0568
 5673W        W 9724   6.504   3.695   9.788  0.1061 -0.0825  0.3465
 5674W        W 9725   5.836   1.521  13.876 -0.1839 -0.0359 -0.1424
 5675W        W 9726   9.943   4.667   4.479 -0.3514 -0.0116 -0.2037
 5676W        W 9727   6.244   0.231   0.687 -0.2051 -0.3038  0.1366
 5677W        W 9728   8.205   6.456  12.969 -0.1458 -0.0028 -0.0304
 5678W        W 9729   8.913   8.615   2.092  0.0215  0.0181  0.0449
 5679W        W 9730   0.029   4.365  13.189 -0.0242 -0.0858 -0.2252
 5680W        W 9731   7.268   2.034  11.712 -0.1866  0.2942  0.0528
 5681W        W 9732   4.656   9.130  12.416 -0.0189 -0.1366  0.2466
 5682W        W 9733   7.499   9.326  13.302 -0.1604 -0.0347  0.1788
 5683W        W 9734   1.400   4.892   0.223  0.4656  0.1314 -0.3013
 5684W        W 9735   5.563   3.318   3.470  0.2825 -0.2821  0.1658
 5685W        W 9736   1.492   9.436  11.290  0.1198 -0.1851 -0.0014
 5686W        W 9737   2.490   0.441  13.943 -0.0390  0.3228  0.1601
 5687W        W 9738   2.106   9.342  12.339 -0.0249  0.2536 -0.3955
 5688W        W 9739   2.679   1.096  12.090 -0.2054 -0.1936  0.1184
 5689W        W 9740   0.123   4.003  10.634 -0.0340 -0.0753  0.1959
 5690W        W 9741   7.691   9.152   1.516 -0.0564  0.0972  0.1418
 5691W        W 9742   9.336   0.508  11.070 -0.0527 -0.1191 -0.1383
 5692W        W 9743   0.337   0.011   2.965  0.0087 -0.3547  0.0502
 5693W        W 9744   8.558   1.528  10.638 -0.3065 -0.5018 -0.0961
 5694W        W 9745   2.323   1.028   2.879  0.0389  0.2279  0.1078
 5695W        W 9746   2.366   3.154   1.250 -0.1472  0.2038 -0.1760
 5696W        W 9747   7.683   7.229   3.834 -0.1143 -0.1033 -0.0166
 5697W        W 9748   9.583   2.853  11.743  0.0438 -0.0244  0.0557
 5698W        W 9749   2.776   9.795   9.941  0.1680 -0.0222  0.1006
 5699W        W 9750   7.145   2.496  13.508 -0.1914 -0.0340 -0.2251
 5700W        W 9751   7.046   2.005   4.396 -0.3521  0.1214 -0.1014
 5701W        W 9752   2.826   9.805  12.298 -0.1931 -0.1416  0.0914
 5702W        W 9753   0.557   6.310  13.431 -0.0032  0.0952 -0.1305
 5703W        W 9754   7.775   1.424   0.665 -0.0934 -0.0222  0.2520
 5704W        W 9755   8.239   7.325   0.086  0.0053  0.2892 -0.2664
 5705W        W 9756   6.494   3.538   4.800 -0.4222  0.2107 -0.1131
 5706W        W 9757   6.741   5.963   5.398 -0.0037  0.2223 -0.2864
 5707W        W 9758   5.484   2.945  10.474  0.1277 -0.0564  0.1188
 5708W        W 9759   9.279   5.238  11.990 -0.0143  0.0471  0.3219
 5709W        W 9760   8.695   4.065   2.005  0.0264  0.1316  0.1499
 5710W        W 9761   7.992   6.213  11.765  0.1444  0.2339  0.0169
 5711W        W 9762   7.714   6.958   0.717  0.0417  0.0766  0.0901
 5712W        W 9763  10.018   6.833   2.194  0.2290  0.0126  0.0409
 5713W        W 9764   0.782   7.199  11.775 -0.1808  0.0805 -0.1207
 5714W        W 9765   3.691   5.721   2.354 -0.1792 -0.2396  0.1387
 5715W        W 9766   8.634   5.672  13.166  0.1300  0.4158  0.1812
 5716W        W 9767   5.842   8.033   3.749  0.1748  0.0750 -0.1535
 5717W        W 9768   0.538   9.985  12.714 -0.0044 -0.2204  0.0191
 5718W        W 9769   6.833   5.126   0.554  0.0948  0.1968 -0.3255
 5719W        W 9770   9.062   4.324   3.218 -0.0076  0.3294 -0.0621
 5720W        W 9771   0.219   8.571   1.036  0.3770 -0.2164  0.0376
 5721W        W 9772   2.411   7.719  12.239 -0.1545 -0.0178 -0.1239
 5722W        W 9773   5.467  10.034   4.163  0.0357  0.1403 -0.1888
 5723W        W 9774   5.599   8.703  11.429  0.0439  0.1346 -0.1649
 5724W        W 9775   1.118  10.164   7.278  0.0450  0.2106  0.2570
 5725W        W 9776   8.471   3.814   9.608 -0.1907 -0.0742  0.2516
 5726W        W 9777   6.794   0.123   9.638  0.1431 -0.1822 -0.0721
 5727W        W 9778   6.092   8.455   1.227  0.1145  0.0176  0.0960
 5728W        W 9779   3.992   1.473   9.822  0.0180 -0.1723 -0.0394
 5729W        W 9780   5.190   6.241  13.107 -0.1280  0.1555 -0.0906
 5730W        W 9781   9.842   0.008  13.571  0.1224 -0.0608 -0.0523
 5731W        W 9782   3.091   9.870  13.278  0.0912 -0.0783 -0.0703
 5732W        W 9783   0.251   1.755  11.668 -0.1273  0.1024 -0.1743
 5733W        W 9784   6.632   0.926   8.941  0.0165  0.0733 -0.1585
 5734W        W 9785   7.333   6.936   1.020  0.2047 -0.1406  0.3224
 5735W        W 9786   6.966   5.931   1.610 -0.0454  0.0961  0.0947
 5736W        W 9787   2.191   3.577   9.485  0.2216 -0.1301 -0.1133
 5737W        W 9788   7.755   1.095  12.841 -0.2949  0.0012  0.0860
 5738W        W 9789   2.221   5.165  12.130  0.0804 -0.0339  0.0207
 5739W        W 9790   1.568   0.614   9.691 -0.4719  0.3578 -0.1564
 5740W        W 9791   8.920   8.446  13.928  0.0896  0.1791  0.1500
 5741W        W 9792   9.451   1.508   3.237  0.0139  0.0548 -0.1989
 5742W        W 9793   5.957   3.041   9.431 -0.1639  0.1076  0.2090
 5743W        W 9794   4.870   3.035   3.348  0.1731 -0.2015  0.0458
 5744W        W 9795   9.811   6.701  11.430  0.0579  0.0404  0.0730
 5745W        W 9796   6.458   5.816   1.802 -0.1172  0.2890  0.1383
 5746W        W 9797   2.579   1.405  13.969  0.1123  0.2684  0.3004
 5747W        W 9798   0.407   3.263  10.584 -0.0312 -0.1318 -0.0584
 5748W        W 9799   5.683   6.354  13.214  0.1498 -0.1297 -0.0393
 5749W        W 9800   3.355   3.485   2.179 -0.2658 -0.2134  0.0607
 5750W        W 9801   0.675   2.595   1.623 -0.0608  0.1625  0.0913
 5751W        W 9802   9.972   4.240   2.229  0.1547 -0.2407  0.0626
 5752W        W 9803  10.128   5.970   1.323 -0.0220 -0.2154  0.0729
 5753W        W 9804   0.459   5.055   0.597 -0.0455 -0.0002 -0.2718
 5754W        W 9805   1.484   7.246   2.319 -0.0675  0.3041 -0.1586
 5755W        W 9806   1.222   5.585  10.720  0.1982  0.1212  0.0648
 5756W        W 9807   4.069   6.816  11.115  0.2298 -0.0041 -0.0054
 5757W        W 9808   5.834   8.935   9.583 -0.0942  0.4253  0.1904
 5758W        W 9809   4.214   8.166  13.772  0.1717  0.0451  0.0525
 5759W        W 9810   3.667   3.209  11.097  0.1935  0.0690  0.1528
 5760W        W 9811   2.140   5.599  12.600 -0.2930  0.1702 -0.1344
 5761W        W 9812   2.599   9.164   2.997  0.0450 -0.0032 -0.0953
 5762W        W 9813   7.241   3.404  12.482 -0.3848  0.2207  0.1797
 5763W        W 9814   2.822   7.960   1.845 -0.0752 -0.1110  0.2994
 5764W        W 9815   0.743   2.472   3.710 -0.1955  0.2637  0.0142
 5765W        W 9816  10.112   8.266  11.586  0.2879  0.2128 -0.1060
 5766W        W 9817   8.986   6.005  10.054  0.2978  0.3022 -0.0218
 5767W        W 9818   9.738   4.459   2.658  0.1827  0.3963  0.0286
 5768W        W 9819   0.750   5.696  13.974  0.1002 -0.0250  0.0551
 5769W        W 9820   0.038   9.350   3.464  0.3415 -0.1990  0.1744
 5770W        W 9821   2.816   9.680  11.005 -0.2323 -0.0142 -0.0381
 5771W        W 9822   7.993   4.478   9.829 -0.0806 -0.0087 -0.3151
 5772W        W 9823   6.844   2.745  13.150 -0.2176 -0.1139  0.1340
 5773W        W 9824   8.115   6.195   3.029 -0.1943 -0.3259  0.0011
 5774W        W 9825   1.154   6.446  11.081 -0.1817 -0.1183 -0.0451
 5775W        W 9826   7.270   5.824   2.953 -0.0720 -0.1581  0.0954
 5776W        W 9827   8.495   0.565   1.380 -0.1722 -0.0243 -0.1904
 5777W        W 9828   1.798   5.995  13.851  0.2620 -0.3077 -0.1545
 5778W        W 9829   3.264   7.732   2.220  0.2293 -0.0695  0.1138
 5779W        W 9830   6.437   6.577   4.033 -0.1367 -0.1445  0.0063
 5780W        W 9831   0.925   5.185   0.787  0.1313 -0.0665 -0.1625
 5781W        W 9832   1.798   7.681   1.131  0.0565  0.1792 -0.0035
 5782W        W 9833   5.712   4.292   0.842 -0.1404 -0.2759  0.0830
 5783W        W 9834   5.853   2.199  12.543  0.0081 -0.0334  0.5010
 5784W        W 9835   6.659   9.539  13.578 -0.0865 -0.0299 -0.2696
 5785W        W 9836   5.398   8.419  12.328 -0.1588  0.1951 -0.1231
 5786W        W 9837   6.808   4.601   1.851 -0.1224  0.1221 -0.1212
 5787W        W 9838   8.893   1.696  10.066 -0.0264  0.0735 -0.0607
 5788W        W 9839   0.570   1.306  11.949 -0.1599 -0.2411 -0.0857
 5789W        W 9840   1.329   8.795   3.089  0.1715  0.1319 -0.0042
 5790W        W 9841   8.761   6.811  11.951 -0.5000 -0.1012  0.2493
 5791W        W 9842   3.589   7.754   2.700  0.0603 -0.0620  0.1176
 5792W        W 9843   1.427   7.101   0.114 -0.0552 -0.2871  0.1612
 5793W        W 9844   1.624   2.873  13.038  0.2293  0.0157  0.1904
 5794W        W 9845   7.473   2.782   1.782 -0.1329 -0.0958  0.2821
 5795W        W 9846   3.759   8.150   3.016 -0.2308  0.1420  0.0312
 5796W        W 9847   0.521   5.476   0.928 -0.0090 -0.0870  0.3083
 5797W        W 9848   1.144   0.084  11.370  0.1527  0.2705 -0.0348
 5798W        W 9849   0.093   9.111   2.171 -0.0774  0.1019 -0.1293
 5799W        W 9850   3.288   3.580   2.750 -0.0596 -0.0377  0.3537
 5800W        W 9851   3.187   7.820  11.570  0.0987  0.4939  0.3014
 5801W        W 9852   4.160  10.113   1.543  0.0477  0.2873 -0.2101
 5802W        W 9853   3.638   5.435   9.790  0.1772 -0.0812  0.1193
 5803W        W 9854   0.906   7.826  12.484  0.1597 -0.0050 -0.2400
 5804W        W 9855   1.967   3.400   3.063  0.1913  0.0444  0.1727
 5805W        W 9856   8.028   7.535   3.944  0.1864 -0.0735  0.0048
 5806W        W 9857   0.275   1.716   4.708 -0.2518  0.0658 -0.0497
 5807W        W 9858   8.027   5.291   2.609 -0.1398  0.1151  0.2134
 5808W        W 9859   6.002   8.222   2.223  0.1755  0.0075  0.0520
 5809W        W 9860   2.252   3.813   3.122 -0.0456 -0.0477 -0.0095
 5810W        W 9861   3.334   4.198  12.077  0.0630  0.1262 -0.3363
 5811W        W 9862   7.503   8.907   0.307 -0.0206 -0.0351  0.1854
 5812W        W 9863   7.314   6.385   0.059 -0.2892 -0.1034 -0.0028
 5813W        W 9864   5.183   0.317   4.794  0.0437 -0.0460 -0.1141
 5814W        W 9865   6.728  10.102  13.342  0.1731  0.0703 -0.2120
 5815W        W 9866   8.356   3.343   9.789  0.2301  0.0344 -0.0674
 5816W        W 9867   8.882   9.632   1.567  0.0800 -0.3136  0.0257
 5817W        W 9868   9.306   3.942  10.257 -0.0545  0.0832 -0.1836
 5818W        W 9869   2.889   4.199   2.652  0.0469 -0.1248  0.0198
 5819W        W 9870   8.120   0.346  12.711  0.0813 -0.2531 -0.0718
 5820W        W 9871   7.203   8.026   1.251 -0.1761 -0.3336  0.1600
 5821W        W 9872   8.149   2.137   1.467 -0.0132  0.0828 -0.1424
 5822W        W 9873   9.472   2.162  13.015 -0.1845  0.1394 -0.1992
 5823W        W 9874   5.422  10.133   1.901  0.0228  0.0509  0.2130
 5824W        W 9875   8.373   2.096  11.340  0.0157 -0.2058  0.0799
 5825W        W 9876   8.550  10.020   2.959  0.1520  0.4345  0.0448
 5826W        W 9877   2.196   5.516   4.394  0.1567 -0.3765  0.1357
 5827W        W 9878   5.914   7.187  11.110  0.1154 -0.0723 -0.0503
 5828W        W 9879   6.670   0.113   9.083  0.2383  0.2872  0.0791
 5829W        W 9880   7.023   9.892   5.565  0.0792  0.2655  0.1242
 5830W        W 9881   4.669   6.580  10.786 -0.3016  0.0205 -0.4024
 5831W        W 9882   5.962   7.943  11.572  0.1441  0.3523  0.1249
 5832W        W 9883   7.284   4.693   2.210 -0.1794 -0.2632  0.0462
 5833W        W 9884   4.513   1.880  10.563  0.0783  0.1961 -0.2507
 5834W        W 9885   4.616   8.696  11.479  0.2724  0.0033 -0.0279
 5835W        W 9886   0.448   1.671  13.748  0.0457 -0.0048  0.0318
 5836W        W 9887   4.568   0.764   1.135  0.3934  0.2050 -0.0647
 5837W        W 9888   8.037   9.505   1.140 -0.0052  0.0639  0.1972
 5838W        W 9889   7.842   3.092   9.561 -0.0972  0.1421 -0.0114
 5839W        W 9890   4.199   9.596   2.554 -0.2610 -0.0365 -0.1678
 5840W        W 9891   5.201   8.905  13.191 -0.1916  0.2148  0.2118
 5841W        W 9892   4.498   3.428   2.768 -0.1581  0.0744 -0.0269
 5842W        W 9893   1.056   9.614  10.969  0.1819  0.0298  0.0879
 5843W        W 9894   6.520   5.465   0.337 -0.1504 -0.2648 -0.1493
 5844W        W 9895   0.911   5.327  13.060  0.2302  0.1337 -0.0190
 5845W        W 9896   7.276   6.872   3.162  0.0787 -0.0518 -0.3248
 5846W        W 9897   1.483   2.698   4.294  0.2487  0.1744 -0.0500
 5847W        W 9898   6.214   6.020   3.579  0.2602  0.2226 -0.0224
 5848W        W 9899   4.608   2.832  12.846  0.4779  0.1709  0.2046
 5849W        W 9900   0.200   7.152   9.668  0.1260 -0.0183 -0.1095
 5850W        W 9901  10.072   9.281  13.346 -0.1462  0.1087 -0.0763
 5851W        W 9902   1.753   8.312  12.271  0.3030 -0.0868  0.1472
 5852W        W 9903   4.465   8.711  10.742 -0.2104  0.3155 -0.0310
 5853W        W 9904   5.133   5.149  12.337 -0.2889  0.2103 -0.1443
 5854W        W 9905   1.369   7.890  12.318  0.0952  0.1198  0.2023
 5855W        W 9906   3.750  10.050  10.607 -0.1411 -0.0849 -0.0390
 5856W        W 9907   1.183   4.131   5.099  0.1123  0.0418  0.4166
 5857W        W 9908   9.033   3.933   1.624  0.1794 -0.2089 -0.2406
 5858W        W 9909   8.472   9.052   2.302  0.3202 -0.0487 -0.2891
 5859W        W 9910   7.396   5.281   4.620 -0.0416  0.1581  0.0323
 5860W        W 9911   0.958   8.791  13.793 -0.0291 -0.2072  0.2217
 5861W        W 9912   1.579   9.612  13.967 -0.1826 -0.0753 -0.2413
 5862W        W 9913   0.637   3.612  13.014 -0.0626  0.3224  0.0231
 5863W        W 9914   6.150   3.657   2.007  0.3575  0.0115 -0.1834
 5864W        W 9915   1.927   9.301  11.426 -0.2371 -0.3009 -0.1627
 5865W        W 9916   5.503   6.516   4.962  0.2213 -0.2609  0.2598
 5866W        W 9917   5.157   2.935   4.881 -0.1093  0.2032 -0.0672
 5867W        W 9918   0.449   9.828   2.561 -0.0109  0.0144  0.1688
 5868W        W 9919   9.055   0.610  13.851 -0.0693  0.0642 -0.1967
 5869W        W 9920   8.255   2.627  10.519 -0.0340  0.0415 -0.2122
 5870W        W 9921   3.262   4.090   2.257  0.1876 -0.2789 -0.0094
 5871W        W 9922   5.886   9.990   0.501 -0.3193  0.2569  0.1188
 5872W        W 9923   2.054   9.334  12.950  0.0733 -0.0279 -0.0014
 5873W        W 9924   7.715   8.023   2.705  0.2137  0.2929  0.2218
 5874W        W 9925   4.979   0.319  13.883 -0.1863 -0.0270  0.2824
 5875W        W 9926   4.953   4.471   5.397 -0.2496  0.3126  0.2031
 5876W        W 9927   5.462   3.224   9.518 -0.0089  0.0569  0.0768
 5877W        W 9928   7.093   0.555   4.245 -0.0297  0.1070  0.1102
 5878W        W 9929   5.995   5.272   4.767  0.1575  0.1009 -0.0012
 5879W        W 9930   2.889  10.015   2.081  0.2110  0.0118 -0.0275
 5880W        W 9931   5.601   4.109   9.432 -0.2946  0.0706  0.0771
 5881W        W 9932   1.095   8.457  13.356  0.0084 -0.2253 -0.2823
 5882W        W 9933   9.221   6.506   1.570 -0.0194 -0.3180 -0.0555
 5883W        W 9934   8.670   9.228   9.356 -0.0558 -0.0198  0.1340
 5884W        W 9935   2.566   9.396  10.571  0.0760  0.0626  0.0931
 5885W        W 9936   4.481   2.682  11.025  0.0648 -0.1878  0.0619
 5886W        W 9937   2.684   2.885   0.950 -0.0411  0.8618 -0.0673
 5887W        W 9938   2.879   8.944   0.484  0.1588  0.0476 -0.0230
 5888W        W 9939   0.340   0.519  13.882 -0.1959 -0.1907 -0.1132
 5889W        W 9940   7.008   1.131   0.703  0.2498  0.2097 -0.0808
 5890W        W 9941   9.544   8.274   1.493  0.3921  0.0197  0.0694
 5891W        W 9942   5.149   6.025  11.664 -0.2002  0.0554  0.1154
 5892W        W 9943   5.558   1.719   9.458  0.0628  0.2168  0.3311
 5893W        W 9944   8.758   3.390  12.552  0.3273 -0.2725  0.1900
 5894W        W 9945   4.602   0.140   2.743  0.0275  0.0544 -0.2362
 5895W        W 9946   8.198   5.927  13.155  0.0961  0.2111 -0.1249
 5896W        W 9947   5.034   9.744   2.008 -0.0502  0.3411  0.2095
 5897W        W 9948   5.675   0.983   3.914 -0.2156 -0.1587  0.2149
 5898W        W 9949   1.137   7.712   2.450 -0.1957  0.0150  0.1632
 5899W        W 9950   1.791   5.098  13.507 -0.0639  0.2175 -0.2658
 5900W        W 9951  10.127   7.710  13.413 -0.2262  0.8117  0.3320
 5901W        W 9952   8.568   6.236  11.178 -0.2041  0.3129  0.1443
 5902W        W 9953   7.739   9.465   9.977 -0.2387  0.1428 -0.1049
 5903W        W 9954   3.935   8.112   1.238 -0.3005 -0.1727 -0.0100
 5904W        W 9955   9.912   2.577   3.990  0.1227  0.0636  0.0513
 5905W        W 9956   4.950   8.377  12.592 -0.1033 -0.2879  0.0630
 5906W        W 9957   3.199   5.418  11.728  0.0615 -0.0071 -0.0626
 5907W        W 9958   9.702   4.428   4.819 -0.1689  0.1745 -0.2740
 5908W        W 9959   9.604   2.412   0.756  0.0553 -0.0425  0.4337
 5909W        W 9960   4.134   4.838  13.380  0.2200 -0.2511 -0.2701
 5910W        W 9961   5.636   4.464   8.495  0.0495 -0.0508 -0.0699
 5911W        W 9962   7.768   0.159   3.722  0.1062 -0.2634  0.0193
 5912W        W 9963   3.148   5.003   0.349 -0.1004  0.1971 -0.2488
 5913W        W 9964   4.876   2.266   9.087  0.1293  0.2564 -0.1483
 5914W        W 9965   8.456   7.723  11.872 -0.0579  0.0246  0.1739
 5915W        W 9966   2.752   7.666   2.288 -0.1492  0.0100  0.0394
 5916W        W 9967   6.929   4.160   0.933 -0.0170  0.0754  0.4173
 5917W        W 9968   2.130   3.927   1.010  0.1095  0.0099  0.3229
 5918W        W 9969   5.637   0.389  13.427 -0.0342  0.0158 -0.1738
 5919W        W 9970   6.274   7.132  10.199  0.0383  0.3931 -0.1461
 5920W        W 9971   5.850   8.933   4.537 -0.0554 -0.0524  0.0518
 5921W        W 9972   1.645   1.288  10.644  0.1672 -0.2745  0.1285
 5922W        W 9973   0.047   6.902  10.091  0.3657 -0.2732 -0.1878
 5923W        W 9974   8.078   4.930   1.715  0.1348  0.0239  0.1274
 5924W        W 9975   6.143   4.456  11.924 -0.0045 -0.2713  0.0770
 5925W        W 9976   8.975   1.538   3.053 -0.2378 -0.1125 -0.0487
 5926W        W 9977   6.469   1.352   2.959 -0.0569 -0.1062  0.3777
 5927W        W 9978   0.188   4.049  13.875  0.1631 -0.0751 -0.0734
 5928W        W 9979   5.566   9.252  12.828 -0.1359  0.0103  0.1690
 5929W        W 9980   5.017   0.743  12.484  0.1462 -0.6991  0.2562
 5930W        W 9981   3.723   4.727   0.246 -0.1813 -0.3264  0.1666
 5931W        W 9982   8.565   2.762   3.523  0.0111 -0.0327 -0.1290
 5932W        W 9983   7.857   8.545   2.495  0.0545 -0.0445 -0.0077
 5933W        W 9984   3.197   9.969   0.765  0.0712 -0.1036  0.1545
 5934W        W 9985   0.466   9.699   0.634 -0.0911 -0.2308  0.0182
 5935W        W 9986   9.282   2.657   1.035  0.2101 -0.0845  0.0513
 5936W        W 9987   4.824   7.537   4.521  0.0954 -0.1885  0.1206
 5937W        W 9988   8.728   4.463  12.235  0.0054 -0.2930  0.0547
 5938W        W 9989   3.387   4.263  10.909  0.2026 -0.0181 -0.0953
 5939W        W 9990   9.173   3.144  10.871  0.2017 -0.0134 -0.1479
 5940W        W 9991   2.757   1.417   9.625  0.0194  0.0088 -0.0249
 5941W        W 9992   9.209   8.965   3.590 -0.2981  0.2046 -0.1566
 5942W        W 9993   7.986   1.833  10.196 -0.0963 -0.1611  0.4636
 5943W        W 9994   4.758   0.845  13.825 -0.1824 -0.0689 -0.0106
 5944W        W 9995   0.193   3.416   0.362  0.2993  0.3172  0.0737
 5945W        W 9996   7.168   9.397  12.026 -0.0587  0.2347  0.0965
 5946W        W 9997   7.812   0.764   4.355 -0.0915 -0.0589  0.2064
 5947W        W 9998   7.574   5.148   1.670  0.0119 -0.1129  0.0004
 5948W        W 9999   6.643   2.188   1.830  0.0692  0.0854 -0.0165
 5949W        W10000   9.685   4.682   0.487  0.1968 -0.1133 -0.1802
 5950W        W10001   1.621   5.101  12.731  0.0969  0.1666 -0.0681
 5951W        W10002   3.342  10.051   2.584 -0.1161 -0.0604 -0.2583
 5952W        W10003   6.684   3.845   2.450 -0.2087  0.1168 -0.0106
 5953W        W10004   5.244   7.885  13.160  0.4001 -0.0935 -0.0191
 5954W        W10005   6.320   9.783  13.206 -0.1383  0.0976 -0.1156
 5955W        W10006   9.348   3.461   3.446 -0.0345 -0.1932 -0.2020
 5956W        W10007   9.192   8.941  13.578  0.0247  0.1200  0.1038
 5957W        W10008   2.771  10.042   0.510 -0.5333 -0.3503 -0.1042
 5958W        W10009   0.150   7.026   1.155 -0.0217  0.2227  0.1192
 5959W        W10010   2.765   5.271   3.026 -0.0363  0.1266 -0.0661
 5960W        W10011   0.556   3.788   3.285 -0.1108  0.2548 -0.1614
 5961W        W10012   9.032   2.409   1.873  0.2122  0.2802 -0.0237
 5962W        W10013   7.451   8.308  11.798 -0.2082 -0.1879  0.1085
 5963W        W10014   6.522   7.777  11.482 -0.2660  0.2802 -0.0339
 5964W        W10015   3.256   3.091  12.262  0.0732 -0.0621  0.0857
 5965W        W10016   7.204   9.581  13.826 -0.1686  0.0810  0.1548
 5966W        W10017   0.225   3.163   3.911 -0.1041  0.4217  0.1177
 5967W        W10018   4.234   1.925   3.501 -0.0637 -0.1975 -0.4345
 5968W        W10019   4.817   5.414  12.661 -0.0805 -0.1192  0.1466
 5969W        W10020   9.038   7.548   3.489 -0.0600  0.2436 -0.1521
 5970W        W10021   9.092   9.987   1.966  0.2326 -0.0373 -0.0180
 5971W        W10022   3.552   5.230   0.081  0.0617 -0.3084 -0.1289
 5972W        W10023   4.158   3.871   1.958 -0.1080 -0.0640 -0.2245
 5973W        W10024   6.683   8.295   2.597  0.2180  0.2408 -0.0043
 5974W        W10025   3.743   0.035   9.040  0.0431  0.1766  0.2191
 5975W        W10026   6.274   0.185   1.266  0.1397  0.0764  0.0863
 5976W        W10027   0.280   1.480  10.847  0.0023 -0.0624  0.2632
 5977W        W10028   3.327   9.148  11.157  0.0338 -0.0074 -0.0483
 5978W        W10029   4.796   6.877   4.687  0.2631 -0.0928  0.2501
 5979W        W10030   4.808   3.076   0.099 -0.1548  0.0736  0.2711
 5980W        W10031   6.560   5.204   4.163  0.1325 -0.1390 -0.2547
 5981W        W10032   1.349   1.389   0.854 -0.0252  0.1064 -0.1386
 5982W        W10033  10.162   1.617   0.115 -0.0578 -0.1420  0.3607
 5983W        W10034   8.477   4.590   3.373  0.0564  0.0102 -0.1728
 5984W        W10035   6.109   3.409   2.415  0.1213 -0.4716 -0.3484
 5985W        W10036   8.902   9.094  10.562 -0.1532  0.0295  0.0500
 5986W        W10037   1.044   6.269   3.847  0.2474 -0.1267  0.2177
 5987W        W10038   3.237   9.712   1.802 -0.0131  0.1568 -0.2449
 5988W        W10039   8.850   0.202   9.702 -0.2972 -0.0967  0.0493
 5989W        W10040   7.949   7.765   2.321 -0.0320 -0.2684 -0.0970
 5990W        W10041   4.522   9.547  11.200 -0.2857 -0.1070 -0.0665
 5991W        W10042   6.913   1.443   2.787  0.2629  0.3929 -0.0798
 5992W        W10043   8.827   5.974   3.967 -0.0943 -0.1822  0.1837
 5993W        W10044   2.953   3.656  12.237  0.2169 -0.3632  0.2426
 5994W        W10045   3.700   5.001   0.720  0.0131  0.1631 -0.0959
 5995W        W10046   0.760   4.655  10.900  0.1275 -0.1579  0.0049
 5996W        W10047   6.043   2.536  10.989  0.0566 -0.3145 -0.0385
 5997W        W10048   6.453   9.104   2.290  0.1456  0.1137 -0.1345
 5998W        W10049   6.064   6.383  10.867  0.4639  0.0241  0.3260
 5999W        W10050   8.851   9.563  10.671  0.2940 -0.0139  0.1223
 6000W        W10051   2.756   2.587   1.932 -0.2697  0.1836  0.1782
 6001W        W10052   1.842   3.831  11.819 -0.0115  0.0871 -0.1362
 6002W        W10053   0.010   7.479  12.193  0.0534 -0.1186 -0.0396
 6003W        W10054   4.689   6.914  11.174  0.7574 -0.3514  0.3285
 6004W        W10055   8.535   3.468  12.113 -0.0978 -0.0215  0.1356
 6005W        W10056   0.932   6.875   0.897  0.2824 -0.0917 -0.1148
 6006W        W10057   2.855   7.977  10.707  0.0555  0.0359 -0.2123
 6007W        W10058   9.533   3.083  11.290  0.0080 -0.1487  0.4460
 6008W        W10059   8.838   9.873   0.697  0.0933 -0.1435 -0.0181
 6009W        W10060   3.974   0.128  11.213 -0.0290 -0.1257 -0.1849
 6010W        W10061   6.625   8.513   0.370 -0.2120  0.1325 -0.2094
 6011W        W10062   1.412   1.409  11.201  0.1650 -0.0516  0.2662
 6012W        W10063   0.415   4.696  12.100  0.1175  0.1618 -0.1044
 6013W        W10064   8.087   7.042   1.092 -0.1959 -0.1478  0.0753
 6014W        W10065   7.181   8.249   2.555  0.0265 -0.2863 -0.2376
 6015W        W10066   7.090   9.367   1.178  0.1152  0.1080 -0.0642
 6016W        W10067   3.301   1.364   4.173  0.1184 -0.1609 -0.0757
 6017W        W10068   9.771   0.555  11.402  0.0929  0.2382  0.0393
 6018W        W10069   9.994   3.295  13.642 -0.0364  0.2024 -0.0723
 6019W        W10070   4.274   1.683  10.173 -0.3875 -0.1456 -0.3132
 6020W        W10071   4.944   1.773   2.326 -0.0523  0.1695  0.2808
 6021W        W10072   3.264   6.445   0.641  0.1303  0.0921 -0.2705
 6022W        W10073   6.284   3.181   0.379  0.1860  0.1663 -0.2290
 6023W        W10074   3.002   2.756   0.347 -0.1360  0.3954 -0.3422
 6024W        W10075   6.441   2.005   9.547  0.0566  0.1327  0.0838
 6025W        W10076   8.250   0.456   0.434 -0.3299  0.0052  0.1381
 6026W        W10077   2.771   2.079   1.135  0.0409 -0.2352 -0.0840
 6027W        W10078   8.175   6.477  11.304 -0.0102  0.1337 -0.5719
 6028W        W10079   0.518   9.023   3.084  0.0587  0.1460  0.2104
 6029W        W10080   9.622   4.667  13.939 -0.0114  0.0255  0.1606
 6030W        W10081   8.986   2.267   1.172  0.1815 -0.2770  0.1416
 6031W        W10082   9.596   2.066  13.530  0.0547 -0.3178 -0.0730
 6032W        W10083   4.131   2.022   3.012  0.0403 -0.0485 -0.0218
 6033W        W10084   8.131   5.729  11.596 -0.0840 -0.0135 -0.1339
 6034W        W10085   2.046   1.625   0.028 -0.5047 -0.1447  0.0408
 6035W        W10086   1.921   1.192  11.394  0.1663 -0.0644 -0.0139
 6036W        W10087   3.739   6.500   0.602  0.0344  0.0176  0.1416
 6037W        W10088   5.560   3.285  10.981 -0.2521 -0.1371 -0.1394
 6038W        W10089   2.963   2.706   2.370 -0.1891  0.0002 -0.0145
 6039W        W10090   9.006   5.582   0.606 -0.1879 -0.3206 -0.0445
 6040W        W10091   4.155   4.728   0.474 -0.3326  0.1051  0.1748
 6041W        W10092   9.443   2.331   3.127 -0.0925 -0.1785  0.1189
 6042W        W10093   2.938   4.148   4.199  0.3286  0.0744 -0.3281
 6043W        W10094   9.555   2.320   2.560 -0.0934 -0.0392  0.1130
 6044W        W10095   6.174   8.843   3.109  0.1971  0.0418 -0.1579
 6045W        W10096   1.748   2.900   1.314  0.0125  0.0473  0.1272
 6046W        W10097   1.514   1.164   9.927  0.2014  0.1499  0.2158
 6047W        W10098   9.161   5.481   1.444  0.2717 -0.0003 -0.1047
 6048W        W10099   6.566   9.580   2.389  0.4631 -0.3108  0.2211
 6049W        W10100   8.028   7.250  11.878  0.2493 -0.1268  0.1587
 6050W        W10101   1.957   9.600   2.624  0.1169  0.0493  0.2693
 6051W        W10102   9.366   4.099   2.858  0.0752  0.0888  0.1270
 6052W        W10103   9.886   3.915  13.207 -0.1130  0.1887  0.0361
 6053W        W10104   9.228   9.709   4.721 -0.1792  0.1229 -0.0797
 6054W        W10105   0.377   2.187  13.333 -0.0623  0.0822  0.1901
 6055W        W10106   8.013   2.165   4.431  0.2692 -0.1319  0.0181
 6056W        W10107   4.384   1.856   1.197  0.0369  0.0286  0.0539
 6057W        W10108   8.353   9.239   1.415  0.0703  0.0969  0.1381
 6058W        W10109   5.882   1.720   0.815 -0.0726 -0.1929 -0.0997
 6059W        W10110   8.975   5.610  12.073 -0.5105  0.2307  0.0272
 6060W        W10111   7.758   8.773   4.601  0.0641 -0.1566 -0.1058
 6061W        W10112   8.131   0.996   8.791  0.1359 -0.1853  0.3045
 6062W        W10113   2.962   9.389   0.209  0.3789  0.0349  0.1866
 6063W        W10114   9.276   4.545  10.269 -0.2576 -0.0622  0.2036
 6064W        W10115   0.246   6.807   0.282 -0.0174 -0.1138 -0.0986
 6065W        W10116   7.870   9.617  11.580  0.4068  0.2492  0.1635
 6066W        W10117   5.543   1.374   8.720 -0.3737  0.2993 -0.1068
 6067W        W10118   4.623   6.639  13.367  0.1221 -0.1880  0.1893
 6068W        W10119   3.844   0.146   3.323  0.1561  0.0880  0.0332
 6069W        W10120   5.116   4.414   5.880  0.2388  0.1420  0.0968
 6070W        W10121   0.637   1.696  12.598 -0.0382  0.2174 -0.0962
 6071W        W10122   0.921   4.528   5.230  0.0944 -0.0118  0.0051
 6072W        W10123   1.749   0.879   3.466  0.0778 -0.1087 -0.1478
 6073W        W10124   2.499   7.282  10.306 -0.0263 -0.1760 -0.1564
 6074W        W10125   4.332   7.307  11.104 -0.2668  0.0205 -0.5604
 6075W        W10126   2.205   7.481  12.646  0.0158  0.1937  0.2513
 6076W        W10127   1.472   3.062   3.702 -0.1817 -0.1364  0.2749
 6077W        W10128   0.357   0.078  13.140  0.0718  0.2848  0.0570
 6078W        W10129   6.838   5.773  11.267 -0.2706 -0.2966  0.2680
 6079W        W10130   1.261   5.482  10.184  0.0041 -0.0287 -0.0810
 6080W        W10131   9.672   5.226  11.622 -0.1689 -0.1607  0.0834
 6081W        W10132   6.562   1.015   9.508  0.0946 -0.0867  0.0335
 6082W        W10133   2.055   5.576   2.719  0.0151  0.1713  0.1117
 6083W        W10134   1.304   4.439   9.925  0.0057 -0.0649 -0.1213
 6084W        W10135   6.294   7.729   4.682  0.2761 -0.0898  0.1620
 6085W        W10136   8.949   9.129   3.132  0.0361 -0.0836  0.1524
 6086W        W10137   5.319   3.104   3.120  0.0936 -0.3426  0.2991
 6087W        W10138   7.506   8.086   3.264  0.0314  0.1068  0.1221
 6088W        W10139   7.687   6.771  11.333 -0.0049 -0.1132 -0.0940
 6089W        W10140   7.067   6.504   3.708 -0.1919 -0.3099  0.2557
 6090W        W10141   6.398   3.318  12.933 -0.3138 -0.1602 -0.0187
 6091W        W10142   9.419   2.307   8.877 -0.1733  0.1864 -0.0876
 6092W        W10143   1.848   4.304  11.188  0.1123 -0.2450 -0.2617
 6093W        W10144   0.433   0.371   2.194  0.0227 -0.1967 -0.2067
 6094W        W10145   4.112   9.811  11.376  0.1556 -0.3031 -0.2538
 6095W        W10146   5.950   0.526  11.492 -0.0099 -0.1310 -0.0473
 6096W        W10147   7.362   6.541   5.565  0.0719 -0.2624 -0.0778
 6097W        W10148   7.452   8.515   9.512 -0.1322 -0.0374  0.0729
 6098W        W10149   8.418   6.785  10.879  0.0933  0.1238 -0.0584
 6099W        W10150   5.409   7.334  13.276  0.0137  0.5600 -0.1086
 6100W        W10151   2.383   8.504  12.379  0.2878 -0.1109 -0.1194
 6101W        W10152   1.755   6.281   1.074  0.2858 -0.3566 -0.4405
 6102W        W10153   5.617   9.852  12.085  0.1017 -0.2068 -0.1688
 6103W        W10154   2.580   1.454  12.651 -0.2543  0.0660 -0.0429
 6104W        W10155   6.328   9.162   9.535  0.4868  0.0469  0.2808
 6105W        W10156   8.082   1.869  12.324  0.0980  0.0295 -0.5132
 6106W        W10157   2.962   0.863  12.496  0.3512  0.1895 -0.1253
 6107W        W10158   1.214   9.539   1.039 -0.1672  0.2854 -0.0856
 6108W        W10159   5.174   0.944  10.382 -0.2568  0.1251  0.1639
 6109W        W10160   0.770   4.660  13.040  0.0449  0.0841  0.1670
 6110W        W10161   7.353   6.252  13.614 -0.0917 -0.0745  0.4164
 6111W        W10162   0.982   8.192   0.552 -0.2398 -0.0924 -0.2168
 6112W        W10163   8.833   6.422   2.989 -0.3001 -0.1254  0.1550
 6113W        W10164   8.768   9.052  13.966 -0.1007 -0.1295 -0.4452
 6114W        W10165   6.750   5.641  13.889  0.0553 -0.0266 -0.0357
 6115W        W10166   6.657   7.781   1.214 -0.2744  0.0614  0.4475
 6116W        W10167   9.100   2.260  13.332 -0.1399 -0.0352 -0.0338
 6117W        W10168   0.074   1.268  11.799  0.1985 -0.0908  0.1701
 6118W        W10169   4.199   6.532  10.560  0.0363  0.1972  0.1617
 6119W        W10170   5.006   5.328  13.581 -0.0751 -0.0868 -0.0094
 6120W        W10171   7.884   4.208   0.935 -0.2511  0.1171 -0.1092
 6121W        W10172   4.978   9.948   1.485 -0.2172  0.1599  0.0942
 6122W        W10173   3.271   5.876  12.809  0.2306  0.1158  0.0131
 6123W        W10174   3.612   9.841  13.390 -0.3022 -0.0401  0.2206
 6124W        W10175   5.694   5.294   1.090 -0.2399  0.1217 -0.1264
 6125W        W10176   2.344   5.974   2.840 -0.0388 -0.0269  0.2061
 6126W        W10177   8.623   1.388   4.662  0.1331 -0.2513 -0.0417
 6127W        W10178   3.487   3.595   0.574 -0.2579 -0.1345 -0.0648
 6128W        W10179   2.200   7.037   1.438 -0.0863  0.2860 -0.2714
 6129W        W10180   1.649   4.839   1.435  0.3177 -0.1935  0.0876
 6130W        W10181   0.578   2.812   4.207  0.1053  0.2567  0.0747
 6131W        W10182   4.502   2.969   9.694 -0.1321  0.0752 -0.2127
 6132W        W10183   3.352   6.414  11.707  0.2354 -0.0253 -0.0976
 6133W        W10184   5.997   7.055   3.704 -0.1004  0.0257 -0.3588
 6134W        W10185   3.902   1.751  11.860  0.1259  0.0143 -0.0857
 6135W        W10186   9.709   1.765   0.070 -0.2348 -0.0121  0.0105
 6136W        W10187   3.572   7.323  10.383  0.0346  0.0662  0.0631
 6137W        W10188   5.904   1.572   2.803 -0.0000 -0.2232  0.0472
 6138W        W10189   3.959   7.309  10.699  0.1135 -0.0523 -0.0342
 6139W        W10190   7.881   6.590   4.981 -0.3370  0.1282  0.0157
 6140W        W10191   1.265   7.571   4.496 -0.0272 -0.1333  0.1682
 6141W        W10192   8.476   7.301   9.753  0.0350  0.0631 -0.3611
 6142W        W10193   5.219   7.624  10.579  0.1074 -0.2219  0.2518
 6143W        W10194   4.564   7.758   3.024 -0.1034 -0.2542  0.1621
 6144W        W10195   0.466   0.385   0.295 -0.0097  0.0881 -0.1940
 6145W        W10196   2.483   6.949   0.826  0.0348  0.0913  0.2612
 6146W        W10197   9.202   4.360  12.490 -0.0080 -0.0852 -0.0428
 6147W        W10198   3.224   6.547   2.995 -0.1811 -0.0503  0.1686
 6148W        W10199   1.251   7.168  12.834  0.3259  0.0784 -0.0733
 6149W        W10200   5.569   4.292   1.490 -0.0634 -0.0528 -0.2299
 6150W        W10201   6.993   5.169   4.899  0.0181 -0.0589 -0.0147
 6151W        W10202   4.211   3.399   5.171 -0.3113 -0.1691 -0.0574
 6152W        W10203   3.411   7.256   0.205  0.3789 -0.0988  0.0310
 6153W        W10204   9.716   0.865  13.257  0.0681  0.0642 -0.3740
 6154W        W10205   2.729   4.659   3.337  0.3683 -0.3136  0.2996
 6155W        W10206   2.644   7.222  12.136  0.2966  0.0613  0.0236
 6156W        W10207   4.526   6.445   1.260  0.3331 -0.0079  0.1523
 6157W        W10208   6.465   1.238  11.355  0.2055 -0.1716  0.1064
 6158W        W10209   3.227   5.608   0.153  0.4079 -0.0197  0.1283
 6159W        W10210   0.355   4.125   1.685  0.1965 -0.0166 -0.0045
 6160W        W10211   8.790   1.009   0.830 -0.1662  0.0740 -0.0696
 6161W        W10212   7.802   2.207  10.489  0.0913  0.0319 -0.3238
 6162W        W10213   3.224   5.634   2.134  0.2025  0.2415 -0.1002
 6163W        W10214   6.117   0.045  13.224  0.1874 -0.2425 -0.0234
 6164W        W10215   7.450   4.475   0.399 -0.0784  0.0249 -0.1363
 6165W        W10216   6.274   3.894   4.561  0.4438 -0.0350  0.1368
 6166W        W10217   5.315   1.844  12.552 -0.2777 -0.0089 -0.0504
 6167W        W10218   9.027   4.435   1.783  0.4574 -0.0825  0.1509
 6168W        W10219   7.008   0.710   0.118  0.0279  0.0035 -0.2776
 6169W        W10220   0.640   6.317   1.806 -0.1209 -0.1843 -0.1698
 6170W        W10221   8.319   3.986   1.677  0.0601 -0.3277  0.2372
 6171W        W10222   8.192   1.088   4.403  0.2298 -0.1551  0.0102
 6172W        W10223   9.195   3.881   2.086 -0.1412  0.1498 -0.1443
 6173W        W10224   9.749   1.680  13.081  0.1094 -0.0196 -0.0285
 6174W        W10225  10.137  10.000   1.218  0.0772  0.3631 -0.0245
 6175W        W10226   6.699   3.208   9.989 -0.0375  0.0538  0.0724
 6176W        W10227   3.340   0.184   3.409  0.3888 -0.2017 -0.2932
 6177W        W10228   8.277   3.716   2.275 -0.1850 -0.3311 -0.1609
 6178W        W10229   4.676   3.586   0.446  0.2095  0.2653  0.0284
 6179W        W10230   5.714   6.813   2.605 -0.0291 -0.1362  0.1904
 6180W        W10231   6.699   5.731  12.613  0.1801  0.0101 -0.1874
 6181W        W10232   3.874   3.622   1.060  0.0279 -0.1025  0.0008
 6182W        W10233   6.612   7.055   3.091  0.0910  0.1500  0.4185
 6183W        W10234   6.146   7.163   1.381 -0.0842 -0.1755  0.2091
 6184W        W10235   4.593   0.066  13.601  0.2307  0.2273 -0.0770
 6185W        W10236   6.776   8.905  11.773  0.0085 -0.0549  0.0034
 6186W        W10237   2.569   1.311   1.497  0.0076  0.1045 -0.2807
 6187W        W10238   9.332   6.636   4.414 -0.1406 -0.1004  0.0948
 6188W        W10239   1.248   0.403  11.699 -0.0641 -0.0579 -0.3241
 6189W        W10240   6.355   1.336   9.935  0.1781 -0.0965 -0.2745
 6190W        W10241   0.310   5.211   2.012 -0.1028  0.0012 -0.0188
 6191W        W10242   8.800   1.097  10.093 -0.0445 -0.0815 -0.5463
 6192W        W10243   7.286   0.746   3.315 -0.1714  0.0615 -0.0005
 6193W        W10244   0.769   5.872   2.175 -0.1436  0.0162  0.2343
 6194W        W10245   5.515   4.537   2.884 -0.0403  0.1824  0.0308
 6195W        W10246  10.003   1.926   9.488 -0.0280 -0.2319 -0.4614
 6196W        W10247   3.948   9.337   0.192 -0.0129 -0.2889 -0.1229
 6197W        W10248   2.401   8.180   2.044 -0.5007 -0.0116 -0.2512
 6198W        W10249  10.104   7.148   0.633  0.0150 -0.1528 -0.1282
 6199W        W10250   5.886   9.024   2.620 -0.2303  0.1110 -0.0941
 6200W        W10251   7.805   3.409   4.306 -0.2091  0.1940  0.2884
 6201W        W10252   7.682   6.030   3.206 -0.2418  0.2049  0.0326
 6202W        W10253   3.632   3.969   1.954  0.2635 -0.0214  0.3509
 6203W        W10254   7.486   7.448  13.077  0.1072  0.0988 -0.1417
 6204W        W10255   1.001   7.366   0.217 -0.0161 -0.3416 -0.0586
 6205W        W10256   1.057   4.637  13.431 -0.0496  0.2219  0.0888
 6206W        W10257   3.473   2.731   0.639  0.0884  0.3929 -0.1319
 6207W        W10258   2.292   0.790  11.849  0.2105  0.0243  0.2592
 6208W        W10259   0.212   7.278  13.389 -0.1483 -0.0860  0.0597
 6209W        W10260   5.616   8.665  13.125  0.0079  0.0167 -0.0720
 6210W        W10261   7.784   5.667   2.844 -0.2661  0.1740  0.0121
 6211W        W10262   7.303   5.643   4.199 -0.1484 -0.0644 -0.2044
 6212W        W10263   5.342   4.474  11.008 -0.0002 -0.0397 -0.1871
 6213W        W10264   3.609   3.690   3.170 -0.0321  0.2162  0.0231
 6214W        W10265   2.758   1.302  11.582  0.0332  0.1006  0.2041
 6215W        W10266   3.635   4.658  10.557  0.2077 -0.1321 -0.1525
 6216W        W10267   9.038   2.737  10.572  0.0529 -0.1291 -0.2877
 6217W        W10268   5.288   3.927   2.441  0.1531 -0.2606  0.1065
 6218W        W10269   9.954   6.892   9.609  0.1145  0.2406  0.1048
 6219W        W10270   0.044   3.755   2.019 -0.2459  0.3536 -0.0093
 6220W        W10271   7.551   8.436   4.122 -0.0663 -0.1511  0.2251
 6221W        W10272   0.596   7.983   9.520  0.1757 -0.2243 -0.1598
 6222W        W10273   0.227   2.374  11.507 -0.0290  0.0984 -0.4425
 6223W        W10274   7.179   3.124   0.157 -0.2517  0.1875 -0.0828
 6224W        W10275   5.322   6.665   1.256  0.3213 -0.1586 -0.0780
 6225W        W10276   0.037   6.619   0.800 -0.1776  0.1566 -0.1386
 6226W        W10277   4.435   9.560  10.465  0.4100 -0.0108  0.3007
 6227W        W10278   8.089   6.906  11.549  0.0333  0.1789 -0.1943
 6228W        W10279   6.627   8.247  11.703 -0.2960 -0.2027 -0.2121
 6229W        W10280   4.341   2.827   3.465 -0.4565 -0.3395  0.0143
 6230W        W10281   3.212   4.967  12.207 -0.0596 -0.2094 -0.1924
 6231W        W10282   8.392   5.487  10.473  0.0383  0.1884 -0.0394
 6232W        W10283   7.351   5.705  12.018  0.0330  0.0873 -0.1188
 6233W        W10284   1.075   8.366   1.103 -0.4373 -0.2141 -0.0287
 6234W        W10285   7.824   7.863   0.411 -0.0548 -0.2527 -0.0123
 6235W        W10286   1.966   2.956  10.189 -0.3145  0.1091  0.2813
 6236W        W10287   5.031   2.541  11.025  0.1763 -0.0903 -0.0869
 6237W        W10288   0.964   7.503   2.969  0.1466  0.1709  0.4004
 6238W        W10289   0.786   3.342  12.169  0.1233  0.1183 -0.1886
 6239W        W10290   9.612   6.970  11.045 -0.4280 -0.0872 -0.0674
 6240W        W10291   6.342   5.531   3.816  0.3167 -0.1209 -0.1329
 6241W        W10292   3.780   3.708   4.871  0.0401  0.0250 -0.1151
 6242W        W10293   9.050   5.583   9.633  0.0253 -0.2665  0.0853
 6243W        W10294   5.736   2.797   4.105  0.0246  0.2698 -0.0942
 6244W        W10295   0.513   2.245  11.894  0.1070  0.0834  0.0520
 6245W        W10296   7.614   2.331   2.125  0.1254 -0.0373  0.0278
 6246W        W10297   6.506   2.893   2.668  0.1667 -0.0156 -0.1064
 6247W        W10298  10.117   9.112   3.036  0.1499 -0.2816  0.1292
 6248W        W10299   1.281   2.258  13.087  0.2941  0.0636 -0.2668
 6249W        W10300   7.351   5.410   2.015 -0.4813  0.3317 -0.1657
 6250W        W10301   9.363   7.415  13.343  0.1163  0.2236 -0.2216
 6251W        W10302   4.570   3.524   9.526  0.1817 -0.3062 -0.1825
 6252W        W10303   7.539   2.704   9.837 -0.2107 -0.2137  0.0857
 6253W        W10304   5.885   0.487   1.406 -0.1372 -0.0138  0.0940
 6254W        W10305   5.148   4.122   2.935 -0.4231  0.1021  0.0671
 6255W        W10306   9.260   5.882   0.194  0.0399  0.1258  0.3991
 6256W        W10307   7.679   6.842   1.393  0.1342  0.0322  0.3288
 6257W        W10308   5.484   5.410  13.393 -0.1023  0.0647  0.1774
 6258W        W10309   2.575   5.532   1.974 -0.1844  0.1182  0.2474
 6259W        W10310   9.799   2.856   0.965  0.3063  0.0939  0.1244
 6260W        W10311   0.920   2.965   1.307 -0.1134 -0.1199 -0.3127
 6261W        W10312   9.045   6.533  13.747  0.4318  0.1556 -0.0759
 6262W        W10313   3.947   9.263   4.035  0.2146  0.0230  0.1351
 6263W        W10314   0.512   7.396   0.391 -0.1587  0.4029 -0.1196
 6264W        W10315   1.779   1.833  11.525 -0.0185 -0.0361  0.1625
 6265W        W10316   4.924   3.023   2.133 -0.1201 -0.1150 -0.0193
 6266W        W10317   0.721   7.989  10.022  0.4462  0.0615  0.0808
 6267W        W10318   0.895   1.248  12.320  0.1121  0.0495 -0.1441
 6268W        W10319   3.537   2.302   9.837  0.1509 -0.2850 -0.1537
 6269W        W10320   0.992   2.994   2.373 -0.2403  0.0078  0.0324
 6270W        W10321   0.488   5.864   0.579 -0.2220 -0.2559  0.1216
 6271W        W10322   4.982   1.461  13.796  0.1133 -0.3429  0.1010
 6272W        W10323  10.087   4.254   9.661  0.2363 -0.1490 -0.0602
 6273W        W10324   3.337   3.807   4.037  0.4474  0.2130 -0.0158
 6274W        W10325   3.672   5.341   5.606 -0.1651  0.4410  0.0526
 6275W        W10326   6.142   5.115   1.196  0.6063  0.3599  0.0939
 6276W        W10327   4.252   0.530  11.371  0.3107 -0.2822  0.3645
 6277W        W10328   9.492   2.276   4.630 -0.2504 -0.1199 -0.1863
 6278W        W10329   9.787   5.708  12.599  0.1610 -0.2133  0.0025
 6279W        W10330   2.176   1.238  13.545  0.1599 -0.2506  0.2633
 6280W        W10331   6.982   4.281  11.443  0.2441 -0.3561 -0.1088
 6281W        W10332   3.583   4.658  11.078 -0.3726 -0.0350  0.1130
 6282W        W10333   4.236   7.697  10.744 -0.1557 -0.2427  0.0654
 6283W        W10334   7.510   8.846  10.872 -0.0696 -0.2259  0.4544
 6284W        W10335   1.218   3.917   9.763 -0.0218 -0.1290 -0.1211
 6285W        W10336   4.375   7.527   1.469  0.1395  0.0336  0.2193
 6286W        W10337   6.711   6.234   0.659  0.1227 -0.2438 -0.0075
 6287W        W10338   0.892   0.108   2.264 -0.4987 -0.2055 -0.3442
 6288W        W10339   2.046   9.865   0.338 -0.0983  0.3051 -0.0775
 6289W        W10340   9.862   0.710  11.888  0.1849  0.0350 -0.0000
 6290W        W10341   0.612   7.147   1.258  0.1058 -0.1839  0.0252
 6291W        W10342   0.784   1.578   2.326  0.1772  0.2059 -0.2149
 6292W        W10343   9.322   8.663   2.773  0.1024 -0.0531  0.1723
 6293W        W10344   9.626   6.245   5.426 -0.1899 -0.4189 -0.0986
 6294W        W10345   8.641   4.529   3.902 -0.1699 -0.0409 -0.0831
 6295W        W10346   3.605   2.386  13.601 -0.3005 -0.1450 -0.0586
 6296W        W10347   9.980   4.709   3.117  0.0136  0.1472  0.1983
 6297W        W10348   6.094   8.765   3.634  0.3048 -0.1159 -0.1323
 6298W        W10349   2.086   1.579  12.935 -0.1062 -0.1665 -0.3284
 6299W        W10350   3.655   4.721  13.069 -0.1259 -0.1696  0.3198
 6300W        W10351  10.106   8.185   4.240  0.0061 -0.1120  0.0783
 6301W        W10352   4.654   6.793   2.131  0.1481 -0.0596 -0.0655
 6302W        W10353   0.243   2.718  12.157 -0.0752 -0.1833  0.0494
 6303W        W10354   5.007   6.052   2.650  0.0693  0.0702 -0.1658
 6304W        W10355   7.981   0.535   9.612 -0.0855  0.0495  0.0883
 6305W        W10356   7.466   3.467   9.316  0.2385  0.3855 -0.0944
 6306W        W10357   4.640   4.284   0.503  0.1646 -0.0765 -0.0754
 6307W        W10358   6.279   8.732   4.861  0.2714 -0.0299  0.1687
 6308W        W10359   4.615   8.888  10.247  0.2070  0.4856 -0.2684
 6309W        W10360   2.099   4.489  12.645 -0.2383 -0.0784  0.3480
 6310W        W10361   0.128   6.308  12.591 -0.1202 -0.3293  0.0975
 6311W        W10362   9.874   7.783  11.595  0.1159  0.1305  0.1089
 6312W        W10363   3.746   4.033  10.686  0.0770  0.1625  0.1193
 6313W        W10364   8.338   7.299   3.113  0.2146  0.0886 -0.3477
 6314W        W10365   5.883   9.909  12.866  0.2242 -0.3225 -0.0760
 6315W        W10366   3.313   8.187  11.915  0.2915 -0.0151  0.0781
 6316W        W10367   3.823   0.730  13.078 -0.3690 -0.0670  0.2207
 6317W        W10368   6.956   6.767   4.115  0.0874  0.2463  0.2745
 6318W        W10369   4.546   8.168  11.589 -0.1958  0.3500  0.0319
 6319W        W10370   1.828   7.837  13.426 -0.0729 -0.0449  0.0798
 6320W        W10371   0.875   4.493   3.057  0.3676  0.0575 -0.3730
 6321W        W10372   9.509   2.456   9.962 -0.1899 -0.1323 -0.0034
 6322W        W10373   4.422   5.928  13.492 -0.0851 -0.3549  0.0680
 6323W        W10374   9.539   8.755   1.516  0.2542 -0.0392 -0.2600
 6324W        W10375   6.274   8.870  11.701  0.0278 -0.1321  0.0793
 6325W        W10376   8.416   2.689   8.734 -0.0050  0.1459 -0.2104
 6326W        W10377   1.030   1.871   2.023 -0.3849  0.2978  0.0124
 6327W        W10378   3.404   7.149   9.830  0.1553 -0.1627 -0.1778
 6328W        W10379   8.988   8.410  12.219 -0.0585 -0.0286  0.2832
 6329W        W10380   8.516   2.033  12.549 -0.2359  0.1738 -0.0481
 6330W        W10381   0.005   2.128  11.914 -0.2473 -0.0686 -0.1354
 6331W        W10382   9.602   0.717  10.631  0.1878 -0.1848 -0.0757
 6332W        W10383   2.015   6.210   4.001  0.2146 -0.0037  0.0219
 6333W        W10384   8.947   2.569   0.215  0.1035  0.2831  0.2372
 6334W        W10385   1.352   3.193  12.776  0.1496  0.1540 -0.2132
 6335W        W10386   4.027   2.476  10.030 -0.1056 -0.0357  0.1875
 6336W        W10387   9.443   9.283   0.391 -0.2068  0.0658 -0.0940
 6337W        W10388   6.839   4.634   4.286  0.0206 -0.0810 -0.0422
 6338W        W10389   4.009   5.054  13.919  0.1680  0.0537 -0.1399
 6339W        W10390   5.326   5.342   4.974 -0.4494  0.1089 -0.3258
 6340W        W10391  10.050   0.915   1.559  0.0640  0.3149 -0.1927
 6341W        W10392   5.455   6.815  11.341  0.1274  0.2417 -0.0207
 6342W        W10393   6.298   5.815  12.338 -0.1653  0.0015  0.3246
 6343W        W10394   1.397   6.218  12.955 -0.0782  0.1535  0.1283
 6344W        W10395   3.296   5.407  13.593  0.1249  0.1870 -0.2544
 6345W        W10396   5.525   5.507  10.988 -0.0360 -0.2719 -0.2715
 6346W        W10397   4.564   8.915   2.825 -0.0932 -0.1188  0.0486
 6347W        W10398   7.362   9.270   2.377  0.1152  0.1643  0.1791
 6348W        W10399   9.124   4.388   0.354  0.3905  0.1813 -0.0068
 6349W        W10400   8.502   8.361  10.498  0.0448  0.2181  0.1902
 6350W        W10401   2.627   2.696   2.784 -0.1913 -0.0677  0.3530
 6351W        W10402   5.505   0.609   1.087 -0.0182 -0.1517  0.0230
 6352W        W10403   7.373   5.648  11.184  0.1278 -0.0574  0.1202
 6353W        W10404   9.518   4.037   4.528  0.0118  0.1154 -0.4085
 6354W        W10405   4.523   5.231  10.909 -0.1713 -0.0459 -0.1581
 6355W        W10406   8.402   8.621   2.585  0.0797  0.0650  0.0744
 6356W        W10407   7.505   8.977  10.114 -0.0407  0.2813  0.0389
 6357W        W10408   6.164   8.254   3.437  0.0211  0.1405  0.1996
 6358W        W10409   6.261   5.197   3.161  0.0939 -0.0267 -0.1160
 6359W        W10410   3.880   9.491   2.952 -0.2427  0.2647 -0.1339
 6360W        W10411   9.971   6.428  13.955 -0.1616 -0.1612  0.1132
 6361W        W10412   4.457   1.542   1.603 -0.2177  0.1773  0.1894
 6362W        W10413   1.077   1.527  11.811  0.2360 -0.0221  0.2512
 6363W        W10414   4.503   3.290  12.603 -0.1803 -0.2251  0.2092
 6364W        W10415   1.219   2.139   0.249  0.0359  0.2911  0.0833
 6365W        W10416   9.636   4.412  10.614 -0.0838  0.2429 -0.0973
 6366W        W10417   5.903   4.034  13.434 -0.0002  0.0123  0.1523
 6367W        W10418   6.276   9.201   0.384 -0.0568 -0.0095 -0.2144
 6368W        W10419   0.182   0.932  13.367  0.0925 -0.0043 -0.0889
 6369W        W10420   7.519   0.239   3.240 -0.0638 -0.0914  0.0100
 6370W        W10421   5.006  10.107   2.434 -0.0367 -0.3354  0.1245
 6371W        W10422   7.644   2.580   3.846 -0.2147  0.1111 -0.0208
 6372W        W10423   0.701   2.606   1.083 -0.0322  0.1732 -0.2795
 6373W        W10424   1.244   1.803  11.427  0.1260  0.1802 -0.0632
 6374W        W10425   2.806   4.134  12.140  0.1072 -0.0550  0.0814
 6375W        W10426   6.156   6.105   9.711 -0.4523 -0.2586  0.1426
 6376W        W10427   7.481   9.853  13.505  0.2142  0.1294  0.1538
 6377W        W10428   8.014   9.021  10.014 -0.3541  0.1535  0.3601
 6378W        W10429   8.940   9.409   0.268 -0.0010 -0.0296  0.1067
 6379W        W10430   0.881   3.062   9.846  0.0012  0.2509 -0.0968
 6380W        W10431   4.183   3.413   2.215  0.0000 -0.1558  0.0279
 6381W        W10432   2.664   7.164   0.236  0.0775  0.1501 -0.2732
 6382W        W10433   5.695   3.360   2.814 -0.1449  0.1608  0.0126
 6383W        W10434   2.005   2.251   0.226  0.3636 -0.1769 -0.0579
 6384W        W10435   5.521   7.194   3.908 -0.1970 -0.4327 -0.1495
 6385W        W10436   3.245   8.090   1.576  0.0922  0.1790 -0.0181
 6386W        W10437   7.993   9.567   2.228 -0.3509  0.1417  0.0750
 6387W        W10438   1.741   5.735   3.845 -0.1129  0.0614  0.0328
 6388W        W10439   1.461   8.554   5.534  0.0813 -0.3278 -0.1136
 6389W        W10440   5.539   8.708  13.645  0.0620 -0.1411 -0.2150
 6390W        W10441   3.089   1.290  13.907  0.0428 -0.1374 -0.0561
 6391W        W10442   2.843   6.148  12.333  0.2195  0.0582 -0.0074
 6392W        W10443   5.583   1.562   4.992 -0.0456 -0.0560  0.1856
 6393W        W10444   2.837   5.896  13.749 -0.0558 -0.1481 -0.0504
 6394W        W10445   4.451   3.369   5.613  0.0546  0.1296  0.1903
 6395W        W10446   4.153   8.091  13.234  0.3416 -0.0370 -0.0467
 6396W        W10447   4.751   1.667   4.696  0.0630 -0.0404 -0.2483
 6397W        W10448   4.509   0.010  10.054  0.0890  0.0604 -0.0659
 6398W        W10449   5.763   1.186   4.630 -0.1980  0.0651  0.1739
 6399W        W10450   4.494   0.430  13.913  0.0541 -0.1276  0.1391
 6400W        W10451   0.170   6.850   9.271 -0.1153  0.2888  0.0234
 6401W        W10452   2.981   1.938   9.191 -0.0612 -0.1600  0.1513
 6402W        W10453   0.245   0.698  11.853 -0.2158 -0.0624  0.0204
 6403W        W10454   4.836   0.664   0.217  0.0195  0.4290 -0.1595
 6404W        W10455   6.342   2.943  12.134 -0.1177  0.2169 -0.0228
 6405W        W10456   3.976   0.231   1.967  0.0543 -0.0188 -0.3228
 6406W        W10457   2.455   3.022  10.210  0.0447  0.3931  0.0042
 6407W        W10458   9.744   1.051   2.415 -0.0480 -0.0786 -0.1401
 6408W        W10459   0.603   6.903   3.259 -0.0657  0.1315 -0.4055
 6409W        W10460   6.779   1.336  13.540  0.1869  0.0036 -0.1463
 6410W        W10461   8.538   6.384   0.772 -0.0889  0.1725  0.2066
 6411W        W10462   0.280   1.894   4.281 -0.1474 -0.1068  0.3357
 6412W        W10463   1.924   3.193   6.042 -0.1965  0.2280  0.0702
 6413W        W10464   9.598   4.822  11.997  0.0257 -0.4023 -0.2576
 6414W        W10465   1.209   3.084  10.791 -0.0588 -0.1835 -0.0502
 6415W        W10466   8.627   9.992  11.396  0.0963  0.1274  0.1245
 6416W        W10467   9.869   6.258   0.753 -0.0068  0.0964  0.1492
 6417W        W10468   7.485   2.140  13.411  0.0530  0.1529  0.2147
 6418W        W10469   4.886  10.162   0.520  0.1192 -0.1319 -0.1152
 6419W        W10470   7.502   2.230  10.992  0.2975  0.0337  0.0606
 6420W        W10471   8.590   0.565   3.990 -0.0998 -0.0454 -0.2372
 6421W        W10472   3.694   5.234   3.057 -0.1082  0.4088 -0.3700
 6422W        W10473   8.048   7.945  13.120 -0.0807 -0.2866  0.3689
 6423W        W10474   5.549  10.106  12.572 -0.1352  0.0371  0.0972
 6424W        W10475   3.414   3.303   3.936  0.1813 -0.0972 -0.0907
 6425W        W10476   9.570   3.224   2.666  0.2003  0.0273 -0.1329
 6426W        W10477   2.106   2.920  13.128  0.1325 -0.0617 -0.0403
 6427W        W10478   9.064   7.362  12.495  0.2247  0.1231 -0.0382
 6428W        W10479   9.894   2.123   0.324  0.0304  0.0418 -0.3591
 6429W        W10480   4.523   2.290   2.858  0.0769 -0.0953 -0.1727
 6430W        W10481   7.225   5.816  12.552  0.0426 -0.2748  0.0189
 6431W        W10482   1.076   2.927  13.635 -0.1751  0.0467 -0.0831
 6432W        W10483   3.205   7.999  13.557 -0.0569 -0.0643 -0.0197
 6433W        W10484   7.915   2.632   0.968 -0.0923  0.0892  0.0439
 6434W        W10485   6.151   4.699   9.379  0.2404  0.3675 -0.1216
 6435W        W10486   5.119   7.849   2.858 -0.2257  0.1151  0.0457
 6436W        W10487   3.265   2.772  13.674 -0.0423 -0.0598  0.0920
 6437W        W10488   5.443   7.606   0.558  0.1293  0.0598 -0.3459
 6438W        W10489   8.557   0.930  11.080 -0.2050 -0.1004  0.0837
 6439W        W10490   3.558   6.877  11.596 -0.0876 -0.0838  0.0961
 6440W        W10491   8.198   1.003  12.046 -0.0859 -0.0055 -0.1387
 6441W        W10492   8.259   1.624  11.617  0.2612 -0.0728  0.0473
 6442W        W10493   0.972   0.183  13.933 -0.0244 -0.0308  0.0166
 6443W        W10494   5.480   8.582  10.950 -0.2061  0.2745  0.2980
 6444W        W10495   5.690   2.885  11.326  0.1161 -0.1040  0.0408
 6445W        W10496   0.499   5.073  12.898 -0.0245  0.1147  0.4105
 6446W        W10497   8.775   8.875   2.759 -0.0598 -0.1994 -0.1124
 6447W        W10498   7.445   9.797   3.018 -0.0935  0.2831 -0.2534
 6448W        W10499   5.762   9.445  11.363 -0.2178  0.0218  0.1608
 6449W        W10500   9.227   4.933   9.038  0.5328  0.0431 -0.1179
 6450W        W10501   2.171   4.573  13.364  0.3099 -0.1729 -0.0671
 6451W        W10502   4.019   8.915   9.967 -0.0890  0.2961  0.1522
 6452W        W10503   9.754   9.610  13.575 -0.0244  0.1447  0.0226
 6453W        W10504   2.782   6.424   3.281 -0.0523  0.2840 -0.1420
 6454W        W10505   3.436   6.551  13.776  0.0373 -0.3039 -0.1933
 6455W        W10506   8.297   9.664   3.148  0.0412  0.4699  0.0090
 6456W        W10507   2.870   0.150   0.053 -0.1005 -0.0518  0.1123
 6457W        W10508   1.915   3.530   4.938 -0.0024 -0.0355 -0.3358
 6458W        W10509   8.500   1.612   2.883  0.4560  0.0015 -0.0285
 6459W        W10510   4.367   3.429   4.111  0.0124  0.2160 -0.0763
 6460W        W10511   1.438   1.649   9.972 -0.1197  0.4059 -0.1184
 6461W        W10512   3.702   9.267   2.523 -0.2253 -0.0572 -0.0027
 6462W        W10513   7.835   9.598  12.978  0.2296 -0.1005 -0.0408
 6463W        W10514   5.378   4.976  10.894  0.0137  0.0497  0.2292
 6464W        W10515   8.079   0.207   4.197  0.2579 -0.0462 -0.0621
 6465W        W10516   4.876   2.167   4.445  0.0946  0.0321  0.1857
 6466W        W10517   7.506   7.363  12.519  0.3433  0.0951  0.0131
 6467W        W10518   5.728   0.253   9.517 -0.0228 -0.0992  0.2032
 6468W        W10519   8.053   7.417  11.384  0.1100 -0.3227  0.2076
 6469W        W10520   9.544   0.483   2.246  0.0924  0.2452 -0.1325
 6470W        W10521   9.885   1.934   0.819 -0.4069 -0.1674  0.2539
 6471W        W10522   4.313   8.576   3.053 -0.4718  0.1955  0.1164
 6472W        W10523   7.560   4.543   3.580 -0.2723  0.0222 -0.2770
 6473W        W10524   8.279   7.341  10.844 -0.3811 -0.2502  0.1239
 6474W        W10525   4.744   9.820  13.153  0.1698 -0.2844  0.4502
 6475W        W10526   6.558   2.390   2.745  0.0356  0.0184 -0.1203
 6476W        W10527   7.603   8.363  10.772 -0.2392 -0.0503  0.1001
 6477W        W10528   6.731   7.822  13.535 -0.1944  0.1042  0.0988
 6478W        W10529   4.273   8.693   0.685  0.1110  0.0241 -0.2123
 6479W        W10530   0.053   8.895  12.504 -0.2099  0.1938 -0.0556
 6480W        W10531   4.507   5.421  13.479  0.2547 -0.0838  0.2331
 6481W        W10532   1.980   2.518   4.874 -0.2798  0.1240  0.0011
 6482W        W10533   2.479   1.271   0.938 -0.0197  0.0009 -0.2764
 6483W        W10534   1.889   2.186  10.266 -0.0824  0.0207 -0.1957
 6484W        W10535   7.378   0.335  13.793  0.0099 -0.2063 -0.1606
 6485W        W10536   6.907   9.823  11.965  0.3413  0.0492  0.1111
 6486W        W10537   7.102   3.720  12.918 -0.0103 -0.1738 -0.4692
 6487W        W10538   0.503   6.014   3.132  0.0110 -0.0429 -0.1222
 6488W        W10539   4.687   0.533  13.442  0.3014 -0.1739  0.0532
 6489W        W10540   5.826   5.787   3.186 -0.1741  0.1137  0.0533
 6490W        W10541   3.505   5.716  13.310 -0.1081  0.2960 -0.3027
 6491W        W10542   6.201   6.111   1.382  0.0520  0.0363 -0.3114
 6492W        W10543   8.198   4.392  11.015 -0.2160  0.2062  0.1216
 6493W        W10544   3.850   3.226   4.168  0.0281  0.5800 -0.4331
 6494W        W10545   6.397   5.460   9.523 -0.1167 -0.0202  0.0330
 6495W        W10546   9.123   5.969   1.483 -0.3043 -0.2970 -0.1465
 6496W        W10547   6.948   4.842  10.988 -0.1777 -0.0617  0.0523
 6497W        W10548   6.882   1.025   4.123 -0.0584 -0.0474 -0.0598
 6498W        W10549   5.914   8.807   1.535  0.2443  0.0752  0.1042
 6499W        W10550   9.935   4.245  13.636 -0.1979 -0.0746  0.0743
 6500W        W10551   0.313   3.197  12.191 -0.0238  0.0539 -0.1493
 6501W        W10552   0.717   3.862   9.751 -0.1471 -0.0266  0.0398
 6502W        W10553   1.389   7.266   2.827  0.0776 -0.2226  0.1174
 6503W        W10554   8.788   0.358   3.587 -0.2313 -0.0725  0.2783
 6504W        W10555   8.006   7.230  10.055  0.0000 -0.1448  0.1377
 6505W        W10556   4.890   6.515   9.983  0.3315  0.3747  0.1047
 6506W        W10557   8.599   9.810   4.779  0.3006 -0.1844 -0.0020
 6507W        W10558   5.936   3.892   0.902 -0.0164 -0.0540 -0.2286
 6508W        W10559   8.517   5.856   0.656  0.0154 -0.0751  0.0682
 6509W        W10560   6.781   1.038   3.382  0.1217  0.0942  0.0353
 6510W        W10561   9.020   8.102   1.956  0.1679  0.1236  0.0016
 6511W        W10562   9.330   6.568  10.767 -0.1105  0.0125 -0.0905
 6512W        W10563   3.405   4.982  12.650  0.1245  0.1911  0.0668
 6513W        W10564   7.997   9.273  13.294 -0.1354 -0.0615  0.0476
 6514W        W10565   7.698   4.731  13.632 -0.0162 -0.2039  0.1873
 6515W        W10566   5.146   6.067   3.262 -0.0234  0.0044 -0.1403
 6516W        W10567   6.333   6.353  11.351 -0.1816  0.2355  0.1092
 6517W        W10568   5.259   1.040  13.917  0.0856  0.0116 -0.0457
 6518W        W10569   5.082   9.762   3.816 -0.2328 -0.1431  0.1020
 6519W        W10570   6.864   2.911   0.468  0.1206  0.3308  0.0339
 6520W        W10571   6.052   2.800   1.275  0.0783  0.1367 -0.1139
 6521W        W10572   6.648   7.441  12.722 -0.2332 -0.4485 -0.1773
 6522W        W10573   8.942   4.150  10.040 -0.0226  0.0679 -0.1003
 6523W        W10574   9.311   0.211  12.620  0.0316  0.1673  0.0958
 6524W        W10575   0.389   5.598   9.821  0.0931 -0.2546  0.2143
 6525W        W10576   7.450   9.928  10.840  0.1993  0.0186  0.0298
 6526W        W10577   5.257   3.828  10.173 -0.0008 -0.1508 -0.0557
 6527W        W10578   2.888   5.188  11.470  0.4424  0.0175  0.0792
 6528W        W10579   0.728   1.855   3.411 -0.1265  0.2341 -0.0448
 6529W        W10580   6.983   8.421  12.056 -0.1686 -0.0526  0.0292
 6530W        W10581   7.439   5.415  10.234 -0.2662  0.1718 -0.2024
 6531W        W10582   2.508   1.227  10.614  0.2888  0.3131  0.0768
 6532W        W10583   8.640   1.930   9.543 -0.2155 -0.0212 -0.0203
 6533W        W10584   5.742   7.269   1.686  0.1709 -0.2093  0.0663
 6534W        W10585   5.550   5.767  11.452  0.0058  0.0276  0.3320
 6535W        W10586   8.015   4.504  12.389  0.2773 -0.2354  0.1437
 6536W        W10587   4.148   3.339   9.623 -0.0257 -0.0102 -0.2566
 6537W        W10588   0.210   2.045   0.495  0.4231 -0.0477  0.2467
 6538W        W10589   7.459   5.986   0.323  0.1369 -0.1453 -0.2793
 6539W        W10590   6.033   9.387   0.849  0.3256 -0.0594 -0.4261
 6540W        W10591   2.439   2.246   0.697  0.1395  0.0368  0.2113
 6541W        W10592   8.845   9.085  12.246 -0.0882  0.0855 -0.1375
 6542W        W10593   2.920   4.786   2.857 -0.0214  0.1514 -0.0461
 6543W        W10594   4.137   0.148   9.704 -0.1005  0.1020 -0.1556
 6544W        W10595   5.016   3.505  11.115  0.3902  0.1784 -0.2117
 6545W        W10596   4.809   4.459   9.794  0.0385  0.0386 -0.1158
 6546W        W10597   9.605   9.069  10.110  0.4564 -0.4144 -0.3924
 6547W        W10598   2.095   1.032  10.945 -0.2770  0.0445  0.0481
 6548W        W10599   4.876   2.033   8.609 -0.1066 -0.0362 -0.1808
 6549W        W10600   3.172   3.858  13.853 -0.0407 -0.3862  0.0058
 6550W        W10601   9.864   8.004  12.050 -0.2329  0.0643  0.2374
 6551W        W10602   2.219   1.873   1.698  0.0831  0.3108 -0.2231
 6552W        W10603   8.460   7.496  10.220  0.3831  0.0270 -0.2148
 6553W        W10604   1.051   9.493   0.004 -0.0767  0.0096  0.2818
 6554W        W10605   3.746   1.775  10.571  0.2627  0.0581 -0.0309
 6555W        W10606   8.028   5.235   0.320 -0.0853 -0.0149  0.0976
 6556W        W10607   3.642   6.148   4.148  0.2101  0.2244 -0.1536
 6557W        W10608   9.032   9.805  11.089 -0.2590 -0.2056 -0.0156
 6558W        W10609   0.075   2.824   4.427  0.2669  0.4130 -0.1171
 6559W        W10610   5.430   9.438   3.863  0.1954  0.0274  0.2359
 6560W        W10611   1.400   6.328   2.448  0.0625 -0.2446 -0.2174
 6561W        W10612   1.355   1.263   0.101 -0.1467 -0.1556 -0.3494
 6562W        W10613   4.775   6.043  11.979  0.1344  0.1112 -0.0521
 6563W        W10614   7.042   8.117  13.064 -0.1539  0.0835  0.1234
 6564W        W10615   2.357   0.085   0.652 -0.1012 -0.0170 -0.0932
 6565W        W10616   4.384   0.482   4.436  0.1386 -0.3709 -0.2330
 6566W        W10617   4.880   1.186   9.080  0.0712  0.4407 -0.2518
 6567W        W10618   8.657   4.233   2.927  0.1291  0.1492 -0.1027
 6568W        W10619   6.724   3.300   1.667 -0.1021 -0.1286 -0.2598
 6569W        W10620   3.030   3.560   1.556  0.0153  0.2882 -0.3122
 6570W        W10621   6.246   9.917   1.512  0.0078  0.0179 -0.0581
 6571W        W10622   7.134   1.790  11.285  0.1677 -0.4366 -0.2611
 6572W        W10623   7.585   2.434   5.810  0.0109 -0.2071  0.0322
 6573W        W10624   5.681   8.577   2.508  0.0229  0.0304 -0.0489
 6574W        W10625   1.005   5.893   1.671 -0.2831 -0.0508  0.2119
 6575W        W10626   1.908   0.102  13.061  0.1569 -0.2357 -0.3756
 6576W        W10627   8.833   0.681  11.410 -0.1203  0.2473  0.1071
 6577W        W10628   5.629   4.080   3.281 -0.1685  0.0773 -0.0545
 6578W        W10629   5.918   7.529   3.786 -0.3175  0.0141 -0.0445
 6579W        W10630   2.692   5.139   3.519 -0.3196 -0.0382 -0.0678
 6580W        W10631   2.319   7.365   2.998  0.1157  0.1150 -0.0722
 6581W        W10632   7.464   4.349   2.511  0.0843 -0.4253 -0.0609
 6582W        W10633   6.656   2.940   1.348 -0.0261  0.1201 -0.1366
 6583W        W10634   4.129   2.738   8.638 -0.2216  0.2047 -0.0860
 6584W        W10635   8.205   8.607   4.607 -0.3779  0.1975  0.2130
 6585W        W10636   1.509   8.707   1.237  0.2037  0.0808  0.1006
 6586W        W10637   0.143   6.173  13.076 -0.0386 -0.0441 -0.0630
 6587W        W10638   5.175   7.645   4.173  0.1520 -0.1281 -0.0858
 6588W        W10639   5.148   2.324   0.755  0.0966  0.0444  0.3346
 6589W        W10640   0.538   8.396   2.596 -0.0702 -0.1183  0.0706
 6590W        W10641   5.668   7.143   0.295  0.0571 -0.3884  0.0151
 6591W        W10642  10.009   2.069  11.390  0.1092  0.3050 -0.0161
 6592W        W10643   1.648   5.688  12.696 -0.0798 -0.1092  0.2681
 6593W        W10644   6.663   7.036   9.887 -0.1044  0.1228  0.1092
 6594W        W10645   3.124  10.139  11.064 -0.0108 -0.0590 -0.2685
 6595W        W10646   9.303   8.178   2.989 -0.3601  0.0654  0.2252
 6596W        W10647   8.537   2.991   4.392  0.1786  0.1336 -0.1285
 6597W        W10648   7.214   0.043  11.197  0.0902  0.0328  0.2169
 6598W        W10649   0.354   1.259   1.092 -0.3548  0.1746 -0.1964
 6599W        W10650   0.520   0.726   3.453  0.0117  0.0570  0.1939
 6600W        W10651   1.143   8.346  10.814 -0.0990 -0.0544  0.1624
 6601W        W10652   6.128   0.319   3.998  0.1771  0.0527 -0.0613
 6602W        W10653   2.633   5.263   0.489  0.0574  0.1233 -0.1812
 6603W        W10654   4.402   2.593   2.120  0.0693 -0.0921  0.1063
 6604W        W10655   4.160   9.622   1.612 -0.0135 -0.0510  0.0085
 6605W        W10656   0.103   6.010   9.743 -0.1365 -0.1744  0.0562
 6606W        W10657   8.403   4.847  12.348 -0.2353  0.1435  0.0114
 6607W        W10658   9.770   5.107   1.703  0.4474 -0.2676 -0.2738
 6608W        W10659   8.605   9.882   9.567  0.1341  0.3245  0.2365
 6609W        W10660   7.006   1.024  11.999 -0.2411  0.0605  0.3410
 6610W        W10661   6.482   0.493   4.997 -0.1356  0.0567  0.1105
 6611W        W10662   6.310   2.629  13.089  0.0138  0.0019 -0.1680
 6612W        W10663   4.951   2.095  12.291 -0.4028 -0.1180  0.2299
 6613W        W10664   7.661   1.907  12.959  0.0408  0.1345 -0.2145
 6614W        W10665   3.956   8.766   3.872  0.3384 -0.2514 -0.0248
 6615W        W10666   4.400   5.630  11.241  0.0471 -0.2603  0.0470
 6616W        W10667   4.180   9.000   1.862 -0.1744  0.1703 -0.3952
 6617W        W10668   7.885   4.366  13.205 -0.0128  0.3087 -0.3241
 6618W        W10669   9.158   6.063   3.007  0.3014 -0.1027  0.0790
 6619W        W10670   3.808   5.698   0.147  0.2443 -0.1764  0.1183
 6620W        W10671   2.128   1.236   1.281  0.2657  0.0404 -0.0317
 6621W        W10672   9.703   8.060   0.796 -0.2927  0.0874  0.1691
 6622W        W10673   5.416   7.453  10.150 -0.3097 -0.2049  0.1342
 6623W        W10674   0.020   7.310  10.636  0.0292  0.2702  0.2004
 6624W        W10675   4.542   9.935   1.816  0.0128 -0.1846  0.0632
 6625W        W10676   5.359   9.772  11.391  0.0556 -0.5069 -0.3258
 6626W        W10677   9.678   2.153   4.104  0.0243  0.3470 -0.0725
 6627W        W10678   0.005   4.430   4.884 -0.1750 -0.1164 -0.1279
 6628W        W10679   7.020   1.585  12.588 -0.2880  0.2047 -0.0047
 6629W        W10680   6.220   9.927   2.664  0.0186  0.2329 -0.2521
 6630W        W10681   3.927   9.721   1.162  0.0653  0.1971 -0.1350
 6631W        W10682   1.730   7.858  10.207 -0.0398  0.3996 -0.1350
 6632W        W10683   7.418   6.467  10.986 -0.3300  0.0498  0.0449
 6633W        W10684   3.827   5.013  12.356 -0.1288  0.1162 -0.1849
 6634W        W10685   0.408   3.456   2.918  0.0847 -0.2134 -0.1320
 6635W        W10686   8.658   5.414   0.874 -0.1471 -0.1842  0.0212
 6636W        W10687   0.576   5.430   2.334 -0.1251 -0.3899  0.0495
 6637W        W10688   0.782   5.917  10.652  0.0707  0.0584 -0.1324
 6638W        W10689   8.412   3.953   4.358 -0.0385 -0.1363 -0.3822
 6639W        W10690   8.364   8.175   4.345 -0.1505  0.0515 -0.1477
 6640W        W10691   0.688   7.845   0.625 -0.0325  0.2969  0.0794
 6641W        W10692   0.877   4.285   4.692  0.0386  0.0231 -0.2676
 6642W        W10693   4.762   8.001  12.978  0.0025  0.0043 -0.0284
 6643W        W10694   6.504   1.096   1.843  0.1763  0.2756 -0.0181
 6644W        W10695   9.421   4.509  11.658  0.2324  0.1112  0.0272
 6645W        W10696   7.359   4.616   4.164 -0.1440  0.0880  0.0991
 6646W        W10697   2.598   6.626  12.427  0.2106  0.0961  0.4750
 6647W        W10698   5.689   8.795   2.999 -0.3476  0.0007 -0.0533
 6648W        W10699   2.523   9.716  12.918 -0.1590 -0.2123 -0.0588
 6649W        W10700   4.995   9.256   4.571 -0.0160  0.0713  0.2619
 6650W        W10701   6.076   2.952  12.803 -0.4580  0.0531 -0.1040
 6651W        W10702   4.788   7.735   3.733  0.2521  0.1760  0.1605
 6652W        W10703   1.301   8.924  13.297 -0.0963 -0.1695  0.3049
 6653W        W10704   7.563   2.239  10.044 -0.0514  0.1497  0.4291
 6654W        W10705   2.012   7.903  13.933  0.3231 -0.1486  0.3412
 6655W        W10706   3.566   7.047   1.966  0.5077 -0.3040  0.0989
 6656W        W10707   3.671   0.601  13.654  0.0077  0.1732  0.0951
 6657W        W10708   3.248   9.495   0.600 -0.2036 -0.3204 -0.1726
 6658W        W10709   6.205   8.596   2.540  0.0593  0.1817  0.1105
 6659W        W10710   7.139   4.852   3.791  0.5240 -0.0884 -0.0018
 6660W        W10711   2.952   5.240   1.893 -0.0124 -0.2295  0.0278
 6661W        W10712   1.613   3.963   4.671  0.4604 -0.0282 -0.0537
 6662W        W10713   2.324   9.191  10.934  0.0826  0.1247  0.3565
 6663W        W10714   1.107   2.766  13.121  0.0417  0.0514  0.5018
 6664W        W10715   1.667   0.901   4.166  0.3429  0.1777 -0.0972
 6665W        W10716   5.599   5.850   2.046 -0.2593 -0.3102 -0.0101
 6666W        W10717   2.481   4.713  12.915 -0.1052 -0.1552  0.2839
 6667W        W10718   9.655   0.606   1.586  0.4997 -0.1366  0.1668
 6668W        W10719   1.379   1.257  12.189 -0.2681 -0.0136  0.2375
 6669W        W10720   0.522   8.639   1.621 -0.1361 -0.2950  0.0135
 6670W        W10721   3.638   3.186   0.769  0.0667  0.4440 -0.3552
 6671W        W10722   1.274   6.567   3.073  0.3102  0.4530 -0.0115
 6672W        W10723   1.823   1.581  13.389  0.1922  0.0840 -0.1530
 6673W        W10724   1.273   5.178   9.354  0.2242 -0.3857 -0.0941
 6674W        W10725   9.464   0.726   4.364 -0.2202 -0.1090  0.0853
 6675W        W10726   8.640   1.503   0.958  0.0165  0.0346  0.0292
 6676W        W10727   7.633   8.965   2.072 -0.1276  0.0383 -0.1669
 6677W        W10728   5.997   4.826   9.961 -0.1321  0.2312 -0.2526
 6678W        W10729   7.522   5.607  13.617  0.0179 -0.0865 -0.4225
 6679W        W10730   3.666   3.288  11.754 -0.1568  0.1433 -0.2069
 6680W        W10731   2.178   8.059  12.593 -0.2598  0.0121  0.0254
 6681W        W10732   1.428   1.344  13.559  0.0649  0.0561  0.1607
 6682W        W10733   1.384   8.090  13.667  0.0969  0.0855 -0.2430
 6683W        W10734   2.931   7.472  10.001  0.1236  0.0132 -0.0764
 6684W        W10735   4.380   1.729   0.675 -0.1935  0.0816  0.0847
 6685W        W10736   5.507   2.399   3.852  0.0714 -0.1795 -0.1121
 6686W        W10737   7.764   2.131   1.182  0.2793  0.1035 -0.0777
 6687W        W10738   2.135   8.833  13.110 -0.1411  0.1746 -0.1469
 6688W        W10739   8.865   4.808  12.550 -0.2589  0.0030  0.0464
 6689W        W10740   7.286   0.059  11.771 -0.0736 -0.3576  0.2531
 6690W        W10741   4.974   2.205   1.388  0.0218 -0.2005  0.1783
 6691W        W10742   2.915   6.789   0.949 -0.1671 -0.2513  0.3270
 6692W        W10743   3.523   6.964  12.793 -0.0856 -0.4062 -0.0343
 6693W        W10744   8.906   0.699  12.591 -0.1244 -0.2884 -0.1092
 6694W        W10745   8.465   0.605  12.284  0.2863 -0.0835 -0.1460
 6695W        W10746   0.001   1.070   2.112  0.0789  0.1962 -0.1905
 6696W        W10747   9.947   8.605   3.168  0.1502  0.1276 -0.1279
 6697W        W10748   7.050   7.725  10.522 -0.1480  0.3173 -0.1909
 6698W        W10749   9.896   0.116   9.434 -0.1592  0.0261  0.0086
 6699W        W10750   9.751   2.255  10.466 -0.3157  0.3171 -0.1050
 6700W        W10751   8.189   5.921   9.481 -0.2165  0.1884 -0.1820
 6701W        W10752   0.697  10.101   9.804  0.2684  0.0382  0.0425
 6702W        W10753   2.804   9.509  13.378  0.0575 -0.1557  0.3172
 6703W        W10754   4.130   2.452   1.731  0.2265  0.1383  0.1076
 6704W        W10755   4.622   8.150   0.502 -0.0098 -0.1187 -0.0562
 6705W        W10756   5.315   5.783  10.295  0.5471 -0.1487 -0.2749
 6706W        W10757   5.664   1.223  12.359  0.2953  0.0792 -0.0312
 6707W        W10758   5.211   6.981   0.428  0.2674 -0.1321  0.0711
 6708W        W10759   5.627   2.081   2.696  0.0272  0.0121 -0.1134
 6709W        W10760   4.705   4.691  10.209  0.1696  0.1852 -0.5033
 6710W        W10761   7.700   9.975   4.099  0.2097  0.1132  0.3068
 6711W        W10762   3.977   7.275   1.835 -0.0009 -0.3186 -0.0641
 6712W        W10763   1.739   4.479   3.730 -0.2028  0.0759 -0.1202
 6713W        W10764   8.064   4.368  13.655  0.0338  0.0401  0.1933
 6714W        W10765   7.813   2.680  10.275 -0.0007  0.3437 -0.1824
 6715W        W10766   0.337   3.426   2.369 -0.0362  0.3221  0.3162
 6716W        W10767   7.450   1.058   0.521  0.0489 -0.0615  0.2773
 6717W        W10768   0.953   8.120  12.952  0.0716  0.0985 -0.0376
 6718W        W10769   5.503   3.483   5.711  0.0395  0.0415  0.1442
 6719W        W10770   8.018   8.833  10.945 -0.1094 -0.2271 -0.1892
 6720W        W10771   2.959   4.417   9.685 -0.0557 -0.0963  0.1952
 6721W        W10772   7.830   5.532  12.049  0.5185  0.0068  0.1039
 6722W        W10773   9.583   2.127   2.092  0.1480 -0.1570  0.2083
 6723W        W10774   3.082   0.998   4.488 -0.1090  0.1235 -0.2275
 6724W        W10775   1.715   5.943   2.615 -0.0849  0.3268  0.0293
 6725W        W10776   7.274   1.110  12.661 -0.1497  0.1291 -0.2645
 6726W        W10777   5.883   1.076   3.000 -0.3735 -0.0025  0.0610
 6727W        W10778   6.583  10.065  12.908 -0.1106  0.1533  0.1883
 6728W        W10779   5.958   9.808  11.672  0.0847  0.0719  0.0050
 6729W        W10780   4.918   6.817   2.912  0.0622 -0.2530 -0.0428
 6730W        W10781   1.686   4.323   4.287 -0.2383 -0.2832  0.0264
 6731W        W10782   3.625   2.402  10.418  0.2166  0.0232  0.2587
 6732W        W10783   8.908   4.963   9.936  0.0947  0.3550 -0.1193
 6733W        W10784   0.209   3.971  13.351 -0.0424  0.0845 -0.0300
 6734W        W10785   3.246   2.716   4.463 -0.0408 -0.0325 -0.0965
 6735W        W10786   0.697   5.388   2.851 -0.0499  0.0325  0.0919
 6736W        W10787   5.587   5.909   9.871 -0.0123  0.2012 -0.1115
 6737W        W10788   7.526   2.332   4.432  0.2562 -0.1010  0.4037
 6738W        W10789   2.628   4.656  10.498  0.0989  0.0917  0.0761
 6739W        W10790   9.579   7.805   4.413 -0.1419  0.0660 -0.1666
 6740W        W10791   6.836   6.533   0.260 -0.1614 -0.1043  0.2268
 6741W        W10792   5.310   6.976  11.879 -0.3434  0.1103 -0.1121
 6742W        W10793   4.879   2.674   0.633 -0.0684 -0.1658 -0.2131
 6743W        W10794   9.294   1.020   0.618  0.1334  0.2195  0.1391
 6744W        W10795   6.419   1.628  11.731 -0.1607 -0.1343  0.1578
 6745W        W10796   4.264   7.596   3.516  0.1871  0.0673  0.1176
 6746W        W10797   4.642   6.351   8.632  0.3341  0.0718  0.0058
 6747W        W10798   9.852   1.841   2.553  0.2322 -0.1732 -0.0344
 6748W        W10799   3.579   1.458  13.363  0.3292 -0.0187 -0.2469
 6749W        W10800   7.699   6.447  13.260  0.0353  0.0894 -0.2061
 6750W        W10801   4.167   7.099   3.345 -0.2365 -0.3435 -0.0295
 6751W        W10802   9.399   6.154   4.538 -0.0216 -0.0348  0.1074
 6752W        W10803   4.372   3.443   0.113  0.0328 -0.1028  0.1987
 6753W        W10804   8.058   8.283  13.484  0.0033  0.1338  0.2964
 6754W        W10805   2.685   4.864   9.883  0.1024 -0.0679  0.0036
 6755W        W10806   5.316   0.385   3.262  0.0667  0.1716  0.1835
 6756W        W10807   2.308   3.648   2.006 -0.0101  0.2801 -0.2575
 6757W        W10808   0.607   2.343   0.227 -0.0001  0.0640  0.2019
 6758W        W10809   7.574   9.770   1.368  0.4158  0.0935  0.1111
 6759W        W10810   2.650   4.537  13.388 -0.2820 -0.0116 -0.1105
 6760W        W10811   6.436   2.770  10.775  0.4823  0.1188 -0.1423
 6761W        W10812   7.612   7.218   4.375 -0.0917  0.2483 -0.3133
 6762W        W10813   0.191   5.104  13.674 -0.3252 -0.0294 -0.0967
 6763W        W10814   9.527   4.932   2.857  0.0974  0.0810 -0.0695
 6764W        W10815   0.319   1.297   9.947  0.0280 -0.1050 -0.0431
 6765W        W10816   4.352   2.268   0.181 -0.1477  0.1130 -0.2399
 6766W        W10817   4.594   3.236  10.992 -0.1967 -0.0608  0.0950
 6767W        W10818   1.113   2.678  10.528 -0.1621 -0.0161  0.2635
 6768W        W10819   7.675   9.024  12.975 -0.0180  0.0263 -0.0478
 6769W        W10820   4.466   0.038  11.230 -0.0249  0.1456 -0.0093
 6770W        W10821   3.961   0.185  12.231  0.0978 -0.0042  0.0694
 6771W        W10822   0.981   8.560   5.579  0.0566 -0.0415 -0.1603
 6772W        W10823   7.598   8.176   9.187  0.0691  0.0126 -0.0076
 6773W        W10824   8.892   9.104   0.731  0.2395  0.0223  0.1259
 6774W        W10825   0.886   0.538   1.497  0.2269 -0.0657  0.0384
 6775W        W10826   4.647   9.660   4.052  0.3964 -0.0634 -0.0541
 6776W        W10827   5.088   1.575   3.891 -0.1533 -0.0146 -0.1485
 6777W        W10828   3.792   8.556   4.348 -0.1948 -0.1028 -0.0469
 6778W        W10829   2.245   6.109   1.138  0.3011 -0.2988 -0.2987
 6779W        W10830   9.231   5.328   0.195  0.1729  0.0368  0.1440
 6780W        W10831   6.109   7.053   3.113 -0.4003 -0.4893 -0.0952
 6781W        W10832   2.859   6.157   2.848  0.0602  0.4253  0.0184
 6782W        W10833   0.333   3.513   0.875 -0.0313  0.0054 -0.1446
 6783W        W10834   6.795   8.385   9.607  0.1051  0.1553  0.1665
 6784W        W10835   0.093   9.673  11.998  0.1172 -0.2712 -0.0603
 6785W        W10836   8.551   5.837  11.888 -0.2386 -0.0131  0.0715
 6786W        W10837   7.765   2.407  11.383 -0.0396  0.3599  0.0790
 6787W        W10838   4.234   6.685   4.527  0.2457 -0.0019  0.3222
 6788W        W10839   9.799  10.149   2.204 -0.3550 -0.2863 -0.0485
 6789W        W10840   0.415   2.423   0.676  0.1332  0.2187 -0.0526
 6790W        W10841   5.629   5.583  13.898 -0.0849 -0.1969  0.1197
 6791W        W10842   5.687   6.087  10.410 -0.0767  0.0570 -0.0164
 6792W        W10843   4.589   0.449   5.496 -0.0304 -0.2131  0.1930
 6793W        W10844   4.875   4.114   2.005  0.1834  0.4010 -0.2350
 6794W        W10845   6.573   2.475   9.511  0.0254  0.0783  0.0631
 6795W        W10846   6.708   8.039   9.964  0.1643 -0.0957 -0.0127
 6796W        W10847   6.585   3.917   1.832  0.2016 -0.2303 -0.0235
 6797W        W10848   8.684   1.834   4.849 -0.1885 -0.1342  0.1421
 6798W        W10849   6.107   3.135  13.859 -0.0894 -0.0751 -0.3719
 6799W        W10850   1.390   1.131   3.169 -0.1560 -0.1131  0.2200
 6800W        W10851   5.403   4.276   8.986 -0.0087 -0.2972  0.1557
 6801W        W10852   0.910   6.333  12.284  0.0924 -0.0488  0.1390
 6802W        W10853   4.543   2.143   1.699 -0.1121 -0.2482 -0.0281
 6803W        W10854   2.099   3.868   4.481  0.0555 -0.3486 -0.0670
 6804W        W10855   7.759   8.621   9.918 -0.1963  0.2147  0.0401
 6805W        W10856   5.840   3.493   9.874 -0.1090  0.0094 -0.0657
 6806W        W10857   0.933   4.784   0.419 -0.1201 -0.1277 -0.1688
 6807W        W10858   4.161   4.546   8.835 -0.2790  0.0746  0.1100
 6808W        W10859   0.458  10.006  12.202  0.1272 -0.1375  0.4758
 6809W        W10860   2.339   5.296   1.206 -0.0185  0.1341 -0.2199
 6810W        W10861   2.386   9.641   2.461 -0.3171 -0.0957  0.2058
 6811W        W10862   8.140   2.383  10.120 -0.0330 -0.0982 -0.0793
 6812W        W10863   6.622   6.258   3.694  0.1252  0.1706 -0.0410
 6813W        W10864   7.940   8.646  10.493 -0.0099  0.3570 -0.3976
 6814W        W10865   9.073   8.630   0.959 -0.2953 -0.3488  0.0989
 6815W        W10866   8.661   1.168   3.166  0.2974 -0.0617  0.1632
 6816W        W10867   0.484   8.284   0.309 -0.0166  0.1694 -0.1414
 6817W        W10868   8.929   9.536  13.056  0.1065 -0.3038 -0.3218
 6818W        W10869   3.198   3.630  13.122 -0.1214 -0.2894 -0.2723
 6819W        W10870   2.242   7.903  11.259 -0.0598 -0.2119 -0.1212
 6820W        W10871   6.203   4.241  10.699 -0.0379 -0.1520 -0.1518
 6821W        W10872   3.915   6.281   9.619  0.1713  0.0931  0.2345
 6822W        W10873   3.362   5.453  10.204  0.0343 -0.2248  0.3476
 6823W        W10874   1.180   6.058  11.970 -0.2206  0.0399 -0.0953
 6824W        W10875   9.684   0.285  12.207  0.0920 -0.2213 -0.0610
 6825W        W10876   4.670   4.025  10.116 -0.0603 -0.1449 -0.0483
 6826W        W10877   2.430   0.012   0.170 -0.2213  0.0137 -0.0387
 6827W        W10878  10.128   8.139   3.161 -0.1792 -0.1521  0.1974
 6828W        W10879   9.721   2.201  11.014 -0.1973  0.1774 -0.1036
 6829W        W10880   8.532   0.973  13.119 -0.1386  0.2003 -0.0419
 6830W        W10881   5.949   8.382   0.705 -0.1368 -0.2488 -0.2138
 6831W        W10882   3.859   0.461   9.413 -0.0490 -0.0483  0.3090
 6832W        W10883   8.503   4.479   9.636 -0.1744  0.0605  0.2104
 6833W        W10884   0.186   4.624   9.994 -0.1827 -0.0161  0.3263
 6834W        W10885   6.080  10.120   3.645 -0.3341 -0.1575  0.1060
 6835W        W10886   5.906   6.439   0.722 -0.1653  0.2561  0.0781
 6836W        W10887   4.186   1.761   4.015 -0.0794 -0.0289  0.1326
 6837W        W10888   9.017   0.106  10.994  0.0002 -0.0570  0.0918
 6838W        W10889   1.449   2.148  11.749  0.3048 -0.1497  0.3889
 6839W        W10890   7.870   2.927   1.415 -0.0329  0.0608  0.0328
 6840W        W10891   4.923   3.139   2.850  0.2634  0.0019  0.2384
 6841W        W10892   0.252   2.061  12.333 -0.2945 -0.0266 -0.2559
 6842W        W10893   4.559   3.180  13.693 -0.0014 -0.0260  0.0790
 6843W        W10894   3.045   6.794  12.636 -0.0318  0.2321 -0.1714
 6844W        W10895   7.692   1.879  11.460  0.0229  0.1359  0.0472
 6845W        W10896   4.204   5.087   2.946  0.0120  0.2455  0.0791
 6846W        W10897   8.878   3.655  11.733 -0.0025 -0.2499 -0.1583
 6847W        W10898   4.404   1.335  10.563  0.0429 -0.0307 -0.4624
 6848W        W10899   4.108   7.689  13.648 -0.2476 -0.4076  0.1016
 6849W        W10900   1.660   5.213  11.471 -0.3350  0.0262  0.0102
 6850W        W10901   0.068   0.119   1.997 -0.0106  0.1539 -0.2911
 6851W        W10902   3.623   6.909  13.278  0.4881 -0.1898 -0.5069
 6852W        W10903   3.642   2.514  12.846 -0.0054 -0.3887 -0.0791
 6853W        W10904   7.196   7.099  12.232 -0.1555  0.0783  0.3615
 6854W        W10905   5.584   2.100   4.822 -0.0068 -0.2090  0.0882
 6855W        W10906   1.406   8.332   3.207  0.0081  0.3992  0.1385
 6856W        W10907   6.267   0.026   4.363  0.2763 -0.0087 -0.2778
 6857W        W10908   2.279   5.001   0.771 -0.0363  0.0962  0.1541
 6858W        W10909   7.160   7.973  12.124  0.0677 -0.4562  0.3958
 6859W        W10910   4.699   3.166  10.201  0.2897  0.0575  0.3497
 6860W        W10911   6.341   0.487   8.735 -0.1662 -0.3032 -0.0997
 6861W        W10912   1.865   7.910  10.723 -0.0738  0.0476  0.0553
 6862W        W10913   9.115   2.724  10.116 -0.0264 -0.1059 -0.0457
 6863W        W10914   5.859   6.965  11.570 -0.1388  0.2444 -0.2007
 6864W        W10915   6.501   7.482   8.764  0.0405 -0.2532 -0.0149
 6865W        W10916   1.839   1.375   0.362 -0.0029  0.2899  0.2327
 6866W        W10917   1.668   8.908  12.900 -0.4401 -0.1695 -0.1103
 6867W        W10918   9.185   8.487   4.949 -0.0176 -0.2051 -0.1466
 6868W        W10919   8.426   4.468  12.654  0.0668 -0.4370  0.2613
 6869W        W10920   4.437   4.792  10.674 -0.1899 -0.0713  0.0141
 6870W        W10921   5.908   7.431   4.690  0.0949 -0.2151  0.0467
 6871W        W10922   7.714   1.218   1.102  0.0591  0.1298  0.3291
 6872W        W10923   1.835   7.839  12.879 -0.3130 -0.3120 -0.1860
 6873W        W10924   4.919   3.702   2.775  0.2158 -0.1117 -0.1248
 6874W        W10925   7.015   4.146   1.966 -0.2565 -0.0590 -0.1245
 6875W        W10926   9.389   5.535  10.237  0.2657 -0.0038 -0.1243
 6876W        W10927   0.482   0.037   1.224 -0.1131  0.3871 -0.2263
 6877W        W10928   8.084   3.812   3.451  0.0517 -0.2082 -0.0198
 6878W        W10929   7.007   3.499   4.826  0.1126 -0.0172  0.0757
 6879W        W10930   7.700   9.478   2.696 -0.1655  0.1746 -0.2647
 6880W        W10931   2.815   0.479   0.400 -0.0039 -0.3029 -0.0866
 6881W        W10932   5.372   4.079   1.925 -0.0868 -0.2427  0.1209
 6882W        W10933   6.376   8.704   0.777 -0.0592 -0.0089 -0.0916
 6883W        W10934   7.894   2.494  13.405  0.0341  0.0399  0.0617
 6884W        W10935   4.019   6.082   1.360 -0.1190  0.0194 -0.0511
 6885W        W10936   7.098   2.887   4.948  0.0045  0.0558 -0.0892
 6886W        W10937   8.647   4.272   1.469 -0.5341  0.0223 -0.0075
 6887W        W10938   8.218   2.535  11.213 -0.0847 -0.3313 -0.1848
 6888W        W10939   8.523   7.455   3.597  0.1463  0.1934  0.1619
 6889W        W10940   4.765   8.587   4.284  0.1561 -0.1525 -0.2920
 6890W        W10941   0.531   6.506   0.823 -0.0815 -0.2790 -0.2681
 6891W        W10942   6.194   3.983  11.138  0.1907  0.0074 -0.0389
 6892W        W10943   1.649   2.428   1.983  0.1520 -0.0552  0.0510
 6893W        W10944   6.704   0.951  10.563  0.2397  0.0206 -0.0625
 6894W        W10945   9.522  10.085   4.662  0.1584  0.0940 -0.0680
 6895W        W10946   5.013   6.196   1.164 -0.2236 -0.2602  0.0462
 6896W        W10947   6.870   9.233   2.080 -0.2449 -0.1636 -0.2620
 6897W        W10948   2.040   9.619   1.197  0.0376 -0.1506 -0.0370
 6898W        W10949   5.142   9.873  11.865  0.0043  0.1061  0.2892
 6899W        W10950   2.323   3.086   9.332  0.2567  0.1054 -0.0453
 6900W        W10951   9.783   9.700  11.115 -0.0956 -0.0988 -0.3048
 6901W        W10952   4.958   4.210  12.688  0.0538 -0.1243  0.1050
 6902W        W10953   8.996   9.569  12.524 -0.1395 -0.1035  0.0827
 6903W        W10954   9.086   7.028   4.706  0.1334 -0.2316  0.2436
 6904W        W10955   9.447   8.729   9.139 -0.0589 -0.2094  0.0673
 6905W        W10956   7.444   8.605  12.296  0.0112  0.2378 -0.0458
 6906W        W10957   8.483   2.222   4.590 -0.1774 -0.1626 -0.4730
 6907W        W10958   3.277   5.429   1.069  0.0490 -0.1489 -0.0789
 6908W        W10959   6.357   0.430   3.419  0.0678  0.0796  0.1182
 6909W        W10960   8.550   9.810   4.244  0.2391 -0.2410 -0.2143
 6910W        W10961   2.883   7.176   9.596 -0.1424  0.1073  0.1328
 6911W        W10962   5.199   3.233   1.699  0.1181  0.0210  0.0423
 6912W        W10963   0.292   4.683   9.522  0.1571  0.0264  0.1481
 6913W        W10964   5.091   3.868   4.484  0.1458  0.0149  0.1255
 6914W        W10965   2.386   7.814  10.784 -0.1230  0.0724  0.1175
 6915W        W10966   4.927   1.488  10.491  0.2119  0.1436 -0.0694
 6916W        W10967   1.783   0.748   0.183 -0.2469 -0.0815 -0.1262
 6917W        W10968   8.631   0.047   2.186  0.0870  0.2887  0.1197
 6918W        W10969   5.591   3.108  12.689 -0.1469 -0.0508  0.0831
 6919W        W10970   1.726   5.561   9.273  0.2236  0.1941 -0.0027
 6920W        W10971   8.260   7.295   4.355 -0.2079 -0.2528  0.0823
 6921W        W10972   4.170   0.165  10.685  0.0746  0.3739  0.0801
 6922W        W10973   6.430   9.523   5.503 -0.1442 -0.3379 -0.1087
 6923W        W10974   0.591   1.229   3.614 -0.0055  0.0793 -0.2531
 6924W        W10975   8.262   5.732   3.991  0.0726 -0.1614 -0.1114
 6925W        W10976   9.237   2.896   1.935 -0.0231  0.0905  0.0467
 6926W        W10977   1.909   9.258  11.897  0.2172 -0.0296 -0.2158
 6927W        W10978   2.823   4.248  10.697  0.0471 -0.0927  0.2238
 6928W        W10979   9.767   1.575  10.257 -0.0192 -0.0745 -0.0797
 6929W        W10980   5.898   3.609   3.252  0.1204  0.0577 -0.2912
 6930W        W10981   5.668   4.857  12.966  0.0911  0.1513 -0.0435
 6931W        W10982   1.057   0.574  12.231  0.1151  0.0110 -0.0126
 6932W        W10983   0.245   2.002  12.849  0.1152 -0.2420  0.4387
 6933W        W10984   8.930   5.750   1.095 -0.0381 -0.1197  0.0086
 6934W        W10985   6.495   5.428   1.348 -0.1676 -0.0542 -0.1999
 6935W        W10986   3.149   7.053  13.407  0.2997  0.1275  0.2255
 6936W        W10987   7.064   7.045   9.646 -0.2696  0.4236  0.1715
 6937W        W10988   1.271   5.128  13.610 -0.3141  0.1688  0.1670
 6938W        W10989   8.165   5.395   1.537 -0.3189  0.0842 -0.2040
 6939W        W10990   5.755   6.385   1.274  0.1249  0.0827 -0.1295
 6940W        W10991   9.369   9.473   2.348 -0.0471  0.0634 -0.0066
 6941W        W10992   5.979   3.222   0.803 -0.3358  0.0157  0.0206
 6942W        W10993   2.096   9.270   0.741  0.0410 -0.1746 -0.0334
 6943W        W10994   6.599   4.784   3.521  0.1383 -0.0873  0.1106
 6944W        W10995   5.526   8.513   9.291  0.0572 -0.3804  0.0966
 6945W        W10996   5.238   9.316  12.332 -0.0589  0.0840  0.1067
 6946W        W10997   7.177   8.218  12.554 -0.0312 -0.1834  0.1642
 6947W        W10998   5.093   0.091  10.516 -0.1044  0.1294 -0.3433
 6948W        W10999   9.619   5.884   1.332  0.3540  0.0595 -0.0231
 6949W        W11000   7.991   0.858   0.666  0.1045 -0.1795  0.1064
 6950W        W11001   5.237   8.129  10.739  0.0132 -0.2730 -0.1040
 6951W        W11002   5.690   5.159  11.665 -0.1009 -0.0063 -0.1132
 6952W        W11003   9.162   3.355   2.967  0.1767  0.2445 -0.1049
 6953W        W11004   0.848   0.143  13.042  0.0852 -0.1229  0.0648
 6954W        W11005   2.608   1.112   1.923  0.1190  0.0454 -0.1053
 6955W        W11006   8.321   6.811  10.001 -0.0211 -0.0414  0.1716
 6956W        W11007   1.937   6.483  12.670 -0.2438 -0.2006 -0.0770
 6957W        W11008   5.843   9.312   3.006  0.0163 -0.0034  0.0312
 6958W        W11009   6.833   7.348  13.754  0.1807 -0.0100 -0.2423
 6959W        W11010   6.011   8.535  11.008 -0.1287  0.2276 -0.0650
 6960W        W11011   7.822   3.529  13.492 -0.0996 -0.0183  0.2703
 6961W        W11012   1.220   3.375  11.821 -0.0411 -0.0433 -0.1116
 6962W        W11013   2.535   7.738   0.006  0.1508 -0.0083  0.1986
 6963W        W11014   4.250   6.408  13.732  0.2648  0.1395 -0.3392
 6964W        W11015   3.710   6.226  13.009 -0.0857  0.0486  0.1518
 6965W        W11016   4.220   6.061  12.867  0.0126  0.1495 -0.0286
 6966W        W11017   9.686   1.013   1.923  0.0003 -0.3527 -0.0092
 6967W        W11018   8.526   7.032   5.369  0.1952 -0.0381 -0.0915
 6968W        W11019   8.451   3.288  10.302  0.2210  0.0595 -0.1767
 6969W        W11020   1.122   8.611   9.909 -0.1540 -0.2285  0.2325
 6970W        W11021   6.475   2.577   0.475 -0.1750 -0.2444  0.3288
 6971W        W11022   8.939   5.685   3.352  0.1876  0.0082  0.1300
 6972W        W11023   3.167   1.889   1.985  0.0152  0.0095 -0.1162
 6973W        W11024   3.149   3.062  13.192 -0.1062  0.1121  0.0831
 6974W        W11025   6.523   2.135  11.947 -0.2451 -0.2070 -0.2745
 6975W        W11026   1.530   8.165  12.728  0.0769 -0.2100  0.3155
 6976W        W11027   3.852   9.128  11.882  0.1652 -0.0321 -0.2399
 6977W        W11028   3.323   2.163  13.293  0.0301  0.0101  0.2285
 6978W        W11029   0.493   2.031   3.832  0.3334  0.2649 -0.3116
 6979W        W11030   4.378   8.258  10.851  0.1212 -0.0264  0.0902
 6980W        W11031   7.652   1.290  10.797  0.2313  0.1699  0.2164
 6981W        W11032   0.327   7.055  11.550  0.3412 -0.0180  0.2158
 6982W        W11033   1.077   4.753   1.831  0.0729  0.1353  0.0657
 6983W        W11034   6.561   6.867   3.670  0.3589  0.1452 -0.0728
 6984W        W11035   3.124   3.076   0.702  0.1475 -0.2053  0.1929
 6985W        W11036   9.341   3.638  11.386 -0.1691  0.1521  0.0220
 6986W        W11037   0.641   7.432   2.337  0.3097  0.1154  0.1775
 6987W        W11038   5.283   1.029   4.607 -0.1627 -0.2937 -0.0630
 6988W        W11039   8.898   0.531   4.419  0.2959 -0.1179  0.5612
 6989W        W11040   7.979   7.803  11.781  0.2189 -0.0514 -0.0144
 6990W        W11041   0.818   1.094   2.055 -0.3265 -0.0155 -0.3473
 6991W        W11042   7.044   8.726   2.414 -0.0804  0.1035  0.0211
 6992W        W11043   9.033   5.534  11.136 -0.0824  0.2053  0.1917
 6993W        W11044   5.260   4.689   3.878  0.0559 -0.2494  0.2008
 6994W        W11045   0.840   6.157   0.917 -0.0741 -0.0509  0.4267
 6995W        W11046   2.324   3.586  13.516 -0.0465 -0.0281  0.0411
 6996W        W11047   7.420   4.427   9.745 -0.3577  0.0161 -0.3088
 6997W        W11048   8.683   6.974  14.007  0.2340 -0.2355 -0.4039
 6998W        W11049   1.611   4.644   5.710 -0.0524 -0.0780 -0.0102
 6999W        W11050   9.426   0.698  12.778 -0.0346  0.0982  0.1869
 7000W        W11051   7.373   0.733   4.628  0.0297 -0.2744 -0.0713
 7001W        W11052   1.708   5.223  12.019  0.0570 -0.0850 -0.1600
 7002W        W11053   3.239   2.291   0.464 -0.0962  0.1601 -0.1803
 7003W        W11054   6.976   1.777   2.368 -0.0595 -0.0374  0.2466
 7004W        W11055   5.445  10.042   1.176 -0.4785  0.2198 -0.1191
 7005W        W11056   2.945   1.263   0.730 -0.0983  0.2489  0.1792
 7006W        W11057   0.543   0.895   2.958 -0.0106 -0.4367  0.0658
 7007W        W11058   0.726   8.918   9.769  0.0324  0.1783  0.2479
 7008W        W11059   4.477   0.398  12.031  0.0009 -0.2139  0.2473
 7009W        W11060   6.043   4.264   1.356 -0.2950 -0.1966  0.1814
 7010W        W11061   0.193   1.044  11.007 -0.2528  0.0862 -0.1002
 7011W        W11062   4.299   3.963   9.735 -0.0364 -0.1499  0.4342
 7012W        W11063   0.135   2.152   1.054  0.2017  0.2228 -0.0090
 7013W        W11064   2.665   6.513   0.513 -0.3696 -0.1873 -0.0094
 7014W        W11065   5.889   8.387   9.594 -0.0699 -0.1921 -0.2543
 7015W        W11066   2.332   0.390   1.423  0.1198 -0.0875 -0.0844
 7016W        W11067   5.872   6.520  11.321 -0.0726  0.0870 -0.4228
 7017W        W11068   1.266   8.578  12.853  0.2146 -0.1443  0.2215
 7018W        W11069   5.403   1.171  11.833  0.0812 -0.0433  0.0391
 7019W        W11070   8.344   4.927   0.563  0.1889 -0.4712 -0.0618
 7020W        W11071   6.029   6.912   4.280 -0.0536 -0.1177  0.2448
 7021W        W11072   8.664   8.241   2.301 -0.2970 -0.2171  0.2271
 7022W        W11073   0.027   6.621  11.748 -0.3570  0.2012 -0.0122
 7023W        W11074   4.021   4.283   0.208 -0.2266 -0.1240  0.0825
 7024W        W11075   3.878   1.255  12.880 -0.1013  0.1826  0.2628
 7025W        W11076   1.507   1.364   1.331 -0.2383  0.0714  0.1314
 7026W        W11077   5.335   8.023  13.998 -0.2339  0.1605 -0.0671
 7027W        W11078   7.334   1.441   0.862  0.1442  0.1290 -0.1736
 7028W        W11079   6.199   3.773   2.856 -0.1335  0.3756 -0.0981
 7029W        W11080   7.943   0.728  11.765  0.2884  0.0796 -0.1046
 7030W        W11081   6.729   3.867  11.744  0.2648  0.1079  0.0122
 7031W        W11082   0.053   5.293  12.790 -0.0110 -0.1085  0.1442
 7032W        W11083   6.991   2.199  10.993 -0.3292  0.0368  0.2738
 7033W        W11084   5.179   9.633   4.248  0.2611  0.1828 -0.3278
 7034W        W11085   6.721   3.119  10.465 -0.2577  0.0670  0.2380
 7035W        W11086   3.870   3.591  12.558  0.0920 -0.0557 -0.2190
 7036W        W11087   6.266   3.818   9.175 -0.2711 -0.0470  0.1820
 7037W        W11088   3.479   0.606   0.743 -0.1236  0.1347 -0.0805
 7038W        W11089   2.268   9.104   2.685 -0.0267  0.0225 -0.1186
 7039W        W11090   4.697   7.376   3.373 -0.0392  0.2988  0.1112
 7040W        W11091   9.043   9.953   9.915  0.6043  0.1752 -0.0430
 7041W        W11092   1.724   1.176   2.167 -0.0381 -0.1598 -0.0860
 7042W        W11093   7.214   3.147   9.873 -0.0501 -0.1880  0.1166
 7043W        W11094   9.083   4.566   9.723  0.1078  0.0878  0.1575
 7044W        W11095   8.596   8.515   4.056 -0.4806  0.1497 -0.0818
 7045W        W11096   2.524   4.020  13.990 -0.3942  0.0760 -0.1844
 7046W        W11097   5.855   7.974  12.729  0.0421 -0.0618  0.3192
 7047W        W11098   7.053   8.487  11.515  0.1103  0.1376  0.0472
 7048W        W11099   2.989   6.142   3.736  0.1917  0.1771  0.1129
 7049W        W11100   6.969   3.023  13.670 -0.1228 -0.0288 -0.2038
 7050W        W11101   4.379   3.592  11.279 -0.3209 -0.1436 -0.2179
 7051W        W11102   4.879   0.105  12.332 -0.0783  0.1171  0.0312
 7052W        W11103   3.864   1.132   1.847  0.0817  0.0872  0.1995
 7053W        W11104   8.974  10.114   9.221 -0.2661  0.1556  0.0765
 7054W        W11105   6.523   4.175   9.446  0.1200 -0.0209  0.1137
 7055W        W11106   3.950   2.669   0.845  0.0332 -0.1932  0.0499
 7056W        W11107   3.582   4.413  11.598  0.2488 -0.1536 -0.2578
 7057W        W11108   5.537   1.356   1.858 -0.2547  0.1431 -0.0772
 7058W        W11109   1.820   6.286   0.540 -0.0755 -0.0920  0.0148
 7059W        W11110   3.109   3.900   1.219 -0.3969 -0.1391  0.1462
 7060W        W11111   8.189   7.862   1.391  0.0755  0.1987 -0.0332
 7061W        W11112   6.173   8.147  11.992  0.1688 -0.1901 -0.2498
 7062W        W11113   4.358   0.797   0.282 -0.3899 -0.2142  0.1059
 7063W        W11114   3.691   3.781   3.704  0.2164 -0.0963 -0.2942
 7064W        W11115   9.925   2.223   1.683  0.2490 -0.0397 -0.5099
 7065W        W11116   3.596   2.428   3.691  0.1940  0.2150  0.0452
 7066W        W11117   4.059   8.830   3.386 -0.0260 -0.0746  0.0211
 7067W        W11118   3.904   8.362   2.590 -0.1311  0.0420 -0.0601
 7068W        W11119   2.122   9.911   3.240  0.2591  0.1146  0.5220
 7069W        W11120   3.997   9.352  12.785  0.1235 -0.2420 -0.0650
 7070W        W11121   9.859   9.458   2.134  0.1829  0.0991 -0.0167
 7071W        W11122   7.378   6.102  11.371  0.0555 -0.0846  0.1653
 7072W        W11123   7.172   0.345   1.816 -0.0955 -0.1105 -0.4302
 7073W        W11124   3.686   5.042  11.392  0.1323  0.4654 -0.0693
 7074W        W11125   5.503   6.503  12.257  0.4489 -0.2462 -0.2464
 7075W        W11126   2.296   8.797   3.211 -0.0238 -0.0594 -0.0143
 7076W        W11127   8.726   0.552  13.428  0.1665 -0.1270 -0.0657
 7077W        W11128   0.370   2.364   2.511  0.0291 -0.0252  0.1209
 7078W        W11129   6.888   7.629   5.534  0.3898 -0.2182 -0.0373
 7079W        W11130   0.283   4.266  12.353  0.0791  0.0212  0.1715
 7080W        W11131   2.758   0.217  11.762  0.0429 -0.0777 -0.1360
 7081W        W11132   9.957   9.254  12.719  0.0041  0.3111 -0.1129
 7082W        W11133   8.590   1.643   3.336 -0.0267 -0.0206 -0.2434
 7083W        W11134   2.448   2.515   2.379  0.1102 -0.2826 -0.0315
 7084W        W11135   0.479   7.709  13.384 -0.2676 -0.2386 -0.0669
 7085W        W11136   8.317   3.803  10.496 -0.1688 -0.1817 -0.1552
 7086W        W11137   7.640   9.501  11.145  0.4431 -0.0385  0.1407
 7087W        W11138   7.977   6.085   0.460  0.0327 -0.2414 -0.1096
 7088W        W11139   9.355   4.938  12.421  0.3550 -0.2510 -0.2932
 7089W        W11140   4.655   6.333   0.062  0.1975  0.1345  0.1965
 7090W        W11141   8.915   3.445  10.514  0.1129 -0.0260  0.1034
 7091W        W11142   4.130   3.977   5.097 -0.2428 -0.1207 -0.1053
 7092W        W11143   3.189   1.745   9.666 -0.0186 -0.1273 -0.0128
 7093W        W11144   5.151   3.088   4.397 -0.1640 -0.1204 -0.0038
 7094W        W11145   3.904   7.542  11.990 -0.2091 -0.0124 -0.1379
 7095W        W11146   1.776   0.468  11.775  0.2418  0.1055  0.0584
 7096W        W11147   4.013   1.890   0.306 -0.0657  0.3477 -0.1176
 7097W        W11148   4.177   9.879   0.205 -0.1151 -0.0807  0.0671
 7098W        W11149   5.176   1.357  10.063  0.0449  0.0095  0.1050
 7099W        W11150   5.641   8.300   1.530  0.0430  0.0575 -0.2457
 7100W        W11151   1.438   5.570   2.831 -0.3548 -0.0036  0.0981
 7101W        W11152   0.159   6.427  10.183 -0.3638 -0.2803  0.3671
 7102W        W11153   5.541   7.602  12.883 -0.1382  0.1662  0.0701
 7103W        W11154   6.061   0.920   4.357  0.1324 -0.1511  0.1350
 7104W        W11155   8.943   9.308   3.733  0.0707  0.2174  0.2402
 7105W        W11156   2.666   7.787  10.256 -0.1928 -0.1504 -0.0695
 7106W        W11157   5.511   8.131   2.084  0.3031  0.3524 -0.4438
 7107W        W11158   3.988   2.317  13.182  0.0166  0.0462 -0.0679
 7108W        W11159   1.041   7.536  13.256 -0.1785  0.2043  0.0537
 7109W        W11160   4.446   1.456   4.418  0.0183 -0.1361 -0.1026
 7110W        W11161   5.343   9.696  12.827  0.0958 -0.0800  0.2737
 7111W        W11162   5.161   6.882   1.894  0.1568 -0.2098  0.3000
 7112W        W11163   5.069   4.315  10.203  0.0693  0.0562  0.0860
 7113W        W11164   4.153   3.032  10.861 -0.1422 -0.1331 -0.1084
 7114W        W11165   9.809   7.800  10.839 -0.2199 -0.0412 -0.0392
 7115W        W11166   6.745   4.230  12.486 -0.0061 -0.0428 -0.2215
 7116W        W11167   5.554   9.610   2.106  0.0480  0.0697  0.1094
 7117W        W11168   4.139   7.727   1.872  0.1246 -0.1207 -0.1643
 7118W        W11169   5.920   4.378   9.744  0.1076 -0.2260  0.2227
 7119W        W11170   1.642   9.912  10.424 -0.0061  0.1203  0.1248
 7120W        W11171   0.418   3.270   9.030  0.0141 -0.3650 -0.1845
 7121W        W11172   6.859  10.071   4.218  0.1605 -0.0936 -0.0367
 7122W        W11173   4.616   0.195  10.464  0.1754  0.2033 -0.5961
 7123W        W11174   5.103   1.894   4.924  0.0944 -0.0446  0.2229
 7124W        W11175   0.550   5.343   8.592 -0.3520 -0.0545 -0.0399
 7125W        W11176   5.008   9.985  13.804 -0.0080  0.0300 -0.0813
 7126W        W11177   0.170   9.315  13.827 -0.1679  0.0564  0.4889
 7127W        W11178   8.045   1.939  13.372 -0.2544  0.0055  0.1949
 7128W        W11179   2.610   1.097  10.122  0.2319  0.1090 -0.0145
 7129W        W11180   9.222   7.936  12.653  0.1138  0.0474 -0.0333
 7130W        W11181   1.394   2.832   0.016 -0.1907  0.0343 -0.1744
 7131W        W11182   3.827   1.558  12.417 -0.3514 -0.1356  0.0022
 7132W        W11183   6.385   2.790   4.895 -0.0591 -0.0695  0.0779
 7133W        W11184   3.262   9.882   9.298 -0.1753 -0.1022 -0.1364
 7134W        W11185   4.796   2.666   5.126  0.6674 -0.0469  0.0214
 7135W        W11186   0.852   6.040   4.208  0.2866  0.3909 -0.1762
 7136W        W11187   0.431   4.157   2.180 -0.3452  0.2893 -0.0816
 7137W        W11188   4.797   3.619   3.246 -0.1771 -0.3232  0.0371
 7138W        W11189   4.711   9.710   4.511 -0.1422  0.1164  0.0291
 7139W        W11190   0.067   8.371   2.265  0.0921 -0.1047 -0.3442
 7140W        W11191   8.268   3.170   5.684 -0.0456  0.1183 -0.0498
 7141W        W11192   0.218   8.791  11.570  0.2410  0.0909  0.0145
 7142W        W11193   5.974   7.163   2.347  0.0677  0.0628  0.0352
 7143W        W11194   2.016   8.270  13.152  0.2074 -0.1258  0.4881
 7144W        W11195   2.672   8.268  10.093  0.1485 -0.3337  0.1321
 7145W        W11196   4.788   8.848   1.875  0.0993  0.0326 -0.4882
 7146W        W11197   9.503   4.926   1.293 -0.0077  0.2589  0.3005
 7147W        W11198   2.726   0.707  10.398  0.2086 -0.2803  0.0048
 7148W        W11199   5.942   5.403  11.280 -0.0829 -0.0267 -0.0782
 7149W        W11200   1.634   5.541  13.679  0.2805  0.0905 -0.0013
 7150W        W11201   6.108   5.236  10.791 -0.2486  0.2840 -0.1498
 7151W        W11202   7.817   4.400   0.052  0.2055  0.0207 -0.0635
 7152W        W11203   0.805   9.419   1.384 -0.3292  0.1250  0.0434
 7153W        W11204   2.091   0.648   2.646 -0.1137  0.3057 -0.2178
 7154W        W11205   0.706   2.889  10.854  0.1488 -0.1838 -0.0665
 7155W        W11206   1.477   5.430   6.037  0.0180  0.0842  0.1291
 7156W        W11207   2.542   5.962  11.809 -0.1296  0.2734  0.0044
 7157W        W11208   9.088   6.769   1.042  0.0972 -0.1776  0.0525
 7158W        W11209   9.409   5.280   4.229  0.0664  0.1407  0.0624
 7159W        W11210   5.624   3.168  13.531 -0.1387 -0.0362  0.2218
 7160W        W11211   2.602   6.012  13.086 -0.2046 -0.2872  0.0639
 7161W        W11212   2.190   7.950   0.914  0.1523  0.0375  0.1195
 7162W        W11213   1.579   0.005  12.642 -0.0829  0.2229  0.0252
 7163W        W11214   2.662   4.626  11.527  0.1617 -0.4009 -0.0100
 7164W        W11215   7.842   6.948   0.192  0.0534  0.0983 -0.0288
 7165W        W11216   6.513   0.570  10.291 -0.1619  0.3290 -0.1501
 7166W        W11217   3.618   4.816  13.679 -0.1369 -0.0313  0.1032
 7167W        W11218   7.114   1.239   0.175  0.2500 -0.2157 -0.1747
 7168W        W11219   9.180   7.878   1.521  0.1168 -0.5073  0.1486
 7169W        W11220   9.085   6.070   2.516  0.0551 -0.3977  0.1236
 7170W        W11221   5.041   8.758  12.256  0.1044 -0.3428 -0.2518
 7171W        W11222   8.882   5.915  11.488  0.0059  0.3069  0.4189
 7172W        W11223   6.791   3.283   0.856 -0.1004  0.0172  0.1722
 7173W        W11224   0.081   0.183  10.541  0.0067  0.0110 -0.1493
 7174W        W11225   0.672   9.866  13.208 -0.0507 -0.0979 -0.1864
 7175W        W11226   8.510   6.475  13.892 -0.2097 -0.2029  0.0398
 7176W        W11227   1.150   5.749  13.054 -0.0529  0.3440  0.2083
 7177W        W11228   8.863   2.897   9.539 -0.2400 -0.0303 -0.1751
 7178W        W11229   0.377   0.993  12.946 -0.2889 -0.0299  0.1825
 7179W        W11230   5.606   0.159   9.946 -0.0001 -0.0808 -0.0140
 7180W        W11231   0.241   6.277   2.730  0.2743 -0.0870 -0.0057
 7181W        W11232   7.438   5.391   9.631  0.2159 -0.1587  0.0858
 7182W        W11233   3.537   9.006   4.206  0.4017 -0.2898 -0.2618
 7183W        W11234   0.219   4.024   0.849 -0.0274 -0.2320  0.1520
 7184W        W11235   5.326   1.788   1.024  0.0405 -0.4212 -0.1500
 7185W        W11236   6.484   5.542  11.065  0.1163  0.1064 -0.2295
 7186W        W11237   7.573   7.592  13.971  0.1625  0.1518 -0.1384
 7187W        W11238   9.640   2.823   5.445  0.0995 -0.0678 -0.1173
 7188W        W11239   5.827   3.251  12.200 -0.3362  0.0780 -0.3741
 7189W        W11240  10.099   3.183   0.944 -0.3277  0.1181 -0.1205
 7190W        W11241   9.796   3.925  10.466  0.3121  0.0702 -0.0944
 7191W        W11242   6.863   2.539   0.068 -0.0253  0.3305  0.0419
 7192W        W11243   7.949   6.648  10.319  0.3060  0.0596 -0.0497
 7193W        W11244   1.693   7.067  12.074 -0.0025 -0.0797 -0.1653
 7194W        W11245   8.389   1.478   9.418 -0.0522  0.0143  0.4156
 7195W        W11246   2.220   0.650   3.183  0.0602  0.2689  0.1781
 7196W        W11247   8.453   7.782  10.642 -0.1448 -0.0739  0.1108
 7197W        W11248   6.120   4.727  13.136  0.1453 -0.1827  0.0491
 7198W        W11249   7.465   0.432  11.439  0.2150 -0.1234  0.0388
 7199W        W11250   6.214   9.806  10.648  0.2880  0.1177 -0.1070
 7200W        W11251   7.841   7.671  12.685 -0.0331  0.3577  0.0788
 7201W        W11252   8.833   0.184  13.743 -0.2218 -0.0164  0.3462
 7202W        W11253   4.959   1.545   2.760  0.0501 -0.2729 -0.0487
 7203W        W11254   8.159   8.264   0.392  0.1506  0.2255 -0.0338
 7204W        W11255   8.593   2.252   2.183  0.0680 -0.0626  0.0681
 7205W        W11256   1.309   7.508   3.361  0.3841  0.0398 -0.0741
 7206W        W11257   4.130   2.319   1.180 -0.1703 -0.1637  0.0571
 7207W        W11258   9.027   8.571   3.172  0.1663 -0.2240  0.0721
 7208W        W11259   8.048   6.132  10.249  0.1825  0.0805 -0.1653
 7209W        W11260   6.598   2.874  12.750 -0.0810 -0.0036  0.0274
 7210W        W11261   7.617   3.472   9.830  0.1370  0.2271 -0.4314
 7211W        W11262   5.134   4.273   4.974  0.0814 -0.0261  0.2359
 7212W        W11263   5.325   0.502   9.118  0.0004  0.1455  0.2846
 7213W        W11264   4.889   3.432   4.655 -0.0965  0.0260 -0.0910
 7214W        W11265   7.288   7.631  13.521  0.0542  0.1226  0.1661
 7215W        W11266  10.080   3.364   9.842 -0.2086 -0.0344 -0.3151
 7216W        W11267   9.079   1.416   0.793  0.0368  0.0228  0.0416
 7217W        W11268   6.053   7.731   3.340  0.0501 -0.2423  0.0107
 7218W        W11269   4.421   9.150   3.778 -0.0750  0.4309  0.0242
 7219W        W11270   4.196   6.313  13.281  0.3802 -0.0724 -0.0241
 7220W        W11271   8.243   1.979   2.582 -0.1664 -0.1648  0.0269
 7221W        W11272   7.869   8.981  13.731  0.2140  0.2005  0.3043
 7222W        W11273   5.828   8.255  10.625  0.0832  0.0557 -0.0935
 7223W        W11274   2.616   7.818   2.943  0.1376  0.1801 -0.1336
 7224W        W11275   3.901   2.145  12.470  0.1047 -0.0398  0.0408
 7225W        W11276  10.112   4.283  10.242  0.0573  0.1784  0.1252
 7226W        W11277   8.447   6.324   3.797  0.0204  0.0958  0.4756
 7227W        W11278   1.821  10.046  13.964  0.2209  0.1507  0.0728
 7228W        W11279   5.997   5.135   0.678 -0.2726 -0.0522 -0.1503
 7229W        W11280   7.677   2.532  12.893 -0.0996 -0.1727 -0.0583
 7230W        W11281   4.281   0.095  11.668 -0.1080  0.2135 -0.3267
 7231W        W11282   3.672   4.640   1.525  0.3042 -0.5163  0.0195
 7232W        W11283   8.966   8.356  12.888 -0.1759  0.2397  0.0367
 7233W        W11284   6.014   2.274   1.062  0.2280  0.2352 -0.1461
 7234W        W11285   3.956   5.958   4.516 -0.2539 -0.0046 -0.1827
 7235W        W11286   7.908   2.751  12.176  0.1939  0.0671 -0.1325
 7236W        W11287   8.195   6.970   9.453 -0.0363 -0.1038 -0.1460
 7237W        W11288   6.835   6.605   9.717  0.0538  0.0638 -0.0236
 7238W        W11289   6.031   3.429  11.570  0.0331  0.1969  0.3269
 7239W        W11290  10.082   0.198  11.202  0.1376 -0.0842 -0.2413
 7240W        W11291   6.724   0.090   4.670  0.2804 -0.1229 -0.1251
 7241W        W11292   0.368   9.591   1.407 -0.0739 -0.0297 -0.2486
 7242W        W11293   3.442   4.100   6.279 -0.4337  0.2328  0.1983
 7243W        W11294   5.314   8.274  11.287  0.3253  0.1569  0.3515
 7244W        W11295   9.787   0.268  10.845 -0.0052 -0.1978 -0.1861
 7245W        W11296   3.284   4.470   2.703 -0.5097 -0.1217 -0.0391
 7246W        W11297   5.174   5.512   0.061 -0.1907 -0.0173  0.0369
 7247W        W11298   9.617   1.364   4.188  0.0104  0.0626  0.2841
 7248W        W11299   5.884   8.769  10.496 -0.0770  0.0295  0.2002
 7249W        W11300   8.549   6.479   1.694 -0.0250  0.0596  0.0072
 7250W        W11301   5.252   5.056   1.584  0.2426  0.2375  0.2368
 7251W        W11302   5.760   2.075   9.827  0.0862  0.4020  0.1103
 7252W        W11303   3.314   0.619  10.329  0.2177  0.2684 -0.1913
 7253W        W11304   3.439   6.880  12.324 -0.0909 -0.1267 -0.0574
 7254W        W11305   3.050   7.952   0.046 -0.0819 -0.0259  0.5066
 7255W        W11306   3.761   5.058  10.151  0.1779 -0.2032  0.1444
 7256W        W11307   1.707   3.398  11.545  0.1473 -0.2925 -0.1073
 7257W        W11308   5.757   9.869   2.993 -0.1701  0.0821 -0.2483
 7258W        W11309   0.397   7.720  10.314  0.1868 -0.0840 -0.1126
 7259W        W11310   5.245   9.010   4.136  0.1301  0.3195 -0.0716
 7260W        W11311   6.625   6.798  11.383  0.0556 -0.1475  0.2783
 7261W        W11312   8.898   1.015   0.204 -0.1286  0.2025  0.1842
 7262W        W11313   6.990   5.324  11.032  0.0003 -0.2068  0.1358
 7263W        W11314   1.997   3.181   9.729  0.0291 -0.0904  0.1644
 7264W        W11315   6.598   2.286   9.980 -0.1722 -0.1925  0.1779
 7265W        W11316   4.145   3.414   4.557 -0.1902  0.0420 -0.0085
 7266W        W11317   2.439   6.816   3.217 -0.0331  0.1386  0.0685
 7267W        W11318   5.458   1.420  13.596 -0.2356 -0.4289  0.2634
 7268W        W11319   1.392   6.050  10.693  0.0357  0.1740 -0.0344
 7269W        W11320   7.637   3.868   1.211 -0.0473 -0.3294  0.0045
 7270W        W11321   7.870   3.064   5.160  0.2041  0.1259 -0.1740
 7271W        W11322   4.555  10.100  12.686 -0.2108  0.0666 -0.2143
 7272W        W11323   9.388   2.525  12.114  0.2560 -0.1910  0.0493
 7273W        W11324   1.626   5.905  13.246  0.0159  0.2936 -0.1586
 7274W        W11325   8.044   5.608   0.757  0.2279  0.0576 -0.1775
 7275W        W11326   7.698   9.200   9.060 -0.0699  0.0836  0.0361
 7276W        W11327   6.623   9.053   4.309  0.1560 -0.1404 -0.2694
 7277W        W11328   0.511   8.897  12.022  0.0447 -0.2995  0.2516
 7278W        W11329   0.775   4.994   2.213 -0.2071 -0.1351  0.1492
 7279W        W11330   6.385   6.138  12.721  0.1457 -0.2791  0.1369
 7280W        W11331   5.268   3.389   5.213  0.0450 -0.1887 -0.2768
 7281W        W11332   6.490   4.881   2.664 -0.1660  0.3762 -0.1152
 7282W        W11333   8.534   1.735   1.399 -0.0676 -0.0553 -0.1604
 7283W        W11334   1.127   3.723   4.747  0.1654 -0.0005  0.0811
 7284W        W11335   7.985   3.788  10.902 -0.0947  0.1947 -0.0510
 7285W        W11336   6.402   9.194   3.880 -0.0346 -0.0866 -0.0348
 7286W        W11337   7.546   5.175  13.414 -0.1871  0.0858  0.0827
 7287W        W11338   7.667   4.682   1.479  0.0165  0.2228  0.1817
 7288W        W11339   0.394   6.345   9.349 -0.0601  0.2372  0.4009
 7289W        W11340   5.606   8.958   0.077  0.2651 -0.2400  0.2007
 7290W        W11341   8.440   3.644  13.036  0.1247 -0.2578 -0.0521
 7291W        W11342   6.443   4.707  12.406 -0.0116  0.0881 -0.0574
 7292W        W11343   4.067   9.341  11.446  0.0296  0.0554 -0.0700
 7293W        W11344   6.720   0.200   3.831  0.0283 -0.0280 -0.0876
 7294W        W11345   9.638   4.941   3.474 -0.1933 -0.0455 -0.0063
 7295W        W11346   7.947   1.787   0.266 -0.0593 -0.1321  0.0615
 7296W        W11347   4.160   1.554  13.387  0.0565  0.1359 -0.1262
 7297W        W11348   0.177   4.578  11.676  0.2964  0.3653 -0.0044
 7298W        W11349   3.366   4.250   4.393  0.0273 -0.0228  0.4415
 7299W        W11350   6.751   5.778   3.725 -0.1066 -0.1021 -0.1453
 7300W        W11351   1.200   1.308   1.745  0.0055 -0.2438 -0.1658
 7301W        W11352   6.210   4.575  11.126 -0.2910  0.4225 -0.1260
 7302W        W11353   6.825   5.000   8.657  0.0843  0.2646  0.4069
 7303W        W11354   4.258   8.090   2.882  0.0736 -0.0344  0.3505
 7304W        W11355   2.267   7.537   2.445 -0.2032  0.1585  0.1917
 7305W        W11356   2.514   1.857   3.224  0.0915 -0.2246  0.1914
 7306W        W11357   3.278   4.808  10.125  0.0051 -0.2106  0.3905
 7307W        W11358   9.659   7.485  11.231 -0.0423 -0.1663  0.3205
 7308W        W11359   6.761   2.249  13.246  0.0398  0.0069 -0.0346
 7309W        W11360   1.148   1.813  12.850 -0.3449  0.0889 -0.0320
 7310W        W11361   1.788   7.089   1.055 -0.1779 -0.0366 -0.1801
 7311W        W11362   1.146   6.246   9.654 -0.0762  0.2451 -0.2290
 7312W        W11363   4.531   6.649   0.811 -0.0337  0.3566  0.3674
 7313W        W11364   3.974   1.831   0.975  0.2865  0.0169 -0.0267
 7314W        W11365   6.174   1.681   3.241 -0.1978 -0.2453 -0.1297
 7315W        W11366   2.624   5.306   4.301 -0.2215  0.1443 -0.1569
 7316W        W11367   7.832   6.685   2.570 -0.1552  0.1502  0.0109
 7317W        W11368   7.263  10.137   3.900  0.1757  0.1752  0.0956
 7318W        W11369   3.854   4.003   5.907 -0.1893  0.0067 -0.1823
 7319W        W11370   3.501  10.036   1.127  0.1009 -0.0533  0.1839
 7320W        W11371   7.759   0.245   9.971  0.2535 -0.2542 -0.1221
 7321W        W11372   0.607   3.782   0.153 -0.0025 -0.0492 -0.0025
 7322W        W11373   5.538   4.720   5.806  0.0808  0.0688  0.1858
 7323W        W11374   9.924   7.014   1.742  0.0975  0.0502 -0.1619
 7324W        W11375   9.555   9.805   1.947 -0.1839  0.0079 -0.0578
 7325W        W11376   7.821   5.212   2.105 -0.2018  0.2009  0.3024
 7326W        W11377   3.173   6.288   9.318  0.0487 -0.1602 -0.2771
 7327W        W11378   1.349   7.925  13.202  0.0702  0.0666  0.0108
 7328W        W11379   1.038   0.373   0.874 -0.0999  0.1979 -0.2485
 7329W        W11380   0.069   8.766   1.796 -0.0399  0.0021  0.0237
 7330W        W11381   4.039   8.335   3.464 -0.4284  0.2530  0.2409
 7331W        W11382   2.300   7.129  10.764 -0.0010  0.1586  0.2250
 7332W        W11383   4.493   9.937   4.893  0.1185  0.3140 -0.2234
 7333W        W11384   7.391   4.034   0.715  0.3729  0.0991 -0.1294
 7334W        W11385   9.604   6.735  12.589 -0.3530 -0.1482  0.2105
 7335W        W11386   7.911   7.980  10.802 -0.1228  0.0291 -0.0026
 7336W        W11387   8.895   2.542   3.193  0.3083 -0.1877  0.1497
 7337W        W11388   3.154   9.711   2.330  0.0064  0.0050  0.1813
 7338W        W11389   3.515   0.277  10.925 -0.2447  0.1794  0.0052
 7339W        W11390   2.529   5.429  10.604  0.0031 -0.3414  0.4155
 7340W        W11391   7.947   9.970   9.980  0.1293  0.3235  0.0208
 7341W        W11392   5.650   4.081  12.557  0.0913 -0.1237 -0.1570
 7342W        W11393   1.739   2.427   1.189  0.0082  0.1472  0.1237
 7343W        W11394   6.993   6.300   9.331  0.0390  0.1165  0.3511
 7344W        W11395   5.929   6.669  12.129 -0.0892 -0.3032 -0.0788
 7345W        W11396   6.643   3.179   5.775  0.3038  0.1725  0.0305
 7346W        W11397   7.110   8.530  11.020 -0.0161 -0.0085 -0.1284
 7347W        W11398   0.117   7.324   1.610  0.2963 -0.0049 -0.1630
 7348W        W11399   7.309   0.320  10.194 -0.1156  0.1031  0.0904
 7349W        W11400   1.031   0.773   2.908 -0.1535 -0.1443  0.2521
 7350W        W11401   2.057   7.467  13.097  0.3252  0.0835 -0.1224
 7351W        W11402   3.449   6.008   2.817 -0.0993  0.1703  0.3235
 7352W        W11403   7.411   7.131   9.975  0.1683 -0.0321  0.0676
 7353W        W11404   9.445   0.572   9.712  0.0422  0.2783  0.3044
 7354W        W11405   3.159   4.536  12.476 -0.1341 -0.2880 -0.1072
 7355W        W11406   6.749   3.393   0.286  0.0835 -0.0069  0.1177
 7356W        W11407   4.785   2.599   3.619 -0.1485  0.3981 -0.2477
 7357W        W11408   6.822   9.314   3.110  0.1184 -0.2764 -0.2481
 7358W        W11409   2.563   6.439   0.993 -0.1232 -0.2037  0.0018
 7359W        W11410   0.067   1.704   9.863 -0.3370 -0.0268  0.1380
 7360W        W11411   1.770   7.465   3.601 -0.0418  0.0887  0.0056
 7361W        W11412   1.966   6.069   9.284 -0.2927  0.1271  0.0711
 7362W        W11413   7.417   3.747   4.664 -0.0018 -0.1149 -0.2514
 7363W        W11414   7.223   0.532  11.013 -0.0589 -0.1202 -0.4129
 7364W        W11415   8.142   6.118   0.999  0.0458 -0.0084  0.1682
 7365W        W11416   0.193   0.135   0.852  0.1785 -0.1042 -0.1082
 7366W        W11417   6.724   4.032   4.757 -0.2162  0.0351 -0.0365
 7367W        W11418   4.810   2.982  13.314 -0.0350 -0.0019 -0.1903
 7368W        W11419   5.675   7.374   3.292  0.0451  0.0959 -0.0524
 7369W        W11420   8.116   8.620   8.614 -0.3525  0.3158  0.1875
 7370W        W11421   7.604   7.465  12.018  0.0193  0.1897 -0.1197
 7371W        W11422   7.332   3.028   9.372  0.0011  0.2274 -0.2848
 7372W        W11423   6.145   9.672  10.183  0.1103 -0.0890 -0.2865
 7373W        W11424   5.847   2.351   4.383 -0.2336  0.1692  0.0736
 7374W        W11425   4.439   0.131  13.131 -0.1097  0.2495 -0.3417
 7375W        W11426   7.189   7.821   5.085 -0.0204 -0.0913  0.1122
 7376W        W11427   5.256   5.490   1.369  0.0080 -0.2571  0.1806
 7377W        W11428   9.994   8.828   1.371  0.1809 -0.3960  0.0543
 7378W        W11429   0.593   5.679  11.089 -0.1734  0.4935 -0.1139
 7379W        W11430   0.721   6.215  11.043 -0.0758 -0.0980  0.2341
 7380W        W11431   7.027   7.602  13.100 -0.3140  0.1140 -0.1257
 7381W        W11432   4.849   2.457   0.135 -0.0713 -0.0982  0.2222
 7382W        W11433   4.526   4.277   0.020 -0.0762 -0.0665 -0.0862
 7383W        W11434   6.458   5.362   0.830  0.4047  0.0433 -0.3187
 7384W        W11435   0.907   7.148  11.142  0.3442  0.3131 -0.1169
 7385W        W11436   9.143   4.318   4.720  0.0117  0.0913 -0.0454
 7386W        W11437   9.335   6.771   2.322  0.0940  0.1542  0.2342
 7387W        W11438   2.299   4.447  13.859 -0.1782 -0.1656  0.0777
 7388W        W11439   8.568   5.035   1.874  0.4267 -0.0514 -0.0868
 7389W        W11440   5.832   5.930   3.842  0.0297 -0.1418 -0.1121
 7390W        W11441   3.642   9.700  11.607  0.2937  0.0440 -0.1842
 7391W        W11442   8.826   3.374   0.871 -0.0705 -0.0335  0.2297
 7392W        W11443   4.175   1.766  13.821  0.0051 -0.2313 -0.1529
 7393W        W11444   8.618   2.673   4.730 -0.2092 -0.3733 -0.1676
 7394W        W11445  10.043   3.632  11.996 -0.1070  0.3021  0.1336
 7395W        W11446   0.948   2.415   0.624  0.1058 -0.0144  0.0937
 7396W        W11447   3.020   9.108  12.771 -0.2792 -0.0971  0.1134
 7397W        W11448   1.064   7.164   2.027  0.3218  0.0320  0.0355
 7398W        W11449  10.065   3.819  12.477 -0.1122 -0.3696 -0.5064
 7399W        W11450   9.911   4.752  11.596 -0.0328 -0.2341  0.1955
 7400W        W11451   1.503   7.828   2.950 -0.0385 -0.2120 -0.2872
 7401W        W11452   7.829   1.377  11.246  0.1178 -0.3884  0.0549
 7402W        W11453   6.146   3.312   3.555  0.0574 -0.1756  0.1111
 7403W        W11454   9.669   7.216   3.934  0.0059 -0.1823 -0.0757
 7404W        W11455   6.555   6.852   1.207  0.0463  0.1318 -0.1969
 7405W        W11456   4.235   8.407   4.624  0.2696  0.1817  0.0288
 7406W        W11457   1.775   7.437   3.115  0.1162 -0.1143 -0.0630
 7407W        W11458   9.219   8.120   0.625  0.0397 -0.0767  0.1493
 7408W        W11459   4.266   2.984  11.398  0.2297  0.0430  0.1846
 7409W        W11460   7.173   6.680  12.576  0.2588  0.1834  0.2022
 7410W        W11461   9.417   6.314   3.936 -0.3225  0.4661  0.1307
 7411W        W11462   0.791   9.069  11.634  0.0365  0.2176 -0.1670
 7412W        W11463   4.441   9.212  13.676  0.0729  0.0504 -0.0541
 7413W        W11464   1.107   2.912   1.802 -0.0724 -0.1561 -0.0532
 7414W        W11465   7.388   3.799   2.846 -0.1090  0.1739 -0.0783
 7415W        W11466   7.310   5.578  13.126 -0.1452 -0.2510  0.0827
 7416W        W11467   1.686   7.749  11.455  0.0583 -0.1682 -0.1581
 7417W        W11468   0.774   2.752   0.345 -0.1401  0.0271  0.0371
 7418W        W11469   0.897   4.965   4.012  0.0883  0.0734  0.0790
 7419W        W11470   0.381   9.403   9.483  0.0049  0.0301 -0.2817
 7420W        W11471   7.679   2.993   5.911 -0.1137 -0.0493 -0.0774
 7421W        W11472   7.259   7.614  11.180 -0.1902  0.2175  0.2030
 7422W        W11473   4.837   9.645  12.622  0.3241 -0.0168 -0.5022
 7423W        W11474   8.475   7.501   9.295 -0.0389 -0.0234  0.0888
 7424W        W11475   0.419   3.284   4.475 -0.1559  0.3059 -0.1881
 7425W        W11476   0.791   9.668  12.407  0.1848  0.2554  0.1358
 7426W        W11477   6.545   1.587  12.228 -0.4580  0.0810 -0.1013
 7427W        W11478   2.793   6.827  10.786 -0.1112  0.0763  0.1169
 7428W        W11479   0.750   9.488  12.851 -0.0204 -0.1463 -0.1603
 7429W        W11480   9.760   8.100  12.704  0.0114 -0.0071 -0.0310
 7430W        W11481   2.722   3.576  13.831  0.0628 -0.2327 -0.1180
 7431W        W11482   6.766   1.904   2.868  0.0971  0.0026  0.0643
 7432W        W11483   4.230   4.409   4.855  0.2818 -0.1928 -0.1206
 7433W        W11484   3.706   9.937   1.640 -0.1105  0.1235  0.0755
 7434W        W11485   4.884   1.064  11.864  0.2590  0.0415  0.2258
 7435W        W11486   4.689   0.783  11.325 -0.0156  0.4011  0.0400
 7436W        W11487   4.574   7.129   0.653  0.2017  0.2423  0.1880
 7437W        W11488   7.059   5.178   2.330 -0.1657 -0.0625  0.2255
 7438W        W11489   7.903   5.240   4.626  0.0073  0.0741 -0.1995
 7439W        W11490   1.645   1.767  10.508  0.1554 -0.2196  0.4268
 7440W        W11491   5.324   5.313  10.518 -0.2014 -0.2081 -0.0316
 7441W        W11492   1.673   1.863   0.200 -0.2056 -0.0341  0.3157
 7442W        W11493   1.742   2.204   3.817  0.2047  0.0446 -0.1324
 7443W        W11494   5.751   1.685   0.342  0.0293 -0.0317 -0.0343
 7444W        W11495   5.325   8.790   3.672 -0.0589  0.0683 -0.1698
 7445W        W11496   5.635   8.172  13.247 -0.0821 -0.2121 -0.1260
 7446W        W11497   1.888   2.213   0.727 -0.1203  0.1276 -0.0179
 7447W        W11498   2.034   6.996  12.476 -0.0614 -0.2555 -0.3646
 7448W        W11499   9.728   9.709   1.131 -0.0411 -0.2423 -0.0071
 7449W        W11500   1.404   7.611  11.014  0.3073  0.0946 -0.1112
 7450W        W11501   2.919   7.672  11.202 -0.3038 -0.0443 -0.0026
 7451W        W11502   5.291   1.925  10.147  0.0820  0.2457  0.0251
 7452W        W11503   5.919   0.513   3.163 -0.2527 -0.0463 -0.0436
 7453W        W11504   6.900   3.783   0.645  0.3322 -0.0276  0.0008
 7454W        W11505   0.097   1.563  12.195 -0.2899 -0.0204  0.1245
 7455W        W11506   6.343   3.398  11.958 -0.0984  0.1183 -0.2937
 7456W        W11507   2.030   3.560   3.524  0.1132 -0.1262 -0.3573
 7457W        W11508   5.505   2.136  12.163  0.1517  0.1018 -0.0434
 7458W        W11509   7.316   5.952   9.551  0.2732  0.3711 -0.0678
 7459W        W11510   6.013   1.690   3.704 -0.1951 -0.1239  0.0025
 7460W        W11511   7.765   0.207  13.124  0.1808  0.0566 -0.3772
 7461W        W11512   9.366   1.485  13.827  0.1408  0.2291  0.2222
 7462W        W11513   4.330   6.913  11.558  0.2052 -0.2737 -0.0597
 7463W        W11514   0.049   9.846   2.256 -0.1871  0.1591  0.2296
 7464W        W11515   6.731   7.518   3.224 -0.1550  0.1807  0.3327
 7465W        W11516   8.637   6.730  13.481  0.0315  0.0587  0.0035
 7466W        W11517   4.952   3.484  10.578 -0.0543 -0.1783  0.3536
 7467W        W11518   2.330   7.121  13.271 -0.0213 -0.1694  0.0194
 7468W        W11519   5.600   5.319  10.045  0.2801 -0.1724  0.2565
 7469W        W11520   2.375  10.072   1.316 -0.0516  0.1501  0.1208
 7470W        W11521   1.652   3.899  10.247  0.0261 -0.2952 -0.1463
 7471W        W11522   4.557   1.505  10.998 -0.0007 -0.0356  0.2391
 7472W        W11523   2.193   5.702  10.903  0.2318 -0.0077 -0.4024
 7473W        W11524   5.409   8.874   1.694 -0.0013  0.2398  0.0568
 7474W        W11525   2.460   7.438   9.834 -0.1247  0.0804  0.0979
 7475W        W11526   4.842   4.851   4.256 -0.1416 -0.0369  0.0863
 7476W        W11527   0.819   4.530  12.500  0.0063  0.0550 -0.4068
 7477W        W11528   4.186   5.080   0.833 -0.0780 -0.3050 -0.1887
 7478W        W11529   7.905   7.392   4.721  0.2427 -0.1184  0.0801
 7479W        W11530   8.988   7.307  11.866  0.1551 -0.3610  0.0119
 7480W        W11531   4.294   8.086   1.590  0.2926  0.0444 -0.1862
 7481W        W11532   9.796   7.146   9.136  0.0925  0.1283 -0.2233
 7482W        W11533   9.671   4.416   1.449 -0.0611 -0.0870  0.0468
 7483W        W11534   5.192   8.722   2.208  0.0773 -0.1168 -0.0867
 7484W        W11535   2.481   0.384  11.315  0.3416  0.0393 -0.1931
 7485W        W11536   9.899   5.946   4.552  0.1680 -0.0212  0.0859
 7486W        W11537   9.256   0.761   1.946  0.0640 -0.4688 -0.1965
 7487W        W11538   0.150   6.759  10.602 -0.0066 -0.2188  0.2257
 7488W        W11539   8.466   0.533   9.812  0.2140  0.1048  0.0047
 7489W        W11540   2.850   8.598  12.680  0.0232 -0.0933  0.1240
 7490W        W11541   2.905   0.123  13.084  0.1184 -0.1872  0.0079
 7491W        W11542   5.627   1.092  10.102 -0.1092  0.0828  0.2497
 7492W        W11543   5.732   9.125  13.397 -0.0538  0.0416  0.0019
 7493W        W11544   2.319   9.087  13.462  0.0523 -0.1782 -0.0072
 7494W        W11545   9.657   5.188  12.805  0.0705  0.0887 -0.1594
 7495W        W11546   1.599   1.704  13.787  0.0871  0.0297 -0.0392
 7496W        W11547   2.257   4.588  10.160 -0.1170  0.0575  0.1209
 7497W        W11548   6.925   7.145   3.541  0.1318  0.2053 -0.3844
 7498W        W11549   1.181   1.898   8.853 -0.2254  0.2389  0.0435
 7499W        W11550   7.240   6.747  13.641  0.2263 -0.2883 -0.1068
 7500W        W11551   1.281  10.125   2.478 -0.0784 -0.0950 -0.0822
 7501W        W11552   2.483   9.448   3.444 -0.0661  0.1313 -0.0439
 7502W        W11553   9.699   1.679  11.261  0.0191  0.0413  0.1178
 7503W        W11554   7.141   0.025   1.292  0.3600 -0.0737 -0.0624
 7504W        W11555   7.705   4.434   9.357 -0.5312 -0.1621  0.2801
 7505W        W11556   7.696   7.345   0.408  0.3818  0.0936  0.0215
 7506W        W11557   6.335   6.448   1.887  0.1030  0.1433 -0.1474
 7507W        W11558   8.352   2.781   9.360  0.1618  0.0126 -0.2904
 7508W        W11559   1.285   2.555  12.070 -0.0834  0.0370 -0.0620
 7509W        W11560   1.035   1.080  10.368  0.1978 -0.5552  0.0173
 7510W        W11561   1.438   8.869   2.523  0.0075  0.0596  0.0542
 7511W        W11562   8.557   7.861   2.689  0.0675 -0.3259 -0.3860
 7512W        W11563   4.659   9.599   5.260 -0.1557  0.0693 -0.0486
 7513W        W11564   6.813   3.198  12.267 -0.0450  0.0270 -0.3119
 7514W        W11565   2.792   3.771   3.330 -0.3519  0.2734  0.3026
 7515W        W11566   7.807   3.064   9.068  0.1260 -0.3705  0.0749
 7516W        W11567   4.420   3.656  13.432 -0.0472 -0.0515  0.4131
 7517W        W11568   0.498   6.029  12.374  0.0039 -0.1566 -0.3196
 7518W        W11569   5.548   2.633  11.960  0.0294 -0.1607  0.0845
 7519W        W11570   4.102   4.426  13.046  0.1537  0.4548 -0.1271
 7520W        W11571   7.027   9.764   4.843  0.0782  0.1798  0.0607
 7521W        W11572   1.468   4.954   2.839  0.3020 -0.6176  0.2218
 7522W        W11573   2.463   9.135   0.264 -0.0655  0.1593 -0.0549
 7523W        W11574   2.706   3.207  12.273  0.2723  0.2641 -0.1184
 7524W        W11575   4.860   8.638   3.368  0.1404 -0.0225 -0.4203
 7525W        W11576   4.407   8.694   9.788 -0.1093  0.2944 -0.2558
 7526W        W11577   6.391   0.865   3.779  0.0180  0.0020  0.0351
 7527W        W11578   6.012   9.415  10.918  0.1449 -0.2734  0.1387
 7528W        W11579   5.099   9.146   1.425  0.1318  0.4639  0.2129
 7529W        W11580   0.398   5.499   1.392 -0.0542  0.0992 -0.3802
 7530W        W11581  10.093   6.257   3.164 -0.3439  0.0250 -0.0202
 7531W        W11582   3.721   8.126   1.790 -0.2245 -0.0601  0.1174
 7532W        W11583   0.914   3.360  10.541  0.1203  0.0117  0.2339
 7533W        W11584   6.132   1.267   0.270 -0.1289  0.4843  0.0117
 7534W        W11585   4.820   0.561   0.717 -0.4109  0.1447 -0.1400
 7535W        W11586   0.787   1.950   0.044  0.2254  0.1270  0.2258
 7536W        W11587   2.001   5.920  12.950 -0.1396  0.0459  0.0932
 7537W        W11588   4.333   2.626   0.515 -0.0961 -0.0786 -0.1961
 7538W        W11589   2.021   9.371   0.187  0.0378 -0.2088  0.0172
 7539W        W11590   0.589   9.938  11.685  0.1040  0.1264 -0.0494
 7540W        W11591   5.656   1.019   0.248  0.3662 -0.0015  0.2030
 7541W        W11592   1.544   4.779  13.263  0.1937 -0.1024 -0.3513
 7542W        W11593   6.032   3.712  10.368 -0.2364  0.1966  0.1297
 7543W        W11594   7.131   9.570  12.454  0.3089 -0.3378 -0.1320
 7544W        W11595   8.026   7.920  13.951  0.2019  0.2581  0.1981
 7545W        W11596   0.302   5.918   1.777 -0.3709  0.2643 -0.0635
 7546W        W11597  10.088   8.273  10.629 -0.1603 -0.0526 -0.2838
 7547W        W11598   2.298   2.194  10.607 -0.1156 -0.1156 -0.1030
 7548W        W11599   7.886   3.010  13.044  0.1401 -0.1374 -0.3140
 7549W        W11600   6.234   3.234  10.036  0.1401 -0.3083 -0.1782
 7550W        W11601   4.001   1.473   1.393  0.0476  0.0007 -0.0971
 7551W        W11602   8.670   5.298   1.356 -0.0948 -0.2343 -0.0264
 7552W        W11603   4.549   5.275   2.027  0.2586 -0.1170 -0.1598
 7553W        W11604   8.481   0.090   1.218 -0.0353  0.1516  0.0443
 7554W        W11605   4.052   5.664  13.160 -0.0020  0.1335 -0.0059
 7555W        W11606   9.449   4.930   9.863 -0.0087 -0.4386 -0.0166
 7556W        W11607   1.502   6.515   3.973  0.1207 -0.0634 -0.2981
 7557W        W11608   4.806   5.340   1.509  0.2973  0.0761  0.3828
 7558W        W11609   0.405   1.459   3.155 -0.1023  0.1648 -0.1048
 7559W        W11610   3.360   1.786  13.682  0.1179 -0.2570 -0.0788
 7560W        W11611   1.778   4.397   1.237 -0.0670 -0.2416  0.0768
 7561W        W11612   4.943   3.939   0.270 -0.2012 -0.2274 -0.0792
 7562W        W11613   8.538   0.626   2.415 -0.4775 -0.0028 -0.1166
 7563W        W11614   5.678   3.621   2.295  0.0141 -0.1430  0.0562
 7564W        W11615   2.483   1.830   0.098  0.3232  0.1865 -0.0531
 7565W        W11616   6.776   9.833   8.977  0.0766 -0.0800  0.1274
 7566W        W11617   4.427   6.499  11.226  0.1367 -0.0818 -0.1431
 7567W        W11618   2.063   0.613  12.856  0.2879 -0.3367  0.0089
 7568W        W11619   9.612   7.469   4.808 -0.4209  0.4229  0.2506
 7569W        W11620   5.232   4.305   0.576 -0.3100 -0.0305  0.1436
 7570W        W11621   8.449   4.741   4.409  0.2739  0.4507 -0.1755
 7571W        W11622   1.412   6.065  11.449  0.0566 -0.1325 -0.1563
 7572W        W11623   7.376   7.833  12.762 -0.2407 -0.0024  0.0062
 7573W        W11624   3.383   4.947   2.809  0.0441 -0.0064 -0.1347
 7574W        W11625   0.841   4.576   1.436  0.2425 -0.1520 -0.1551
 7575W        W11626   6.786   0.309   1.521 -0.0807 -0.0893  0.4471
 7576W        W11627  10.171   0.300  12.143 -0.0780 -0.1186  0.0015
 7577W        W11628   7.665   7.833   9.507 -0.1711  0.2446  0.0286
 7578W        W11629   0.844   8.002   2.779 -0.0135 -0.0690  0.2517
 7579W        W11630   2.753   9.363   2.610 -0.0153  0.0173 -0.1491
 7580W        W11631   5.857   0.941   1.141 -0.2277 -0.1250 -0.1844
 7581W        W11632   4.064   4.600  12.241  0.0400 -0.0052 -0.1419
 7582W        W11633   6.134   3.891   5.061  0.2089  0.1812  0.3845
 7583W        W11634   5.080   9.934   0.920  0.1621 -0.0300  0.1016
 7584W        W11635   4.784   9.362   0.982 -0.0782 -0.0067 -0.0589
 7585W        W11636   6.780   8.016   3.791 -0.1119  0.0354 -0.1453
 7586W        W11637   6.245   2.961   2.283  0.2194  0.0910  0.4732
 7587W        W11638   2.392   4.253  13.022  0.0824  0.0723  0.0228
 7588W        W11639   5.029   8.415   0.764  0.1363 -0.1418 -0.0638
 7589W        W11640   4.143   6.066  11.323 -0.0058 -0.0330  0.4008
 7590W        W11641   8.968   3.863   2.990 -0.0955 -0.3461  0.1875
 7591W        W11642   0.881   4.152   1.783  0.0135 -0.0390 -0.1321
 7592W        W11643   7.225   7.792   1.886  0.2585 -0.0532  0.2965
 7593W        W11644   3.105   8.565  13.432  0.0592 -0.2356 -0.2938
 7594W        W11645   6.741   6.537   3.278 -0.0519  0.1001  0.1536
 7595W        W11646   2.029   5.325  10.510 -0.0202  0.0577  0.1864
 7596W        W11647   2.841   9.462  11.559 -0.0323 -0.1870  0.4430
 7597W        W11648   7.127   7.059   4.491 -0.1565  0.4226  0.0800
 7598W        W11649   0.486   9.404  11.929 -0.4424 -0.1014  0.0150
 7599W        W11650   8.734   7.298  10.586  0.0132 -0.2001  0.0194
 7600W        W11651   2.933   3.052  10.075 -0.0241  0.0482  0.1158
 7601W        W11652   1.677   5.048   9.085  0.2509 -0.1566  0.1658
 7602W        W11653   4.731   9.525   2.651 -0.0723 -0.1129  0.3546
 7603W        W11654   7.776   6.259   9.553 -0.3061  0.0818 -0.0258
 7604W        W11655   9.486   1.554   1.045 -0.0651 -0.1150  0.1432
 7605W        W11656   3.207   2.360  11.743  0.2055 -0.2464  0.0574
 7606W        W11657   8.328   4.456   1.887  0.2093 -0.2678  0.1748
 7607W        W11658   9.281   0.632   3.489 -0.1208 -0.1489 -0.0298
 7608W        W11659   8.959   4.907   4.078  0.0172  0.1768  0.1530
 7609W        W11660   9.672   1.680   4.621 -0.0177  0.3111 -0.2649
 7610W        W11661   4.843   8.339   2.285 -0.1882  0.1162 -0.0213
 7611W        W11662   7.243   1.850   2.823  0.1459 -0.0239 -0.0151
 7612W        W11663   4.636   8.222  13.408 -0.2780 -0.3110 -0.1536
 7613W        W11664   3.274  10.098  11.562 -0.0756  0.1964 -0.1436
 7614W        W11665   6.881   1.336  13.007  0.3515 -0.1337 -0.0910
 7615W        W11666   1.096  10.167   1.260  0.0658 -0.3397  0.0858
 7616W        W11667   1.751   6.200   9.914  0.0293  0.0960 -0.2748
 7617W        W11668   5.986   6.273  13.617 -0.0069  0.0667 -0.0363
 7618W        W11669   5.950   1.971  10.817  0.1960  0.1701  0.0495
 7619W        W11670   2.378   6.455  11.585  0.1236 -0.1089  0.0055
 7620W        W11671   1.045   1.471   3.604 -0.0690  0.1061 -0.2668
 7621W        W11672   1.382   8.539   2.161 -0.2202 -0.2651  0.0403
 7622W        W11673   0.083   2.518  13.696  0.3522  0.4185 -0.0304
 7623W        W11674   7.813   3.392   3.792 -0.2890  0.3324 -0.0446
 7624W        W11675   6.405   0.094  10.495 -0.2269  0.0091  0.0375
 7625W        W11676   2.317   4.133   2.115  0.3717 -0.2733 -0.1818
 7626W        W11677   0.614   1.797  12.061  0.2493 -0.2719  0.0706
 7627W        W11678   0.650   6.713  10.149 -0.2007 -0.0021  0.0458
 7628W        W11679   5.139   4.746   9.032  0.2384  0.3462 -0.0495
 7629W        W11680   4.873   6.243  11.105 -0.1334  0.1336 -0.0351
 7630W        W11681   5.905   7.471  10.012 -0.3713 -0.1682 -0.0793
 7631W        W11682   4.911   2.337  12.752 -0.2490 -0.1035  0.0872
 7632W        W11683   5.723   3.550   1.234 -0.0221  0.4309 -0.2809
 7633W        W11684   4.476   4.398  13.547  0.0397 -0.1423  0.0530
 7634W        W11685   0.327   7.057  11.038  0.2238 -0.2597  0.2167
 7635W        W11686   9.329   2.630  12.934  0.0483 -0.2306  0.1148
 7636W        W11687   1.656   4.945   4.747 -0.2001  0.3474  0.0740
 7637W        W11688   1.470   8.363   1.643  0.4787  0.2070 -0.1127
 7638W        W11689   6.502   6.049  13.621  0.3130  0.1864  0.2554
 7639W        W11690   9.794   8.924  12.289 -0.1299 -0.0279 -0.1715
 7640W        W11691   9.447   0.515   8.897 -0.4182 -0.1040 -0.0591
 7641W        W11692   3.010   7.554   4.176 -0.1447 -0.1204 -0.2247
 7642W        W11693   7.645   5.776  11.592 -0.1178 -0.0592 -0.0785
 7643W        W11694   1.999   9.652  11.068  0.4978  0.0085  0.0445
 7644W        W11695   6.840   7.790   2.293  0.1355  0.5084 -0.2552
 7645W        W11696   6.521   5.879   9.923 -0.0804 -0.0330  0.2233
 7646W        W11697   6.314   5.220  13.764 -0.0057  0.0099  0.2002
 7647W        W11698   3.402   1.178  10.979  0.1270 -0.0333 -0.0153
 7648W        W11699   2.734   2.795   4.963 -0.0192 -0.0256 -0.1033
 7649W        W11700   3.566   3.286  13.414  0.0348  0.1151 -0.0630
 7650W        W11701   8.066   6.535   3.569 -0.0645 -0.0722 -0.0240
 7651W        W11702   2.435   3.269  13.117  0.0877  0.0403  0.0622
 7652W        W11703   1.416   0.766   2.570 -0.0414 -0.3165 -0.0867
 7653W        W11704  10.016   8.308   1.300  0.0105  0.3519  0.4898
 7654W        W11705   8.594   8.266  12.000 -0.1314  0.0973  0.2329
 7655W        W11706   9.481   4.499   9.084  0.0367 -0.0564  0.0763
 7656W        W11707   2.665   1.797   1.479  0.2072 -0.0797  0.3138
 7657W        W11708   2.351   6.703  10.310 -0.1206 -0.0398  0.2039
 7658W        W11709   0.085   9.247   1.726 -0.1058  0.0485 -0.0395
 7659W        W11710   6.720   9.873   1.125 -0.2522 -0.2784  0.0062
 7660W        W11711   1.646   3.031  10.575 -0.0431  0.1340  0.4546
 7661W        W11712   5.283   3.266  10.125  0.0252  0.1106  0.0053
 7662W        W11713   5.114   8.841   0.350 -0.1457  0.2916  0.1354
 7663W        W11714   8.244   5.707   0.294  0.1319  0.1683 -0.2791
 7664W        W11715   7.561   3.526  10.877  0.0998 -0.1496 -0.1944
 7665W        W11716   9.665   8.347   4.544  0.1293  0.0135 -0.0563
 7666W        W11717   2.609   9.338  12.548  0.1146  0.1995 -0.1681
 7667W        W11718   5.408   5.630   3.022  0.0803 -0.1849 -0.3101
 7668W        W11719   5.587   5.324  12.112 -0.1133  0.1676 -0.0988
 7669W        W11720   0.560   8.502  13.558 -0.0564  0.1271  0.2030
 7670W        W11721   8.131   2.492  11.763 -0.3341 -0.3523  0.0211
 7671W        W11722   6.702   8.831  13.098 -0.2697  0.2063 -0.0992
 7672W        W11723   1.156   7.512  11.475 -0.2544  0.1759  0.2125
 7673W        W11724   3.801   0.956   0.498 -0.0474 -0.0682 -0.2393
 7674W        W11725  10.048   1.374   4.601  0.0314  0.0165  0.0769
 7675W        W11726   7.454   6.913   1.853 -0.2123 -0.2489 -0.0427
 7676W        W11727   6.233   0.212   1.797 -0.0786 -0.0946 -0.0628
 7677W        W11728   4.879   1.968  10.939  0.2322  0.0438  0.1082
 7678W        W11729   9.516   3.576  13.509 -0.3346  0.3000  0.2557
 7679W        W11730   3.275   4.183  13.505 -0.0101  0.0217  0.1418
 7680W        W11731   6.202   9.373  13.538 -0.3037 -0.1557  0.2040
 7681W        W11732   4.636   8.703   0.455 -0.1478  0.7435  0.0790
 7682W        W11733   9.456   8.560   3.454 -0.0257  0.1425 -0.1787
 7683W        W11734   2.160   5.124  12.657  0.0024  0.0392  0.3684
 7684W        W11735   3.206   0.554   3.086 -0.3040  0.3482  0.0349
 7685W        W11736   3.045   3.528  10.961 -0.1912 -0.0244 -0.1522
 7686W        W11737   8.455   2.504   2.727 -0.3738 -0.2426 -0.2560
 7687W        W11738   2.560   6.499   2.774 -0.1179 -0.2181  0.1144
 7688W        W11739   3.533   4.930   4.051 -0.0528 -0.0640 -0.1228
 7689W        W11740   6.745   0.694  12.216 -0.1698  0.1284 -0.0507
 7690W        W11741   4.078   9.834   3.315  0.4543 -0.0844 -0.0197
 7691W        W11742   9.344   8.825   2.274  0.2497 -0.1204 -0.3247
 7692W        W11743   7.956  10.104   1.889  0.3076 -0.2722 -0.1442
 7693W        W11744   2.497   6.314   3.864 -0.0957 -0.0406 -0.0008
 7694W        W11745   2.639   1.388   3.175 -0.1230  0.0298 -0.0226
 7695W        W11746   2.786   2.236  12.930 -0.0709  0.0681 -0.4283
 7696W        W11747   1.578   1.822   4.212 -0.1761 -0.0134  0.0010
 7697W        W11748   1.482   0.534   1.186  0.1140  0.0709  0.2745
 7698W        W11749   6.619   7.236   1.518 -0.0454  0.1963  0.1843
 7699W        W11750   7.509   4.271   2.049  0.4029 -0.1201  0.1846
 7700W        W11751   3.741   0.012  10.099 -0.0618 -0.0289 -0.2180
 7701W        W11752   9.310   2.450  13.783 -0.1711 -0.3340  0.1617
 7702W        W11753   7.101   5.646   9.943  0.2925  0.0590  0.1815
 7703W        W11754   2.874   7.666  12.046  0.2712  0.0208 -0.2383
 7704W        W11755   9.798   1.031  11.156  0.2570 -0.2441 -0.1787
 7705W        W11756   1.925   0.837  10.081  0.0194  0.1567  0.6304
 7706W        W11757   3.826   3.233   1.394  0.2424  0.1610  0.2635
 7707W        W11758   6.609   7.948  10.460 -0.4510 -0.0908 -0.1342
 7708W        W11759   6.656   5.467   9.040 -0.0332  0.3033 -0.0175
 7709W        W11760   8.473   5.764   1.693  0.2074  0.1513  0.1781
 7710W        W11761  10.171   2.601   0.821  0.2324  0.0722 -0.0330
 7711W        W11762   7.235   5.054   3.264  0.1022  0.6282 -0.0156
 7712W        W11763   5.745   8.457   3.363  0.1393  0.0810 -0.0600
 7713W        W11764   2.839   4.598  12.071  0.0013 -0.0146 -0.2431
 7714W        W11765   4.519   0.426  10.932 -0.2994  0.0134 -0.0715
 7715W        W11766   9.624   3.673   2.949 -0.1806 -0.3099 -0.0045
 7716W        W11767   1.254   7.160   3.708  0.0760 -0.0246 -0.1893
 7717W        W11768   9.079   4.680   3.579  0.0371  0.0524 -0.0569
 7718W        W11769   7.054   6.941   1.423 -0.0911 -0.0869 -0.2269
 7719W        W11770   8.852   6.295  12.558 -0.1979  0.2956 -0.0354
 7720W        W11771   7.714   7.031  12.866  0.1685  0.0886  0.2729
 7721W        W11772   4.226   1.249   3.956 -0.1303 -0.0495 -0.2145
 7722W        W11773   3.742   5.910  11.024  0.1791 -0.0050 -0.1765
 7723W        W11774   7.479   9.666   4.794 -0.1982 -0.1050  0.3891
 7724W        W11775   9.407   4.133   0.667 -0.1076 -0.5470 -0.2029
 7725W        W11776   3.597   9.069   3.626 -0.1959  0.1559  0.1037
 7726W        W11777   8.084   7.861   3.007 -0.2512 -0.3144  0.0036
 7727W        W11778   2.060   7.986   0.412  0.2781 -0.0800 -0.0852
 7728W        W11779   2.426   0.383   9.419  0.0369  0.0127  0.0289
 7729W        W11780   5.669   7.596   2.086 -0.0180  0.0327  0.1536
 7730W        W11781   9.843   3.126   0.157  0.1035  0.0867 -0.1888
 7731W        W11782   8.498   8.717  13.014 -0.2094  0.1491  0.3230
 7732W        W11783   5.445   3.798   5.331 -0.1362  0.1677  0.1436
 7733W        W11784   5.569   2.532   9.690  0.0089 -0.0206 -0.0690
 7734W        W11785   7.420   3.223   2.165  0.1813 -0.1012 -0.1172
 7735W        W11786   1.860   7.775  12.321  0.1486  0.0349  0.4985
 7736W        W11787   0.160   7.810   1.236  0.0260 -0.0592  0.2711
 7737W        W11788   9.608   6.145   1.767 -0.1064 -0.0196 -0.0432
 7738W        W11789   1.399   3.786  11.550  0.0009  0.1546  0.4405
 7739W        W11790   4.234   1.073   2.448  0.0882 -0.1056  0.0771
 7740W        W11791   6.306   2.190  13.470  0.0415  0.1397  0.0052
 7741W        W11792   2.657   8.140  11.176  0.0135  0.1933  0.0173
 7742W        W11793   0.056   7.277   0.139  0.0779 -0.2602 -0.1706
 7743W        W11794   6.514   6.364   9.422  0.1299  0.2460 -0.2533
 7744W        W11795   7.674   5.692   4.584 -0.1024 -0.0024 -0.1542
 7745W        W11796   2.449   3.554   4.763  0.0367 -0.0050 -0.2030
 7746W        W11797   9.998   1.577  12.622 -0.1170 -0.4602  0.3453
 7747W        W11798   1.119   6.833  11.428 -0.2318 -0.0305 -0.0542
 7748W        W11799   1.566   9.073   0.879  0.4074  0.2343  0.0273
 7749W        W11800   5.020   5.658  12.255 -0.2982  0.0370 -0.1485
 7750W        W11801   1.223   3.449   9.846 -0.0637  0.1720  0.2609
 7751W        W11802   4.295   1.095  13.182 -0.1830  0.0990  0.2202
 7752W        W11803   8.686   2.565  13.819 -0.1989  0.2873 -0.1076
 7753W        W11804   0.857   4.186  10.801  0.1184  0.0147  0.3520
 7754W        W11805   2.368   3.460   0.907  0.0429  0.0509  0.1094
 7755W        W11806   4.926   4.915   3.532  0.0472  0.0872  0.1362
 7756W        W11807   8.674   8.130  10.994 -0.0617 -0.0305  0.0102
 7757W        W11808   1.651   6.401  10.361  0.2018 -0.0451  0.1656
 7758W        W11809   9.978   0.274   3.615  0.1988 -0.0196 -0.0723
 7759W        W11810   5.489   8.812  11.935  0.2028  0.1499  0.3113
 7760W        W11811   6.765   6.485  11.707 -0.0412  0.1067  0.0197
 7761W        W11812   8.374   7.741  12.668  0.1406 -0.3404 -0.2012
 7762W        W11813   9.074   2.090   3.941  0.1682 -0.1221  0.0468
 7763W        W11814   0.559   4.130  11.644 -0.0000 -0.2065 -0.0596
 7764W        W11815   5.328   0.101  12.132  0.1487  0.3060 -0.1463
 7765W        W11816   6.709   1.478  10.453  0.0584  0.3840  0.4773
 7766W        W11817   6.513   8.346  12.914 -0.3397  0.0578  0.1397
 7767W        W11818   2.305   4.220  10.735  0.1358 -0.0408 -0.2447
 7768W        W11819   1.087   9.941  12.834 -0.2453 -0.0848  0.2082
 7769W        W11820   0.780   9.929  13.724  0.2747  0.3321 -0.1048
 7770W        W11821   8.152   8.721   9.542 -0.0631  0.2723  0.0906
 7771W        W11822   2.851   2.681  10.500 -0.0964  0.1921 -0.1991
 7772W        W11823   8.167   3.490  13.808  0.0978 -0.0206 -0.0973
 7773W        W11824   5.786   5.001  13.481  0.3883 -0.0818  0.0154
 7774W        W11825   9.425   5.736  13.749  0.1377  0.2273 -0.0960
 7775W        W11826   8.558   5.868   9.824 -0.1953  0.0838 -0.0967
 7776W        W11827   6.473   4.984   9.173  0.0545 -0.0433  0.1757
 7777W        W11828   1.068   7.574  12.004 -0.1927  0.0683  0.1448
 7778W        W11829   9.630   5.555   3.347  0.1331 -0.3025  0.4529
 7779W        W11830   4.677   0.394  11.572 -0.1638 -0.1325  0.0399
 7780W        W11831   7.872   2.157  13.792  0.1041 -0.3221  0.1436
 7781W        W11832   8.358   7.029  10.452  0.1604  0.0500  0.1700
 7782W        W11833   4.216   1.030  11.374  0.0440 -0.0553 -0.0913
 7783W        W11834   8.347   5.255  10.941 -0.1281 -0.3843 -0.1646
 7784W        W11835   6.229   3.295  10.592 -0.1087  0.2923  0.1274
 7785W        W11836   0.506   4.368   4.109 -0.4530 -0.1062  0.0343
 7786W        W11837   7.830   7.131  10.619  0.2309 -0.2182  0.2177
 7787W        W11838   4.916   3.847   0.773 -0.1839 -0.2903  0.2027
 7788W        W11839   5.857   7.374  13.670 -0.2672  0.0223 -0.0620
 7789W        W11840   0.975   6.617  13.617  0.0321 -0.0502  0.0349
 7790W        W11841   8.903   7.382   3.972  0.1764 -0.1156 -0.2073
 7791W        W11842   5.511   8.023   1.023 -0.4421  0.0880  0.3726
 7792W        W11843   9.393   1.029   3.847  0.2497  0.0656 -0.0048
 7793W        W11844   5.219   3.423   2.567  0.5430  0.1952  0.1033
 7794W        W11845   3.098   7.240   2.275 -0.1378  0.1575  0.0413
 7795W        W11846   2.531   3.012   0.049 -0.0221 -0.1609  0.2028
 7796W        W11847   4.862   7.512  10.984 -0.1316 -0.0796 -0.0077
 7797W        W11848   8.888   8.131   3.237  0.3744  0.3018 -0.1476
 7798W        W11849   2.290   2.632   1.094  0.0775  0.1558 -0.1494
 7799W        W11850   6.809   7.960   0.336 -0.0133  0.0834 -0.1355
 7800W        W11851   0.462   0.543  13.189 -0.2901  0.1727 -0.1321
 7801W        W11852   5.913   9.422   9.822 -0.0496 -0.2837 -0.0001
 7802W        W11853   2.830   8.348   1.509  0.0402  0.0364 -0.0358
 7803W        W11854   6.889   8.632  12.614  0.0656 -0.3786  0.1347
 7804W        W11855   8.333   5.071   3.363 -0.0528 -0.1635 -0.0160
 7805W        W11856   4.965   0.588  10.698 -0.2274 -0.4149 -0.0221
 7806W        W11857   8.194   3.985  11.394  0.2177 -0.1475  0.1112
 7807W        W11858   0.892   3.769  11.882 -0.3377  0.0084  0.2230
 7808W        W11859   9.876   4.766  10.124  0.2783 -0.2193  0.0727
 7809W        W11860   5.013   3.128   9.634 -0.1734 -0.2970  0.0017
 7810W        W11861   3.175   4.003   1.776 -0.2450  0.0298  0.1459
 7811W        W11862   8.396   4.918   5.193 -0.0243 -0.0703  0.0963
 7812W        W11863   3.392   4.244  12.909 -0.0332  0.1113 -0.1183
 7813W        W11864   4.892   3.415   4.127 -0.2196  0.0531 -0.2708
 7814W        W11865   2.161   5.398   1.773 -0.4495 -0.0080 -0.2257
 7815W        W11866   6.703   7.253   9.208  0.0150 -0.1879 -0.2638
 7816W        W11867   7.697   0.609   1.856 -0.0483  0.1489 -0.1065
 7817W        W11868   4.339   2.895   0.054  0.0616 -0.2124  0.0136
 7818W        W11869   0.757   6.884   0.333  0.0183  0.0016  0.1906
 7819W        W11870   2.424   7.327  11.733 -0.0828 -0.1143  0.1618
 7820W        W11871   7.472   7.402   1.583  0.2594 -0.1058  0.2202
 7821W        W11872   9.821   6.218  12.640 -0.2595  0.1406 -0.6336
 7822W        W11873   4.410   4.801   1.324 -0.0323  0.0166 -0.1600
 7823W        W11874   4.347   1.920   9.305 -0.1467 -0.1090  0.1979
 7824W        W11875   3.333   6.914   8.903  0.0380  0.2579 -0.1634
 7825W        W11876   3.586   1.378  11.693 -0.1669 -0.3829  0.0067
 7826W        W11877   1.147   8.417   2.754 -0.4410  0.1329  0.2726
 7827W        W11878   9.596   5.603   0.453  0.0919 -0.0579  0.1198
 7828W        W11879   6.610   8.403   3.521  0.2036 -0.2958 -0.0436
 7829W        W11880   5.286   1.799   2.987 -0.0581 -0.0058  0.0598
 7830W        W11881   0.535   2.868   4.701  0.2353  0.0211  0.4366
 7831W        W11882   5.289   4.266   0.029 -0.2164  0.2721  0.1052
 7832W        W11883   3.779   6.806   9.691 -0.1890 -0.3666 -0.2688
 7833W        W11884   0.700   4.759   9.867  0.0336  0.1628 -0.0704
 7834W        W11885   2.135   8.648   2.522  0.1894  0.2282 -0.2807
 7835W        W11886   5.202   0.107   2.860 -0.0068 -0.1198 -0.2276
 7836W        W11887   2.361   2.066   2.596 -0.0130  0.0237 -0.1216
 7837W        W11888   7.348   9.301  10.622 -0.0062  0.0083 -0.2128
 7838W        W11889   7.434   1.782   4.992  0.0246  0.0275 -0.1098
 7839W        W11890   7.693   3.022  11.182 -0.4408 -0.2464 -0.2977
 7840W        W11891   1.635   6.475  10.893  0.0694 -0.1352  0.1041
 7841W        W11892   7.541   3.355   1.652 -0.1994 -0.2834 -0.2044
 7842W        W11893   8.594   6.050   2.762  0.2384  0.3261  0.1947
 7843W        W11894   2.413   9.724   0.808  0.1184 -0.1644 -0.1405
 7844W        W11895   8.491   4.065   5.367 -0.1181  0.1423 -0.0947
 7845W        W11896   9.842   4.712  13.345  0.0307 -0.0545  0.0819
 7846W        W11897   3.461   6.275  10.766 -0.3191 -0.0169 -0.2248
 7847W        W11898   5.210   3.312   1.227  0.0898 -0.2374 -0.0667
 7848W        W11899   9.617   5.455   9.626  0.0026  0.0580  0.0001
 7849W        W11900   7.506   1.570   2.513 -0.0301 -0.1666 -0.0986
 7850W        W11901   2.462   5.109   2.663 -0.1300  0.3016  0.1471
 7851W        W11902   3.895   9.536  10.585  0.3028  0.0468 -0.2654
 7852W        W11903   9.669   0.476   3.243  0.1478  0.1858  0.1153
 7853W        W11904   1.118   2.602   9.977  0.1592 -0.0115  0.2721
 7854W        W11905   6.671   6.366   1.436  0.1857  0.1234 -0.0991
 7855W        W11906   5.572   6.808   0.747 -0.0694 -0.0326  0.0883
 7856W        W11907   9.430   7.158  13.830  0.1815  0.1012  0.0408
 7857W        W11908   5.066   7.150   9.110 -0.0787  0.1397 -0.2333
 7858W        W11909   8.144   1.825  12.869 -0.0370  0.1391  0.0685
 7859W        W11910   1.821   8.281   2.030  0.1819  0.1245  0.0206
 7860W        W11911   1.154   9.796  11.402  0.0772 -0.0423 -0.0111
 7861W        W11912   6.551   9.261  10.067 -0.0377 -0.0544  0.1262
 7862W        W11913   8.684   1.422   0.414 -0.0474 -0.1035  0.0380
 7863W        W11914   4.062   6.101  10.125  0.1485 -0.3634  0.3578
 7864W        W11915   6.490   5.564  13.486  0.1541 -0.3961  0.0652
 7865W        W11916   4.549   6.993   2.567 -0.1567 -0.2328 -0.0485
 7866W        W11917   6.117   9.280   1.464  0.3775  0.0851 -0.2620
 7867W        W11918   5.792   0.255   0.347  0.0639  0.0223  0.2961
 7868W        W11919   5.998   9.414   2.236  0.2764  0.2976 -0.0676
 7869W        W11920   5.359   2.369   8.868 -0.0903 -0.2045  0.2350
 7870W        W11921   5.531   6.689   0.056 -0.0940 -0.1868  0.1174
 7871W        W11922   7.710   9.830  12.497  0.1229  0.0730  0.0145
 7872W        W11923   0.435   3.195   9.965  0.1360 -0.0478  0.0310
 7873W        W11924   3.557   1.499   0.595 -0.2423  0.3293  0.1278
 7874W        W11925   7.524   4.291  10.221  0.2848 -0.0279 -0.1558
 7875W        W11926   3.004   4.413   4.801 -0.0647  0.0423  0.1123
 7876W        W11927   7.096   6.028   3.997 -0.1489 -0.1938  0.0312
 7877W        W11928   9.572   1.954   5.007  0.3002 -0.0568 -0.3633
 7878W        W11929   0.660   4.389   2.589  0.0047 -0.2722 -0.2654
 7879W        W11930   0.919   4.723  13.925  0.2118 -0.2740  0.0480
 7880W        W11931   7.347   4.636  11.354 -0.1556  0.2541  0.1576
 7881W        W11932   8.634   3.560  13.997 -0.0342 -0.2020 -0.1206
 7882W        W11933   2.859   3.278   4.775 -0.1050  0.0372  0.2646
 7883W        W11934   9.722   9.096   3.440 -0.4700  0.2916 -0.0350
 7884W        W11935   5.296   1.414   9.178  0.1998  0.0236  0.2303
 7885W        W11936   9.403   1.066   1.530 -0.3463 -0.0826  0.0599
 7886W        W11937   9.722   0.020  10.411 -0.0048 -0.0368 -0.0407
 7887W        W11938   2.401  10.131  13.136 -0.0303 -0.1197  0.0149
 7888W        W11939   5.636   0.631   4.263  0.0241  0.1124  0.2233
 7889W        W11940   8.710   4.612   2.254  0.2400 -0.1092  0.2927
 7890W        W11941   8.962   4.236  13.365  0.0986  0.1882 -0.0008
 7891W        W11942   4.239   3.525   0.683 -0.0834  0.3202  0.3263
 7892W        W11943   5.170   8.258  13.549  0.1505 -0.0161 -0.1489
 7893W        W11944  10.030   3.411   2.859  0.1507 -0.0397  0.0843
 7894W        W11945   8.823   3.940   1.102 -0.0904 -0.1209 -0.1912
 7895W        W11946   4.699   1.062   3.917  0.2359 -0.3974 -0.1320
 7896W        W11947   5.870   8.315   2.842  0.0179 -0.0164  0.0857
 7897W        W11948   8.288   3.187   0.295 -0.0237  0.1152  0.2983
 7898W        W11949   1.567   4.039  12.547  0.0781  0.0624 -0.0582
 7899W        W11950   2.685   9.451   9.488  0.2521  0.1605  0.0172
 7900W        W11951   1.771   3.900  13.367  0.3850  0.1609 -0.2110
 7901W        W11952   5.898   1.497   2.239  0.1644  0.1575  0.1396
 7902W        W11953   0.054   1.129   3.074 -0.0227 -0.2402 -0.0600
 7903W        W11954   8.234   5.777  10.863  0.0040  0.0119  0.3111
 7904W        W11955   6.643   8.482   5.077 -0.2239 -0.1226  0.1766
 7905W        W11956   6.100   9.060  11.292  0.2109  0.2126  0.0893
 7906W        W11957   9.964   6.527  12.340  0.3013  0.0705  0.1226
 7907W        W11958   0.606   3.833  12.505  0.3943 -0.4226 -0.3907
 7908W        W11959   5.027   9.815   4.995 -0.0081  0.1006 -0.0936
 7909W        W11960   6.950   2.736  10.678 -0.2588 -0.2347 -0.0392
 7910W        W11961   9.408   9.553  11.390  0.0459 -0.0540  0.1901
 7911W        W11962   4.069   4.571  10.946  0.1456 -0.1347 -0.4710
 7912W        W11963   9.786   2.529  11.394  0.3718 -0.0138 -0.0661
 7913W        W11964   3.540   8.598   9.822  0.4107 -0.0272  0.0681
 7914W        W11965   1.878   6.755  11.691 -0.2287  0.3652 -0.0354
 7915W        W11966   6.924   8.806  13.612  0.0106 -0.1427 -0.3675
 7916W        W11967   3.315   7.871  11.005 -0.1675  0.1419 -0.0230
 7917W        W11968   1.201   8.799  11.043  0.1513 -0.1258  0.0534
 7918W        W11969   3.140   5.280   4.833  0.1520  0.4924  0.1745
 7919W        W11970   2.916   4.896   4.562  0.0214  0.0081 -0.1215
 7920W        W11971   4.590   8.479  13.975  0.1317 -0.3590  0.2878
 7921W        W11972   5.481   9.445  10.906  0.0279 -0.1794  0.0310
 7922W        W11973  10.163   2.190   2.847 -0.0311 -0.2391  0.1449
 7923W        W11974   9.596   4.454   9.613  0.1117  0.5049  0.3008
 7924W        W11975   6.753   3.072  11.059  0.0398 -0.2058  0.0456
 7925W        W11976   0.727   4.230  12.092 -0.3030  0.1575 -0.1735
 7926W        W11977   3.007   1.252  12.878  0.0464 -0.4517  0.1641
 7927W        W11978   8.126   8.869   2.890  0.1149  0.1873 -0.1424
 7928W        W11979   0.889   0.082  11.923  0.6874  0.1486 -0.0097
 7929W        W11980   7.486   7.784   0.855 -0.1725  0.0937  0.0353
 7930W        W11981   1.220   1.503  10.409 -0.0362  0.1852  0.2598
 7931W        W11982   9.676   9.477   9.427  0.1485  0.0007  0.0930
 7932W        W11983   6.251   7.994  13.423 -0.3516  0.2757  0.0244
 7933W        W11984   7.562   6.249  10.034  0.0897 -0.2223  0.1816
 7934W        W11985   2.018   4.040   4.921  0.3745  0.1705 -0.3247
 7935W        W11986   8.518   2.830  12.507  0.0428 -0.1748  0.0849
 7936W        W11987   1.394   5.486   1.061  0.2237 -0.1653 -0.0353
 7937W        W11988   1.522   5.954   9.506  0.0766 -0.1174 -0.2026
 7938W        W11989   0.025   8.271  12.863 -0.0812  0.2894 -0.0079
 7939W        W11990   9.398   3.062  12.174 -0.0207 -0.1585  0.1309
 7940W        W11991   4.538   4.747   2.614 -0.2661 -0.2211 -0.0756
 7941W        W11992   7.742   2.605   3.236  0.4139  0.1162  0.0954
 7942W        W11993   5.716   0.406   1.885 -0.1156  0.1313  0.1783
 7943W        W11994   0.358   6.236   5.081  0.1926 -0.1315 -0.0018
 7944W        W11995   4.202   3.425   1.705 -0.1979  0.0134 -0.4452
 7945W        W11996   8.859   5.436   1.896 -0.0134  0.2519  0.0816
 7946W        W11997  10.064   3.572  10.635  0.1553  0.0421  0.0482
 7947W        W11998   1.855   4.679   0.833  0.4738 -0.3825 -0.1390
 7948W        W11999   4.326   5.587   2.930 -0.2167  0.0782 -0.0315
 7949W        W12000   2.576   3.682   0.364 -0.1767 -0.1992  0.1480
 7950W        W12001   8.632   2.548  10.870 -0.1603  0.0795 -0.1152
 7951W        W12002   1.275   9.312  11.700 -0.1529 -0.1262 -0.2835
 7952W        W12003   6.377   2.877   9.768  0.0614  0.3593 -0.1986
 7953W        W12004   0.964   8.169  11.235 -0.0894  0.0035  0.0443
 7954W        W12005   9.227   8.056   3.662 -0.2906  0.0117  0.0418
 7955W        W12006   2.417   1.513  10.200 -0.0178 -0.2733  0.0138
 7956W        W12007   1.839  10.064  10.844 -0.0431 -0.3668 -0.1640
 7957W        W12008   9.299  10.158  11.997 -0.3598  0.0385  0.0574
 7958W        W12009   9.520   5.980   4.976 -0.0755 -0.0549 -0.0421
 7959W        W12010   5.699   3.204   4.413 -0.2277 -0.0226  0.1984
 7960W        W12011   5.429   3.518   4.680  0.2484 -0.3264 -0.0682
 7961W        W12012  10.067   7.553  12.720 -0.1752 -0.1276  0.0528
 7962W        W12013   5.310   7.686  11.102  0.0460 -0.0904  0.1581
 7963W        W12014   9.527   3.107   4.388 -0.3439 -0.0534  0.2694
 7964W        W12015   2.852   8.270  11.644  0.2266  0.0085 -0.3194
 7965W        W12016   8.586   5.364   2.479 -0.2291  0.1716 -0.1301
 7966W        W12017   6.040   3.900   9.620 -0.0419 -0.0789  0.1795
 7967W        W12018  10.051  10.150  13.074 -0.0722 -0.2662 -0.0574
 7968W        W12019   3.409   5.079   2.217 -0.2382 -0.1434 -0.0373
 7969W        W12020   5.337   6.325  10.076 -0.1657  0.0185 -0.2172
 7970W        W12021   6.359   8.669   9.400  0.0747 -0.2062  0.2835
 7971W        W12022   7.867   6.358  12.246 -0.3784  0.1340 -0.0214
 7972W        W12023   7.366   2.193   1.581 -0.0078 -0.2884 -0.2280
 7973W        W12024   9.184   6.435  10.293 -0.1349 -0.1149  0.3537
 7974W        W12025   0.768   2.145  12.415 -0.0159 -0.0102  0.0925
 7975W        W12026   5.564   0.891  13.300  0.3602 -0.0753 -0.1198
 7976W        W12027   7.501   7.011  10.946  0.0043 -0.0852  0.0547
 7977W        W12028   5.854   8.404  10.122 -0.0627 -0.0903 -0.1501
 7978W        W12029   7.738   8.217  12.613  0.1480  0.1155  0.2616
 7979W        W12030   9.908   1.687  11.785  0.1720 -0.2061  0.0903
 7980W        W12031   0.915   9.882  10.469  0.0256 -0.1823  0.1432
 7981W        W12032   3.232   2.782   9.677  0.0427 -0.0497  0.0524
 7982W        W12033   0.152   8.494  11.969  0.2025  0.1758  0.2319
 7983W        W12034   5.598   0.588   4.758  0.2929 -0.1690  0.4144
 7984W        W12035   2.117   9.117   1.264 -0.1106 -0.2051 -0.1587
 7985W        W12036   1.988   8.774  11.259 -0.0844  0.1497  0.1781
 7986W        W12037   8.105   7.560  12.256  0.0290 -0.1659  0.1520
 7987W        W12038   2.353   6.253   1.938  0.0478  0.1072  0.2236
 7988W        W12039   2.760   5.763  12.680  0.0393  0.0593  0.0914
 7989W        W12040   3.281   9.401   3.859  0.3359  0.0580  0.0588
 7990W        W12041   3.488   2.490  11.237  0.0531  0.3865 -0.2313
 7991W        W12042   6.623   9.765  10.285 -0.0156  0.0181  0.0936
 7992W        W12043   5.332   4.794   5.273 -0.0772  0.0070 -0.2852
 7993W        W12044   7.914   1.086  13.789 -0.5447 -0.0820 -0.3169
 7994W        W12045   0.247   4.333   3.672 -0.0576  0.3237 -0.2710
 7995W        W12046   1.421   1.848   3.730 -0.2176  0.1026 -0.1831
 7996W        W12047   7.202   4.688   8.772  0.0104  0.0910  0.1562
 7997W        W12048   7.515  10.027  13.993  0.1777  0.0671  0.2449
 7998W        W12049   5.261   2.178   2.314  0.1651 -0.0803  0.0434
 7999W        W12050   5.738   9.664  13.429 -0.2087 -0.2072  0.0901
 8000W        W12051   3.031   0.349  11.376  0.0145 -0.3455 -0.0579
 8001W        W12052   6.553   8.012  13.936  0.2981  0.1264  0.0631
 8002W        W12053   3.434   9.602   2.789  0.1554  0.1272 -0.0747
 8003W        W12054   4.065   6.517  11.540 -0.1635  0.0349 -0.1906
 8004W        W12055   6.391   4.340   5.036  0.2199 -0.0132  0.2702
 8005W        W12056   4.122   9.936   2.040  0.3307  0.0247  0.2352
 8006W        W12057   4.027   3.064  12.836  0.2086  0.1317 -0.1117
 8007W        W12058   8.970   1.837  10.551  0.1708 -0.0364 -0.0283
 8008W        W12059   6.917   5.693   2.536 -0.0736  0.1237  0.1543
 8009W        W12060   9.173   2.011  11.377  0.0026 -0.0311  0.2018
 8010W        W12061   6.507   8.528   4.347 -0.2581 -0.0873 -0.2297
 8011W        W12062   3.860   7.947   0.347 -0.0392 -0.0218  0.2380
 8012W        W12063   7.465   5.291  11.854 -0.0013  0.0904  0.0983
 8013W        W12064   5.756   0.981  13.749 -0.3897 -0.0477  0.1889
 8014W        W12065   4.513   4.618  11.167  0.0118 -0.0452  0.1693
 8015W        W12066   8.283   4.542   0.085 -0.2389 -0.1014  0.0470
 8016W        W12067   7.611   7.152   9.529  0.0307 -0.2201  0.2253
 8017W        W12068   0.680   4.146  12.976  0.1725  0.0153  0.0402
 8018W        W12069   7.171   4.898   5.333  0.1189  0.4234 -0.1045
 8019W        W12070   9.535   5.870   4.173  0.1144  0.1502  0.1755
 8020W        W12071   2.091   6.689   1.889  0.0017 -0.1140 -0.1463
 8021W        W12072   8.118   7.222  12.598  0.1245  0.1814  0.2580
 8022W        W12073   0.654   8.503  10.844  0.0790 -0.0281 -0.0311
 8023W        W12074   0.315   2.686  10.094  0.1080  0.2509  0.0040
 8024W        W12075   7.527   5.391  12.490 -0.1981 -0.2774 -0.0041
 8025W        W12076   2.879   1.706  13.737 -0.1859  0.1295  0.1344
 8026W        W12077   2.237   4.707   0.355 -0.3865  0.0350  0.3031
 8027W        W12078   8.614   6.966   4.049 -0.0004 -0.2394  0.0154
 8028W        W12079   1.497   7.560   1.932 -0.0734  0.3192  0.0599
 8029W        W12080   1.446   4.732   5.259  0.1222 -0.2717  0.0345
 8030W        W12081   2.026   4.034   9.962 -0.1165 -0.1239 -0.0272
 8031W        W12082   7.637   7.856   1.332 -0.0778  0.1279  0.2420
 8032W        W12083   6.301   9.551   6.038 -0.3168  0.0736 -0.2247
 8033W        W12084   0.291   3.269   9.497 -0.0968 -0.1517  0.0211
 8034W        W12085   8.855   4.701   5.247  0.4255  0.0122 -0.1259
 8035W        W12086   1.937   1.736   3.805 -0.1845 -0.0438  0.1687
 8036W        W12087   2.284   3.606   4.005  0.2709 -0.0788 -0.2695
 8037W        W12088   9.677   3.114  10.757 -0.0327 -0.1132  0.1724
 8038W        W12089   9.534   4.069  11.300 -0.0609  0.1316 -0.3763
 8039W        W12090   9.593   8.195   9.863 -0.2027  0.0568  0.0867
 8040W        W12091   7.242   6.647  12.072  0.0177 -0.1866  0.2661
 8041W        W12092   3.823   9.916   2.475  0.1340  0.0715  0.1609
 8042W        W12093   8.961   7.713   2.999 -0.0775  0.1082 -0.1026
 8043W        W12094   1.392   6.611  13.297  0.0290 -0.0677 -0.0239
 8044W        W12095   6.197   6.498   3.431  0.1318 -0.0391 -0.0138
 8045W        W12096   4.950   3.383  12.173  0.0435  0.1116  0.0485
 8046W        W12097   7.667   5.972   0.775  0.1581  0.0938  0.0458
 8047W        W12098   0.374   8.041  12.051 -0.2381  0.1303  0.1978
 8048W        W12099   1.039   3.962  12.326  0.1883 -0.4560  0.1214
 8049W        W12100  10.162   9.438   2.552  0.2172  0.3496 -0.2171
 8050W        W12101   2.022   0.701  11.355 -0.4325  0.0887  0.0281
 8051W        W12102   1.235   0.867   0.902 -0.2771 -0.0718  0.1450
 8052W        W12103   0.471   7.985   3.238  0.0880 -0.1596  0.0541
 8053W        W12104   2.273   0.842  13.218 -0.0294 -0.1612  0.1187
 8054W        W12105   6.165   3.816   8.619 -0.0344 -0.2237 -0.0360
 8055W        W12106   0.264   2.850   1.776 -0.1631  0.2350  0.2045
 8056W        W12107   5.638   1.871   4.038 -0.0133 -0.1523 -0.2135
 8057W        W12108   5.189   8.405   1.754  0.1611 -0.0039  0.0839
 8058W        W12109   6.977   3.531  13.854  0.4056 -0.0523  0.0085
 8059W        W12110   2.116   6.645   1.014  0.0281 -0.2503 -0.2050
 8060W        W12111   0.457   1.665   0.264 -0.2758  0.1832  0.0274
 8061W        W12112   7.537   9.505   3.976 -0.1825  0.1416  0.4291
 8062W        W12113   1.257   7.162   9.824 -0.1716  0.2108  0.3198
 8063W        W12114   3.335   4.646   5.097 -0.1706  0.1652 -0.1923
 8064W        W12115   1.677   3.666   4.250 -0.0239  0.1820 -0.0100
 8065W        W12116   2.609   1.751  10.603 -0.0112 -0.0798 -0.3177
 8066W        W12117   0.587   6.054   3.790 -0.2074  0.1637  0.0066
 8067W        W12118   0.569   1.191  13.757 -0.1207  0.0692  0.1774
 8068W        W12119   4.746   5.219  11.392  0.3048 -0.0332 -0.0379
 8069W        W12120   2.703   3.211   2.746  0.0124  0.2688 -0.0454
 8070W        W12121   6.398   7.310   0.994  0.0338 -0.1897  0.0361
 8071W        W12122   2.701   6.156   4.610  0.0654 -0.1233  0.2098
 8072W        W12123   5.090   4.671  13.726  0.3397 -0.0798  0.2601
 8073W        W12124   0.971   2.615  12.640  0.0613 -0.0065  0.1676
 8074W        W12125   7.542   4.813  10.058 -0.2922 -0.0758 -0.0132
 8075W        W12126   9.947   1.164  10.640 -0.2417  0.2853 -0.0644
 8076W        W12127   5.816   6.449  10.012 -0.2126  0.3965  0.1195
 8077W        W12128   3.216   2.401  10.759 -0.0225 -0.3921  0.4106
 8078W        W12129   4.887   4.281  11.094 -0.3708  0.2428 -0.1498
 8079W        W12130   1.766   1.043  12.445  0.0542 -0.0134  0.0709
 8080W        W12131   4.954   0.510  11.974  0.1907 -0.0353  0.0017
 8081W        W12132   9.830   5.578  10.527  0.1605  0.1528  0.3171
 8082W        W12133   9.271   7.418   5.188 -0.1652 -0.2166 -0.0362
 8083W        W12134   9.665   7.463   1.704 -0.0767 -0.1127  0.1008
 8084W        W12135   5.953   5.461  13.525 -0.0193 -0.3167  0.0010
 8085W        W12136   9.614   8.579   1.071  0.1371 -0.2105 -0.2966
 8086W        W12137   5.782   6.965  10.073  0.2210  0.2329  0.1683
 8087W        W12138   1.405   3.888  12.034  0.1379 -0.0861  0.1914
 8088W        W12139   4.465   8.101   9.417  0.1095 -0.3113 -0.2681
 8089W        W12140   1.187   9.772   2.883  0.1167  0.1468 -0.0793
 8090W        W12141   1.760   2.730   3.850 -0.0619 -0.1573  0.0043
 8091W        W12142   9.175   6.674  13.224  0.0144 -0.3820 -0.2077
 8092W        W12143   0.109   2.894  12.577  0.0886  0.0995 -0.0453
 8093W        W12144   8.145   4.415   1.354  0.1914 -0.3189 -0.0666
 8094W        W12145   6.016   1.974   2.338  0.2158  0.0746 -0.0170
 8095W        W12146   5.946   4.815   4.437 -0.1736 -0.1367 -0.0444
 8096W        W12147   1.571   2.141   1.605  0.0441 -0.2503  0.1389
 8097W        W12148   7.818   5.703   2.247 -0.3449  0.1133  0.0523
 8098W        W12149   3.471   7.853   1.211  0.0168  0.0343 -0.1018
 8099W        W12150   9.141   5.730   4.525  0.3258  0.0545  0.1431
 8100W        W12151   0.516   2.205   2.970 -0.1489 -0.1963 -0.2445
 8101W        W12152   9.487   1.112  10.343 -0.1223 -0.2448 -0.0874
 8102W        W12153   9.009   3.264   2.174  0.0912 -0.2627  0.0801
 8103W        W12154   6.946   5.919   0.302  0.1874 -0.0952  0.3309
 8104W        W12155   8.323   4.152   9.942 -0.0931  0.3105 -0.0635
 8105W        W12156   1.874   4.735  12.249  0.2169  0.1448  0.2538
 8106W        W12157  10.066   9.213  10.206 -0.0320 -0.2144  0.1478
 8107W        W12158   5.517   7.342  11.434  0.2437  0.1871  0.0552
 8108W        W12159   7.451   5.066  10.930  0.1791 -0.3488 -0.1922
 8109W        W12160   4.308   5.909  13.982  0.0230 -0.0066  0.0241
 8110W        W12161   9.564   6.391   9.629 -0.0156  0.1003 -0.0105
 8111W        W12162   9.450   3.964   3.340 -0.1411 -0.0060  0.0734
 8112W        W12163  10.168   1.870  13.699  0.2895 -0.2344  0.0392
 8113W        W12164   0.650   2.453  11.273  0.1591  0.1912  0.1022
 8114W        W12165   8.069   2.281   2.023  0.0486  0.1547 -0.0188
 8115W        W12166   6.194   0.796   5.372 -0.5089  0.1323  0.0093
 8116W        W12167   1.001   5.605   5.691  0.1175  0.0235 -0.0898
 8117W        W12168   9.088   5.007  10.411  0.1479  0.1596 -0.2768
 8118W        W12169   9.625  10.117   3.180 -0.2339 -0.1189  0.1366
 8119W        W12170   0.677   3.822   4.524 -0.0995 -0.2063 -0.3838
 8120W        W12171   3.805   2.884   1.713 -0.1588  0.1270  0.0224
 8121W        W12172   6.601   1.013   5.178  0.0817  0.0600 -0.2454
 8122W        W12173   3.215   9.232   2.036 -0.1494  0.0941  0.1232
 8123W        W12174   2.027   4.869   3.634  0.1353 -0.2712  0.0649
 8124W        W12175   8.830   8.293   2.791  0.0512 -0.1083  0.2183
 8125W        W12176   0.456   4.413  10.433  0.1018  0.0075 -0.1676
 8126W        W12177   8.245   4.916   2.226  0.0867  0.1691 -0.0765
 8127W        W12178   9.489   1.366  10.800 -0.1731  0.2523 -0.1030
 8128W        W12179   7.969   4.920   4.230  0.3015 -0.0752 -0.0867
 8129W        W12180   5.263   7.133   1.428  0.0401  0.2795 -0.0031
 8130W        W12181   5.469   4.876   9.898  0.2315  0.1445 -0.0752
 8131W        W12182   3.745   7.155  11.090  0.1835 -0.1416 -0.0727
 8132W        W12183   3.102   1.669  13.273 -0.0319 -0.1291 -0.1915
 8133W        W12184   8.133   4.895   2.866  0.2251 -0.0095  0.1918
 8134W        W12185   3.609   9.982  11.154 -0.1946 -0.1056  0.0438
 8135W        W12186   3.832   4.919   1.994 -0.0515  0.0944 -0.0215
 8136W        W12187   3.319   7.336  10.804 -0.1232 -0.1942 -0.0564
 8137W        W12188   5.166   5.454   4.524  0.3071 -0.4052 -0.2124
 8138W        W12189   9.381   6.705  11.791 -0.1338 -0.1424 -0.2398
 8139W        W12190   0.858   9.634  10.051 -0.2560 -0.0675  0.0366
 8140W        W12191   8.917   9.378  13.565 -0.2190 -0.0345  0.0488
 8141W        W12192   7.553   8.688  13.444 -0.1420  0.0850 -0.1563
 8142W        W12193   5.248   9.675  13.319  0.0051  0.2830 -0.0761
 8143W        W12194   8.459   1.765  13.582  0.0662 -0.1172 -0.0675
 8144W        W12195   8.580   1.248   1.720 -0.0822 -0.0970  0.1908
 8145W        W12196   3.186   7.453  13.819  0.2313 -0.0684 -0.1199
 8146W        W12197   9.208   1.442  12.907 -0.0991 -0.0181 -0.3795
 8147W        W12198   5.077   3.466   3.608  0.1514  0.3093  0.1767
 8148W        W12199   0.013   1.610   2.843  0.1208  0.0614  0.0569
 8149W        W12200   3.736   7.970   2.242 -0.0565 -0.0105  0.2389
 8150W        W12201   7.363   9.962  12.155 -0.3736 -0.2396 -0.1274
 8151W        W12202   7.952   2.036   0.720 -0.0983 -0.1464  0.0324
 8152W        W12203   8.430   9.538   0.067  0.0265 -0.0145  0.0507
 8153W        W12204   5.209   1.762   4.328 -0.1127  0.1504 -0.1304
 8154W        W12205   3.652   4.474  12.541  0.0993 -0.1759 -0.1706
 8155W        W12206   8.300   6.965   2.688  0.1177 -0.0594  0.2558
 8156W        W12207   1.916   0.378  13.910  0.4966  0.2564  0.0880
 8157W        W12208   4.197   2.570   2.573  0.1313  0.0042 -0.1587
 8158W        W12209   1.817   5.711   1.846  0.3057 -0.2914  0.0777
 8159W        W12210   8.556   8.328   1.741  0.1090  0.2309 -0.3803
 8160W        W12211   6.435   9.803   3.993 -0.1878 -0.0137 -0.1560
 8161W        W12212   4.641  10.065   3.686  0.1682 -0.3281 -0.0412
 8162W        W12213   3.820   1.363   4.173  0.3034 -0.0914 -0.1441
 8163W        W12214   3.104   3.855  11.767 -0.1611  0.1960  0.0797
 8164W        W12215   7.639   8.274   0.247  0.3064 -0.1116 -0.0631
 8165W        W12216   6.253   3.880  12.772  0.1122  0.0676  0.0008
 8166W        W12217   1.006   7.944   4.080 -0.2000 -0.1995  0.0208
 8167W        W12218   0.223   9.474  11.505  0.0595  0.1124  0.1409
 8168W        W12219   4.213   9.802  12.920  0.0584 -0.1823 -0.1924
 8169W        W12220   6.614   8.022   4.325  0.1556 -0.0571  0.2262
 8170W        W12221   7.029   1.807   1.815  0.3322 -0.0796  0.0106
 8171W        W12222   5.588   1.341  11.197  0.0168 -0.1722  0.3119
 8172W        W12223   5.491   6.237  12.693  0.0582  0.0480 -0.0907
 8173W        W12224   2.028   3.925  13.971 -0.2676  0.0886 -0.0702
 8174W        W12225   3.811   7.034   4.543 -0.0917  0.0820  0.0351
 8175W        W12226   6.288   1.777  10.530 -0.1939  0.1021  0.1356
 8176W        W12227   8.790   1.376  13.925  0.2148  0.0407  0.3959
 8177W        W12228   0.604   3.146   2.065  0.3656  0.1812 -0.0177
 8178W        W12229   7.936   7.375   1.427 -0.0571 -0.3339 -0.0141
 8179W        W12230  10.087   7.086  11.242  0.1792 -0.0619 -0.1434
 8180W        W12231   4.489   7.864  11.165  0.0358 -0.0571 -0.0927
 8181W        W12232   1.019   7.086   9.407  0.1443  0.1126 -0.0021
 8182W        W12233   9.328   1.143   2.236  0.1419 -0.0380 -0.1114
 8183W        W12234   2.713   8.127  12.159  0.4331 -0.0108 -0.0412
 8184W        W12235   3.433   5.084  10.523 -0.2315 -0.1782  0.0599
 8185W        W12236   9.682   2.743   2.779  0.0091 -0.1517  0.3409
 8186W        W12237   8.532   9.518   0.556  0.0297 -0.0008  0.0291
 8187W        W12238   6.232   3.324   1.187 -0.3487 -0.1467 -0.1191
 8188W        W12239   8.451   6.975   3.520  0.1347 -0.0284 -0.4250
 8189W        W12240   2.981   5.839   2.504 -0.0460 -0.1185  0.2747
 8190W        W12241   1.384   8.468  11.512  0.2164  0.2025 -0.0226
 8191W        W12242   0.279   1.115  10.515 -0.1809 -0.0146  0.0869
 8192W        W12243   2.726   7.799  13.433 -0.2210  0.0841 -0.2970
 8193W        W12244   1.511   3.430   4.674  0.0260 -0.1162 -0.1400
 8194W        W12245   4.512   3.099   0.585 -0.0758 -0.1320 -0.0473
 8195W        W12246   5.526   8.644   0.672 -0.1238  0.4204 -0.1703
 8196W        W12247   6.971   7.881  11.575 -0.0259 -0.3846 -0.0376
 8197W        W12248   9.149   8.944   1.817  0.0944  0.0556 -0.0408
 8198W        W12249   2.414   6.185  11.153 -0.0029 -0.3843  0.3050
 8199W        W12250   7.801   6.209   2.200 -0.1522  0.1395  0.1384
 8200W        W12251   2.870   7.169  11.161  0.0117  0.1881  0.0731
 8201W        W12252   3.156   3.261  13.711  0.3580  0.1830  0.0301
 8202W        W12253   5.911   1.201   0.728 -0.0146  0.1242  0.0209
 8203W        W12254   1.064   6.029   3.412 -0.1657 -0.4952  0.2708
 8204W        W12255   9.495   7.838  10.346  0.0316  0.0150  0.0558
 8205W        W12256   3.728   2.068   1.930  0.1654 -0.2813  0.1802
 8206W        W12257   7.248   6.339   3.241  0.2853  0.2254  0.1081
 8207W        W12258   5.880   9.754   1.809 -0.0846  0.2094  0.0890
 8208W        W12259   8.465   0.643   0.894  0.0926 -0.0997  0.1755
 8209W        W12260   0.484   2.794  11.697 -0.4133 -0.0215 -0.2934
 8210W        W12261   5.410   9.567   4.770 -0.0919 -0.0818  0.0310
 8211W        W12262   0.713   7.892  11.634  0.0044 -0.2343  0.0267
 8212W        W12263   9.494   5.922   9.853 -0.0415  0.0375  0.1784
 8213W        W12264   4.308   3.909  10.505  0.1952  0.0084 -0.1919
 8214W        W12265   8.799   5.264  10.780 -0.3204 -0.0228 -0.1425
 8215W        W12266   8.087   1.295  12.453  0.0453  0.0365 -0.1344
 8216W        W12267   8.808   7.668  11.457 -0.0560  0.0005 -0.1352
 8217W        W12268   9.124   3.460  12.155 -0.2935 -0.3821 -0.1565
 8218W        W12269   7.264   1.109   2.872  0.0765 -0.0444  0.0199
 8219W        W12270   1.576   0.211  10.136  0.0909  0.1722  0.2097
 8220W        W12271   6.764   1.198  12.438  0.1497 -0.0454  0.0416
 8221W        W12272   2.499   8.019   2.517 -0.1102  0.1199 -0.0978
 8222W        W12273   3.085   2.884   2.907 -0.0094  0.1241  0.0825
 8223W        W12274   0.409   2.956   0.745  0.0777  0.1039  0.2384
 8224W        W12275   2.769   4.273   1.419 -0.0358  0.0711  0.1430
 8225W        W12276   0.415   1.341  13.291 -0.1796 -0.1324  0.0529
 8226W        W12277   5.652   0.207   3.864  0.0522 -0.2800 -0.3791
 8227W        W12278  10.038   2.353   2.349  0.1163  0.0891  0.3226
 8228W        W12279   9.217   5.166   3.169 -0.0488  0.0859 -0.6347
 8229W        W12280   4.966   7.869  11.431  0.0160  0.3346  0.1740
 8230W        W12281   2.698   3.928   2.304 -0.1119  0.0561 -0.2040
 8231W        W12282   4.320   6.979  10.749  0.3608  0.1694  0.0841
 8232W        W12283   8.547   5.599   3.635 -0.0998 -0.1603  0.2099
 8233W        W12284   5.840   4.676   3.968 -0.0570 -0.1071  0.1197
 8234W        W12285   2.075   3.248   1.670 -0.1246 -0.1052 -0.0453
 8235W        W12286   4.151   2.740  10.436 -0.1268  0.1372 -0.0323
 8236W        W12287   1.146   3.744  10.388 -0.1127 -0.2084  0.0285
 8237W        W12288   3.592   1.965   0.614 -0.1385 -0.1323 -0.0575
 8238W        W12289   4.200   5.088   1.708 -0.3998  0.2010  0.0553
 8239W        W12290   9.271   3.690   2.582  0.0267 -0.0370  0.2049
 8240W        W12291   3.225   4.440   1.420  0.0650 -0.1520 -0.1250
 8241W        W12292   9.362   7.531  10.795 -0.0111  0.0749  0.0607
 8242W        W12293   4.540   4.754   3.754 -0.0412 -0.3108 -0.0479
 8243W        W12294   5.071   6.091   0.068 -0.3308  0.1790 -0.0767
 8244W        W12295   2.614   2.238   3.613 -0.3078  0.0285 -0.1191
 8245W        W12296   6.159   1.377   1.187  0.0991 -0.2065 -0.1297
 8246W        W12297   3.152   1.833   1.425 -0.1043  0.1305 -0.0864
 8247W        W12298   3.709   6.490   4.562 -0.0265  0.3808 -0.0395
 8248W        W12299   4.354   4.658   4.436 -0.4102 -0.2831  0.1627
 8249W        W12300   0.325   0.803   1.864 -0.0021  0.2589 -0.0047
 8250W        W12301   1.387   4.739  10.374 -0.2024  0.0566  0.1873
 8251W        W12302   1.559   7.242  11.350 -0.3209  0.2724  0.0582
 8252W        W12303   2.731   8.274  13.199  0.0453  0.1777 -0.3099
 8253W        W12304   8.826   1.525   3.805  0.2634  0.2965  0.1835
 8254W        W12305   0.472   0.036  14.001  0.2703 -0.0924  0.1018
 8255W        W12306   7.029   0.031   8.728 -0.1287 -0.1344 -0.0714
 8256W        W12307   1.956   0.269   2.993 -0.1300 -0.0704  0.1644
 8257W        W12308  10.008   8.737  12.926  0.1666 -0.0850  0.2462
 8258W        W12309   3.090   0.960  10.644  0.2318 -0.0568 -0.0229
 8259W        W12310   6.894   4.607   1.381  0.1914  0.0468  0.0362
 8260W        W12311   3.423   1.022  13.122 -0.0196  0.0020 -0.0643
 8261W        W12312   9.401   2.543   5.072  0.1387 -0.1170 -0.0688
 8262W        W12313   7.279   7.299   0.710  0.1945 -0.1324  0.0535
 8263W        W12314   3.829   3.552   9.951 -0.0687 -0.1820  0.3894
 8264W        W12315   1.247   2.251   9.201  0.2684  0.0224  0.0545
 8265W        W12316   1.737   9.535   0.619 -0.1083  0.0499  0.0830
 8266W        W12317   2.779   7.580  12.559  0.1278 -0.1014  0.3151
 8267W        W12318   6.639   5.890  13.093  0.1482 -0.2717 -0.0195
 8268W        W12319   4.862   1.346   5.609  0.1067 -0.2261  0.0759
 8269W        W12320   1.544   0.919  11.082 -0.4128  0.2714 -0.1895
 8270W        W12321   9.852   6.461   3.635 -0.1263  0.0129  0.0927
 8271W        W12322   5.108   1.571   3.387  0.1764  0.0794 -0.1083
 8272W        W12323   9.013   6.261   0.956  0.0998  0.0745  0.0306
 8273W        W12324   4.281   9.594   3.770 -0.3147  0.0190  0.1120
 8274W        W12325   8.452   7.179  13.545 -0.4176 -0.1307 -0.0841
 8275W        W12326   8.798   7.334   1.698  0.1852  0.1340 -0.1253
 8276W        W12327   9.866   5.986  13.603  0.3451 -0.2066 -0.1743
 8277W        W12328   6.979   6.620   1.063  0.0885  0.0042  0.1809
 8278W        W12329   4.056   9.435   2.085  0.1110  0.1102 -0.0765
 8279W        W12330   1.067   3.188   4.498 -0.1425 -0.0994  0.0218
 8280W        W12331   1.372   2.529   3.205 -0.0278  0.1802  0.1550
 8281W        W12332   8.488   7.976  10.144  0.0105  0.0169 -0.1736
 8282W        W12333   7.979  10.146   3.321 -0.1031  0.0432  0.2182
 8283W        W12334   5.169   0.773  11.093 -0.0183 -0.0533 -0.0115
 8284W        W12335   6.723   2.593   2.290  0.2540  0.2902 -0.1760
 8285W        W12336   3.687   5.952   0.813 -0.0624 -0.0468 -0.0934
 8286W        W12337   1.492   8.805  12.475  0.3214  0.2481 -0.1558
 8287W        W12338   4.693   2.096   0.516 -0.3706 -0.2538  0.0388
 8288W        W12339   9.786   1.596  13.556 -0.0375  0.0562  0.0166
 8289W        W12340   9.400   9.445  12.807 -0.0821  0.0966 -0.1942
 8290W        W12341   6.942   0.412  13.640 -0.1596  0.1274 -0.0990
 8291W        W12342   3.792   4.210  12.104 -0.1817  0.0034 -0.0766
 8292W        W12343   0.208   6.007   4.703 -0.1301 -0.2074  0.0006
 8293W        W12344   7.782   9.042  12.117 -0.1092 -0.1303  0.0290
 8294W        W12345   2.897   0.275  10.267  0.1599 -0.1706  0.1252
 8295W        W12346   8.537   9.270  11.899  0.2743  0.0364  0.2301
 8296W        W12347   4.755   0.000  11.849 -0.1494  0.0787 -0.1494
 8297W        W12348   7.189   4.151  11.015  0.1698 -0.1197 -0.1446
 8298W        W12349   2.131   4.776   1.311 -0.4397  0.2071  0.1777
 8299W        W12350   8.989   8.966   9.059  0.0768 -0.0293 -0.0603
 8300W        W12351   1.031   2.140  12.006 -0.1877  0.2045  0.2748
 8301W        W12352   5.364   3.000  12.252 -0.1069  0.4496  0.1164
 8302W        W12353   7.121   7.440  11.794 -0.4016 -0.2224  0.0496
 8303W        W12354   4.403   3.596  10.047 -0.0973 -0.2039  0.1836
 8304W        W12355   5.346   1.065   1.054 -0.0335 -0.4678  0.0051
 8305W        W12356   7.419   4.998   0.358  0.3076 -0.0424  0.4023
 8306W        W12357   7.996   5.172  12.492  0.1453  0.1938 -0.1126
 8307W        W12358   7.895   0.574  13.670 -0.1403  0.1925 -0.1303
 8308W        W12359   2.211   6.317   3.202 -0.3240 -0.6011  0.0708
 8309W        W12360   9.641   6.738  10.038 -0.0248 -0.2584  0.0032
 8310W        W12361   6.662   3.586   1.244  0.1970  0.0629  0.6802
 8311W        W12362   8.690   4.893   9.434 -0.1353 -0.4200 -0.0726
 8312W        W12363   4.411   8.826   8.975 -0.4491 -0.0034  0.1816
 8313W        W12364   7.295   2.036  10.593  0.0280  0.1623 -0.0196
 8314W        W12365   3.085   4.388  11.708 -0.2802 -0.1056 -0.1796
 8315W        W12366   5.280   4.444  11.885 -0.2311  0.0848  0.1831
 8316W        W12367   4.058   7.477   4.396 -0.4089  0.0221 -0.0490
 8317W        W12368   1.550   2.956   9.813  0.3422 -0.0709  0.1397
 8318W        W12369   3.172   7.354   9.230  0.5700 -0.0954  0.1161
 8319W        W12370   1.637   7.334  10.719 -0.0420  0.1433 -0.2461
 8320W        W12371   6.572   4.963  12.879  0.3423 -0.3945  0.2751
 8321W        W12372   7.126   7.157  12.788 -0.1633 -0.1462  0.1246
 8322W        W12373   0.354   8.657  12.944  0.1390  0.0035 -0.2651
 8323W        W12374   1.250   1.763  13.297  0.2152  0.2118  0.0575
 8324W        W12375   2.764   2.184  10.268 -0.1611  0.1559 -0.2579
 8325W        W12376   2.699   6.173   1.442  0.1068  0.1797 -0.2619
 8326W        W12377   1.916   8.457  12.702  0.1499  0.0026 -0.0991
 8327W        W12378   4.752   9.128   4.147  0.0613 -0.0659 -0.0107
 8328W        W12379   6.424   8.561  12.052 -0.4107 -0.0223  0.1055
 8329W        W12380   4.520   2.348  13.125 -0.0175 -0.1008 -0.2953
 8330W        W12381   4.858   1.085  10.885 -0.3148  0.1292 -0.1146
 8331W        W12382   1.067   3.322   2.017 -0.1682 -0.1271 -0.2311
 8332W        W12383   0.198   3.742   9.703 -0.1712  0.0142 -0.1094
 8333W        W12384   2.922   0.500   4.262  0.1407  0.1016  0.0074
 8334W        W12385   7.415   6.870   3.965 -0.2722  0.1014 -0.0377
 8335W        W12386   9.338   8.645  10.999 -0.2521 -0.1685 -0.1019
 8336W        W12387   3.936   5.958  13.532  0.2545 -0.2628 -0.0933
 8337W        W12388   4.096   7.869   9.860 -0.0992 -0.1571  0.0632
 8338W        W12389   5.450   7.692   3.758  0.0699 -0.1342 -0.3790
 8339W        W12390   0.237   2.725   1.289  0.1783  0.0098  0.1104
 8340W        W12391   5.800   9.317  13.866 -0.2592 -0.0989 -0.2432
 8341W        W12392   3.625   5.012   3.564 -0.0013  0.0209  0.1309
 8342W        W12393   9.855   4.981  12.434 -0.0749 -0.0668  0.2848
 8343W        W12394   7.827   5.680   1.752  0.0352 -0.0544 -0.1168
 8344W        W12395   5.950   8.640  12.034 -0.1882  0.2693 -0.1342
 8345W        W12396   9.477   5.796   8.871 -0.1229 -0.0836 -0.1527
 8346W        W12397   9.604   8.204  13.181  0.1128 -0.2096 -0.0521
 8347W        W12398   6.902   4.718   0.273 -0.1982  0.2221 -0.2660
 8348W        W12399   7.518   0.155   2.656  0.0281 -0.1014 -0.3525
 8349W        W12400   2.736   7.321  13.536 -0.3222 -0.0372 -0.1347
 8350W        W12401   1.010   0.967  11.950  0.1411  0.1827  0.2759
 8351W        W12402   0.983   2.059  11.099 -0.0217 -0.2745 -0.0696
 8352W        W12403   2.701   3.472  12.751 -0.2941 -0.0283 -0.1891
 8353W        W12404   8.282   2.972   2.504  0.0528  0.0959 -0.2153
 8354W        W12405   9.672   7.210   9.905 -0.4256  0.1764 -0.2069
 8355W        W12406   2.948   2.480  13.442  0.2994 -0.1670  0.3231
 8356W        W12407   6.666   4.373  10.440  0.0869 -0.1962  0.0351
 8357W        W12408   6.019   7.915   1.820  0.2703  0.2682 -0.0581
 8358W        W12409   7.031   7.691   4.155  0.0243 -0.0105 -0.1749
 8359W        W12410   0.520   9.058  11.246 -0.0638 -0.3132 -0.0572
 8360W        W12411   7.074   5.844  13.488 -0.1774 -0.3268 -0.2243
 8361W        W12412   9.301   1.528   3.764 -0.0738 -0.1030  0.1426
 8362W        W12413   0.355   5.420  13.269 -0.1839  0.0969  0.3625
 8363W        W12414   2.316   2.620  13.853 -0.0561 -0.1423 -0.2195
 8364W        W12415   7.002   7.551  12.294 -0.1000 -0.0225  0.2286
 8365W        W12416   9.647   9.668  10.476 -0.0942  0.3004  0.2476
 8366W        W12417   3.828   1.380   5.074 -0.0112  0.3687 -0.1449
 8367W        W12418   9.785   0.114   2.675  0.0379 -0.2345 -0.1097
 8368W        W12419   9.055   8.007   5.072 -0.0367 -0.1230  0.0961
 8369W        W12420   3.552   4.063   0.309 -0.2383 -0.0618  0.1374
 8370W        W12421   3.434   9.082   1.574  0.1035 -0.1631 -0.1182
 8371W        W12422   3.887   7.015   3.715  0.2911  0.1650 -0.0373
 8372W        W12423   8.867   4.482  12.910  0.1940  0.0783  0.0010
 8373W        W12424   9.776   6.108   0.308 -0.1321  0.1609 -0.0246
 8374W        W12425   3.976   9.060  13.776  0.0460  0.0771  0.1649
 8375W        W12426   8.353   8.720  11.992 -0.1918 -0.3457 -0.3897
 8376W        W12427   3.588   8.720   2.483  0.3189  0.0452  0.0152
 8377W        W12428   0.457   9.991  10.219 -0.0574 -0.2413  0.0841
 8378W        W12429   1.599   5.231   1.920  0.0243 -0.0404  0.1268
 8379W        W12430   6.877   1.359  11.116  0.4696  0.1067  0.0220
 8380W        W12431   1.598   4.731  11.315 -0.0146  0.0282  0.1979
 8381W        W12432   6.242   1.379   5.457  0.0412 -0.0218  0.0839
 8382W        W12433   8.570   6.768  12.462 -0.0759  0.1424 -0.4650
 8383W        W12434   3.180   6.516  12.190 -0.3352  0.1861  0.1553
 8384W        W12435   1.118   8.270  12.474  0.1287  0.0300 -0.0756
 8385W        W12436   4.095   3.129   1.011  0.1864 -0.3417  0.1170
 8386W        W12437   7.516   4.980   4.974 -0.0174 -0.2208 -0.0256
 8387W        W12438   2.040   0.737   1.201  0.0133  0.0120 -0.0596
 8388W        W12439   5.479   8.304  12.810 -0.1633  0.3256 -0.1580
 8389W        W12440   2.388   4.378   1.001  0.2851  0.1517  0.0390
 8390W        W12441   4.827   8.909   9.731 -0.1383 -0.0461 -0.1640
 8391W        W12442   8.475   3.125  11.216  0.0096 -0.2266 -0.0326
 8392W        W12443   4.874   1.599   0.565  0.1991  0.1132 -0.0214
 8393W        W12444   2.113   7.487   0.198  0.0466 -0.0402 -0.0270
 8394W        W12445   7.556   2.409  11.923 -0.0117 -0.0040 -0.0042
 8395W        W12446   5.193   8.712   4.590  0.1465  0.0457  0.1609
 8396W        W12447   5.276   4.945  13.319  0.0096  0.0418  0.2274
 8397W        W12448   0.751   1.923  11.590 -0.0949 -0.0289  0.0459
 8398W        W12449   0.338   6.697  13.053  0.2867 -0.2305 -0.2033
 8399W        W12450   3.091   6.312   1.097 -0.1627  0.0800 -0.1356
 8400W        W12451   5.987   3.007   2.694  0.3286  0.1060  0.1116
 8401W        W12452   0.560   4.583   1.900  0.0853 -0.0594 -0.0249
 8402W        W12453   7.316   9.316   2.950 -0.2003 -0.0692  0.0152
 8403W        W12454   5.351   3.662  12.857  0.0126 -0.1623 -0.1104
 8404W        W12455   5.866   6.002   5.081  0.0463  0.0564  0.1402
 8405W        W12456   0.403   1.163  12.456  0.0683 -0.0403 -0.0595
 8406W        W12457   8.083   4.550   2.496  0.0491  0.4071  0.3030
 8407W        W12458   4.659   7.927   2.070  0.0578  0.3106  0.4113
 8408W        W12459   7.904   8.769  12.532  0.2068  0.3347 -0.0214
 8409W        W12460   2.704  10.108  13.548 -0.0029  0.1010  0.3627
 8410W        W12461   4.643   2.194   2.310 -0.1121 -0.0823  0.1425
 8411W        W12462   7.477   9.864   9.864 -0.1831 -0.0559 -0.2871
 8412W        W12463   3.665   3.282   2.521 -0.4436  0.1869  0.1917
 8413W        W12464   1.757   9.467  10.104 -0.1813 -0.0907 -0.1566
 8414W        W12465   2.761   2.818   1.436 -0.2752 -0.3188 -0.0759
 8415W        W12466   5.288   4.823  10.391  0.1893 -0.2171  0.1687
 8416W        W12467   9.518   1.810   9.149  0.0795  0.3365 -0.3323
 8417W        W12468   5.925   7.699   0.682 -0.3765  0.0803 -0.1968
 8418W        W12469   9.104  10.011  10.407 -0.0633  0.0207  0.0801
 8419W        W12470   1.886   8.247  11.455 -0.1089 -0.0760 -0.0745
 8420W        W12471   6.270   4.644   3.141 -0.3593 -0.0787  0.1534
 8421W        W12472   4.753   9.474   1.642  0.1432  0.1571  0.0296
 8422W        W12473   6.222   4.421   3.622 -0.1279 -0.0697 -0.2390
 8423W        W12474   9.925   9.283  10.742  0.1648 -0.1982  0.1274
 8424W        W12475   6.328   7.852  12.917  0.2256 -0.0830  0.0856
 8425W        W12476   1.837   4.330  13.677 -0.3170  0.1321 -0.0369
 8426W        W12477   7.119   8.036   9.613 -0.0716  0.0008 -0.2266
 8427W        W12478   5.031   2.024  13.983 -0.0276  0.0720 -0.0736
 8428W        W12479   5.802   9.092  11.730 -0.1737  0.0006  0.4536
 8429W        W12480   5.321   5.841   4.268  0.0832  0.1811  0.0192
 8430W        W12481   9.060   8.459  13.435 -0.0752 -0.0897  0.0578
 8431W        W12482   9.720   3.350   1.191 -0.0301  0.5080  0.1479
 8432W        W12483   4.952   3.551   9.920 -0.0671 -0.1759  0.1207
 8433W        W12484   0.374   7.286  12.656 -0.4612  0.4854 -0.2133
 8434W        W12485   6.005   1.528  10.240  0.1808 -0.3390  0.0166
 8435W        W12486   8.851   0.422   8.991  0.1478 -0.3732 -0.1505
 8436W        W12487   4.950   0.493   2.710 -0.1972  0.4615 -0.1165
 8437W        W12488   3.700   2.736   4.807  0.1047  0.0342  0.1208
 8438W        W12489   9.018   7.337   0.740  0.1698  0.1741 -0.3517
 8439W        W12490   9.035   2.218  12.783  0.1301  0.1083  0.0806
 8440W        W12491   4.144   8.852  11.680  0.0984  0.0835 -0.1060
 8441W        W12492   9.361   8.639   3.942 -0.1269  0.1153 -0.1112
 8442W        W12493   3.755   8.253   3.934 -0.1418 -0.1699 -0.1889
 8443W        W12494   3.117   8.154   9.355  0.1965  0.1008  0.0088
 8444W        W12495   3.084   7.293  12.820 -0.0482 -0.0141  0.2016
 8445W        W12496   8.451   0.982  13.991 -0.0581 -0.2128 -0.1473
 8446W        W12497   7.254   8.747   4.423  0.3467  0.0975  0.3117
 8447W        W12498   5.061   3.983   3.482  0.0516  0.2129 -0.0397
 8448ION    NA+12499   7.923   8.379   4.995 -0.2752  0.0032  0.0680
 8449ION    NA+12500   1.980   3.306   9.038 -0.2393  0.2532 -0.1581
 8450ION    NA+12501   7.919   8.087   3.511  0.0716  0.1096  0.2110
 8451ION    NA+12502   1.546   2.629  10.231 -0.0608 -0.1635  0.5179
 8452ION    NA+12503   7.126   8.398   5.221  0.0454 -0.0792  0.1828
 8453ION    NA+12504   1.435   0.203   0.114 -0.3240 -0.4099  0.0037
 8454ION    NA+12505   6.956   7.074   8.782 -0.0375  0.1546 -0.1790
 8455ION    NA+12506   4.011   4.629   0.986  0.1671 -0.1282  0.1721
 8456ION    NA+12507   2.822   5.953   0.396  0.2544 -0.4974  0.0904
 8457ION    NA+12508   5.464   9.556   3.345 -0.1105 -0.3268  0.0648
 8458ION    NA+12509   8.455   8.451  13.794 -0.0256 -0.0776 -0.0012
 8459ION    NA+12510   1.921   7.802   2.166  0.0705  0.1151  0.1401
 8460ION    NA+12511   1.583   8.281  10.470  0.2609  0.0551  0.1761
 8461ION    NA+12512   0.015   5.127   9.197 -0.0110  0.0166 -0.0998
 8462ION    NA+12513   4.897   4.206  13.733  0.1643  0.0993  0.4135
 8463ION    NA+12514   5.707   6.581   4.471  0.2312  0.0097  0.2006
 8464ION    NA+12515   0.330   0.268   3.494  0.0962  0.0035 -0.0712
 8465ION    NA+12516   6.958   1.900   0.861 -0.1528 -0.0902 -0.0743
 8466ION    NA+12517   8.490   0.279  11.440 -0.4008 -0.0071 -0.1834
 8467ION    NA+12518   5.136   8.211   1.309  0.0624  0.1933  0.0898
 8468ION    NA+12519   7.644   0.999  10.412 -0.4206  0.2613  0.0629
 8469ION    NA+12520   0.780   1.949   0.545  0.3547 -0.1255 -0.2050
 8470ION    NA+12521   8.853   3.148   1.599  0.2589 -0.1634 -0.0490
 8471ION    NA+12522   1.068   8.522   3.546 -0.0124  0.0108  0.2380
 8472ION    NA+12523   6.864   5.373   9.547 -0.0364  0.1166 -0.2271
 8473ION    NA+12524   4.476   8.520  12.506  0.1315  0.0934 -0.0338
 8474ION    NA+12525   4.106   5.572   5.397 -0.2376 -0.0033 -0.1742
 8475ION    NA+12526   0.459   7.497  11.909 -0.1675  0.0700 -0.0612
 8476ION    NA+12527   4.926   4.660  11.622  0.1503  0.2376  0.2244
 8477ION    NA+12528   5.993   8.536  13.457 -0.2956 -0.0991 -0.2062
 8478ION    NA+12529   2.355   2.518   4.364  0.2256  0.1867  0.0009
 8479ION    NA+12530   8.016   6.422   0.068  0.2073 -0.1621  0.2937
 8480ION    NA+12531   5.468   4.133  11.579 -0.2020 -0.1614 -0.0767
 8481ION    NA+12532   4.852   8.742   3.842 -0.0979  0.1475  0.0762
 8482ION    NA+12533   3.018   4.315   9.163  0.1504  0.0299  0.0803
 8483ION    NA+12534   4.883   9.963  11.340 -0.0493 -0.0155 -0.1466
 8484ION    NA+12535   2.622   7.342   3.942  0.1822 -0.0056  0.0515
 8485ION    NA+12536   9.036   4.966   1.560 -0.1077  0.0649 -0.2186
 8486ION    NA+12537  10.034   3.519   5.140  0.0628 -0.1497 -0.1553
 8487ION    NA+12538   6.224   5.145  10.281 -0.1761 -0.1255 -0.0522
 8488ION    NA+12539   6.254   5.570  12.807  0.3677 -0.0937 -0.1521
 8489ION    NA+12540   5.607   7.500  11.893  0.0172 -0.0307 -0.0584
 8490ION    NA+12541   7.202   0.882  11.361  0.0955  0.0004 -0.0147
 8491ION    NA+12542   8.689   6.923   3.081 -0.0027  0.3132  0.3913
 8492ION    NA+12543   4.274   7.810  12.167 -0.0757  0.0004 -0.0887
 8493ION    NA+12544   1.942   6.036  12.415 -0.0418  0.0903 -0.0770
 8494ION    NA+12545   4.096   2.179  10.578  0.4595 -0.2028  0.4108
 8495ION    NA+12546   4.899   3.745   1.269  0.2437  0.0618 -0.2044
 8496ION    NA+12547   4.173   1.338  11.847  0.4057  0.1306  0.2738
 8497ION    NA+12548   9.513   3.719   0.407 -0.1844 -0.3201 -0.1864
 8498ION    NA+12549   8.015   5.420   3.216  0.3303  0.0693  0.0796
 8499ION    NA+12550   7.472   2.824   0.827  0.2206 -0.4033 -0.1874
 8500ION    NA+12551   8.855   6.160   4.520 -0.1591 -0.3443  0.4990
 8501ION    NA+12552   2.425   2.545  11.593 -0.2000  0.1717 -0.0617
 8502ION    NA+12553   9.014   3.369   3.850 -0.2873 -0.0543  0.1586
 8503ION    NA+12554   1.540   0.132   0.798 -0.1662 -0.2065 -0.0564
 8504ION    NA+12555   2.703   4.797   0.104 -0.1898  0.1257  0.1963
 8505ION    NA+12556   9.204   4.105  12.935 -0.0006 -0.3457  0.3486
 8506ION    NA+12557   7.489   4.265  13.523  0.2155 -0.1395 -0.0549
 8507ION    NA+12558   7.104   3.319   9.060  0.4236  0.0337 -0.0268
 8508ION    NA+12559   5.833   7.267   5.181  0.2853 -0.0001  0.2708
 8509ION    NA+12560   1.393   3.362   2.801 -0.0339  0.3733  0.0427
 8510ION    NA+12561   1.813   8.296  13.695  0.0257 -0.1506  0.0137
 8511ION    NA+12562   9.500   7.139   3.462  0.2476  0.0459  0.0913
 8512ION    NA+12563   9.054   0.835  10.446 -0.0040  0.0177 -0.0571
 8513ION    NA+12564   4.369   8.509   2.526  0.2119 -0.0735  0.0839
 8514ION    NA+12565   4.878   0.675   4.530  0.0250 -0.1189  0.0925
 8515ION    NA+12566   1.944   4.504   2.818  0.1022 -0.0959 -0.0002
 8516ION    NA+12567   2.649   3.847  13.075 -0.3387  0.1462  0.0528
 8517ION    NA+12568   6.637   7.166  11.053 -0.0627  0.1222  0.0860
 8518ION    NA+12569   7.612   0.574   1.007 -0.0047 -0.2522  0.1446
 8519ION    NA+12570   6.491   6.896   0.697  0.1588 -0.0928 -0.1419
 8520ION    NA+12571   2.435   4.192   0.465  0.0561 -0.0561  0.0280
 8521ION    NA+12572   4.896   2.985   5.603  0.3316 -0.0277  0.1678
 8522ION    NA+12573   9.119   6.961  12.793  0.1100 -0.0304  0.0012
 8523ION    NA+12574   9.779   9.854   9.692 -0.1667  0.3373  0.0764
 8524ION    NA+12575   4.801   4.929   1.866  0.0359  0.0999 -0.2106
 8525ION    NA+12576   0.098   5.978   9.143 -0.2372  0.1549  0.2272
 8526ION    NA+12577   3.062   1.412   9.250 -0.1992 -0.0085 -0.1263
 8527ION    NA+12578   0.604   4.193   1.117  0.1822 -0.3856 -0.1955
 8528ION    NA+12579   8.393   2.270  13.525 -0.3773  0.2068 -0.2645
 8529ION    NA+12580   7.298   9.091  13.839  0.0543 -0.1456 -0.2520
 8530ION    NA+12581   7.456   2.643  12.398  0.0459 -0.1236 -0.1160
 8531ION    NA+12582   2.938   9.624   3.567  0.0534  0.2223 -0.0515
 8532ION    NA+12583   5.868   1.584  11.626  0.0141 -0.0177 -0.0836
 8533ION    NA+12584   3.017   4.544   0.963  0.0171  0.3807 -0.2370
 8534ION    NA+12585   2.782   3.730   4.407  0.1045  0.0087 -0.0294
 8535ION    NA+12586   4.611   5.495   9.052  0.3129 -0.0371  0.0065
 8536ION    NA+12587   2.821   0.701  13.185  0.1489  0.2052  0.1948
 8537ION    CL-12588   4.813   4.565   2.179  0.0296  0.0694  0.1215
 8538ION    CL-12589   7.204   9.103   0.774  0.1392 -0.0170  0.1583
 8539ION    CL-12590   5.718   7.914  12.129 -0.2069 -0.1645  0.1902
 8540ION    CL-12591   2.416   4.906  13.683  0.1633  0.1401  0.3891
 8541ION    CL-12592   6.836   1.448   1.086  0.1747 -0.1121  0.0290
 8542ION    CL-12593   7.589   0.121   1.099 -0.0442  0.3896  0.0283
 8543ION    CL-12594   9.015   3.017   4.292 -0.1806 -0.2967 -0.2205
 8544ION    CL-12595   7.925   8.413   3.111 -0.3559 -0.1029 -0.0367
 8545ION    CL-12596   8.705   4.764   1.029 -0.0968  0.1962  0.0322
 8546ION    CL-12597   1.255   5.200   4.548 -0.3172  0.1157 -0.3061
 8547ION    CL-12598   3.118   0.794  13.892  0.1459  0.3114 -0.3992
 8548ION    CL-12599   9.043   1.812  12.513 -0.0322 -0.0963 -0.3805
 8549ION    CL-12600   6.168   5.202  13.192  0.1211  0.1464 -0.0251
 8550ION    CL-12601   2.505   3.348   3.199  0.0151 -0.0956 -0.1203
 8551ION    CL-12602   3.967   0.467  11.774 -0.0314  0.1840  0.4987
 8552ION    CL-12603   4.588   1.253  13.559 -0.1456 -0.1659  0.1434
 8553ION    CL-12604   8.828   2.615   1.469 -0.0482 -0.2822  0.1619
 8554ION    CL-12605   7.239   1.035  10.855  0.3166  0.1949  0.0958
 8555ION    CL-12606   7.441   1.237   9.884 -0.3315  0.0398 -0.1838
 8556ION    CL-12607   5.542   6.671  10.421  0.0648 -0.3542 -0.2003
 8557ION    CL-12608   1.514   9.956   0.408  0.2202  0.0704 -0.0237
 8558ION    CL-12609   2.587   8.572  10.937 -0.4734 -0.1842  0.0427
 8559ION    CL-12610   1.533   8.429  13.285  0.2934  0.1992 -0.1983
 8560ION    CL-12611   1.079   2.843   4.046  0.0339 -0.0819  0.0123
 8561ION    CL-12612   3.791   4.385   0.655 -0.1358  0.2092 -0.0110
 8562ION    CL-12613   5.399   4.608  11.460 -0.2045 -0.1441 -0.0922
 8563ION    CL-12614   4.058   4.794   9.718  0.2136  0.1649 -0.0345
 8564ION    CL-12615   0.102   4.267   1.264  0.0823 -0.2470  0.0728
 8565ION    CL-12616   4.328   8.063  12.751  0.1900  0.2308 -0.0067
 8566ION    CL-12617   1.942   2.798   4.452 -0.0836 -0.0128 -0.1189
 8567ION    CL-12618   4.277   8.957  12.684 -0.1421  0.1418 -0.1308
 8568ION    CL-12619   8.581   7.264  12.643  0.2662  0.3747  0.1134
 8569ION    CL-12620   5.106   5.519  11.765  0.0819  0.2367 -0.1000
 8570ION    CL-12621   9.940   3.522   1.633 -0.1752  0.0303 -0.0516
 8571ION    CL-12622   5.914   9.810   4.652 -0.0496 -0.0080  0.2594
 8572ION    CL-12623   5.764   1.918   1.314 -0.0559 -0.0131  0.0220
 8573ION    CL-12624   4.141   8.001   4.383 -0.1742  0.1195 -0.1008
 8574ION    CL-12625   9.102   0.543   3.936 -0.0772  0.0840  0.0669
 8575ION    CL-12626   0.945   9.112  10.209  0.0858 -0.4312  0.0615
 8576ION    CL-12627   6.419   9.707   3.108 -0.0866  0.0983  0.1495
 8577ION    CL-12628   2.716   4.641   0.597  0.1584  0.2481 -0.1101
 8578ION    CL-12629   8.795   7.404   4.485 -0.0657 -0.0095  0.0121
 8579ION    CL-12630   9.935   6.950   3.608 -0.2132  0.0847  0.4186
 8580ION    CL-12631   5.511   6.319   3.978  0.1718 -0.1565  0.1719
 8581ION    CL-12632   1.958   2.594  10.595 -0.0571 -0.0643 -0.1908
 8582ION    CL-12633   2.388   7.670   1.913 -0.2229 -0.1266 -0.3128
 8583ION    CL-12634   6.261   6.741   9.871  0.1475 -0.1032  0.0180
 8584ION    CL-12635   2.122   5.700  11.953  0.2158 -0.3284 -0.2412
 8585ION    CL-12636   6.612   5.368  10.047  0.1449  0.3053 -0.2466
 8586ION    CL-12637   2.066   2.333  11.850  0.0513  0.0228 -0.0368
 8587ION    CL-12638  10.049   0.241   3.100  0.0479 -0.0152 -0.1460
 8588ION    CL-12639   7.634   1.760   9.867 -0.0552  0.1427  0.2823
 8589ION    CL-12640   9.694   2.990   9.995  0.0058  0.0773 -0.0700
 8590ION    CL-12641   4.026   8.912   2.403 -0.1470 -0.0839  0.0457
 8591ION    CL-12642   8.341   6.730   0.328 -0.0483 -0.0334  0.0310
 8592ION    CL-12643   0.139   7.015  12.027  0.0063  0.1702 -0.3722
 8593ION    CL-12644   9.148   6.771   9.872 -0.0413  0.1159  0.0316
 8594ION    CL-12645   9.081   0.936  10.987 -0.3024  0.0294 -0.4171
 8595ION    CL-12646   1.259   7.095  11.868 -0.4033  0.0519 -0.0772
 8596ION    CL-12647   9.418  10.010  10.816 -0.0027  0.0060  0.0367
 8597ION    CL-12648   8.990   7.021   3.520  0.4021 -0.2942  0.2084
 8598ION    CL-12649   1.881   3.750   2.556 -0.1725  0.3223 -0.2045
 8599ION    CL-12650   1.200   1.629   0.414  0.0269  0.1895  0.0906
 8600ION    CL-12651   5.818   0.076  10.833 -0.0534  0.0997 -0.1539
 8601ION    CL-12652   5.083   8.842  10.130  0.2863  0.1818 -0.1145
 8602ION    CL-12653   7.184   2.373   1.000  0.0744  0.0458  0.0438
 8603ION    CL-12654   2.535   3.308   4.342  0.0503  0.3701  0.0223
 8604ION    CL-12655   9.444   4.103  13.383 -0.1723 -0.3425  0.1366
 8605ION    CL-12656   5.666   3.701  11.873 -0.3021 -0.0008  0.0080
 8606ION    CL-12657   3.817   6.914  10.215  0.2309 -0.3458  0.0556
 8607ION    CL-12658   2.964   4.188  13.167 -0.0250 -0.1365  0.0943
 8608ION    CL-12659   4.668   8.220   1.080  0.0938  0.0319 -0.1130
 8609ION    CL-12660   6.219   6.801  11.125 -0.1830  0.0835 -0.3150
 8610ION    CL-12661   7.715   0.563  10.702  0.1962  0.1107  0.1567
 8611ION    CL-12662   4.627   2.380  10.599 -0.0134  0.0918  0.0967
 8612ION    CL-12663   9.255   3.297   0.406  0.0731  0.2295  0.0613
 8613ION    CL-12664   1.989   7.529  11.044 -0.0845  0.0059 -0.1074
 8614ION    CL-12665   1.492   8.155   2.443  0.1700  0.1472 -0.1030
 8615ION    CL-12666   6.147   1.583  11.204 -0.4529  0.2042  0.0737
 8616ION    CL-12667   4.486   8.187   3.367 -0.1260  0.1431  0.1362
 8617ION    CL-12668   8.900   3.754   3.511  0.1013  0.0212  0.1002
 8618ION    CL-12669   6.987   6.434   1.871  0.0649  0.0138 -0.2880
 8619ION    CL-12670   9.633   4.956   9.415  0.3336  0.2095 -0.0692
 8620ION    CL-12671   9.430   8.925   9.608 -0.2801  0.0394 -0.2688
 8621ION    CL-12672   4.863   2.642   4.579 -0.1843  0.1054  0.0168
 8622ION    CL-12673   7.900   8.231   4.522 -0.2689  0.1941 -0.1271
 8623ION    CL-12674   7.561   0.991  11.701  0.0101 -0.1653  0.1829
 8624ION    CL-12675   4.469   7.212   3.768  0.1218  0.0828 -0.0098
 8625ION    CL-12676   2.654   3.964   0.804  0.1121  0.0742 -0.2094
  10.17247  10.17247  14.02111
