Protein in INSANE! Membrane UpperLeaflet>POPC=1.0 LowerLeaflet>POPC=1.0
11125
    1AU     AUC    1   1.630   5.244   6.565 -0.0233 -0.0136  0.1024
    1AU     AUC    2   1.858   5.227   6.821  0.0118 -0.0574  0.0754
    1AU     AUC    3   1.552   5.052   6.781  0.0261 -0.0321  0.1309
    1AU     AUC    4   1.701   5.390   6.311 -0.0591  0.0653  0.0366
    1AU     AUC    5   1.367   5.295   6.342 -0.0597  0.0034 -0.0265
    1AU     AUC    6   1.491   5.537   6.512  0.0876  0.0356 -0.0008
    1AU     AUC    7   1.609   5.417   6.840  0.0365 -0.0275  0.0296
    1AU     AUC    8   1.677   5.096   6.288  0.0690 -0.0478  0.0417
    1AU     AUC    9   1.763   4.980   6.581 -0.0347  0.1027  0.0532
    1AU     AUC   10   1.442   4.968   6.513  0.0248 -0.0385 -0.0183
    1AU     AUC   11   1.321   5.277   6.653  0.0416 -0.0529  0.0224
    1AU     AUC   12   1.936   5.240   6.495  0.0295 -0.0353  0.0418
    1AU     AUC   13   1.811   5.495   6.653 -0.0206 -0.0211  0.0113
    1AU     AUC   14   2.086   5.167   7.113 -0.0011  0.0175 -0.0753
    1AU     AUC   15   1.767   5.011   7.090  0.1110  0.0379 -0.0663
    1AU     AUC   16   1.467   4.844   7.066 -0.0106  0.0519 -0.0399
    1AU     AUC   17   1.800   5.590   6.041 -0.0271  0.0232 -0.0055
    1AU     AUC   18   1.449   5.466   6.033 -0.0504 -0.0728  0.0005
    1AU     AUC   19   1.141   5.341   6.116  0.0679  0.0511  0.0428
    1AU     AUC   20   1.375   5.847   6.522 -0.0639  0.0119 -0.0549
    1AU     AUC   21   1.451   5.768   6.852 -0.0554  0.0048  0.1273
    1AU     AUC   22   1.529   5.603   7.129  0.0081 -0.0704  0.0227
    1AU     AUC   23   1.725   4.922   5.984 -0.0454  0.0950 -0.0517
    1AU     AUC   24   1.846   4.786   6.273  0.0112  0.0366 -0.0354
    1AU     AUC   25   1.925   4.657   6.601 -0.0020 -0.0859  0.0081
    1AU     AUC   26   1.235   4.732   6.471 -0.0119  0.0191 -0.0856
    1AU     AUC   27   1.081   5.020   6.611  0.0022 -0.0867 -0.0336
    1AU     AUC   28   1.015   5.316   6.772 -0.0944 -0.0356  0.1015
    1AU     AUC   29   2.244   5.178   6.431  0.0084  0.0176  0.0181
    1AU     AUC   30   2.200   5.494   6.566  0.0841 -0.0582 -0.0200
    1AU     AUC   31   2.046   5.752   6.696 -0.0285 -0.0545  0.0677
    1AU     AUC   32   1.323   4.758   6.744  0.0057  0.1317  0.0164
    1AU     AUC   33   1.226   5.043   6.927  0.0595 -0.1032  0.0746
    1AU     AUC   34   2.214   5.200   6.812  0.0586  0.0275 -0.0514
    1AU     AUC   35   2.072   5.457   6.956 -0.0506 -0.0311 -0.0191
    1AU     AUC   36   1.132   5.034   6.272 -0.0002 -0.0015 -0.0410
    1AU     AUC   37   1.016   5.360   6.450  0.0508 -0.0750  0.0136
    1AU     AUC   38   2.038   5.390   6.204  0.0551  0.0675  0.0565
    1AU     AUC   39   1.954   5.670   6.329  0.1432  0.0652 -0.0343
    1AU     AUC   40   1.797   5.360   7.144 -0.0383  0.0129  0.0171
    1AU     AUC   41   1.495   5.211   7.100 -0.0140  0.0314 -0.0066
    1AU     AUC   42   1.542   5.756   6.247 -0.0667 -0.0804  0.0449
    1AU     AUC   43   1.210   5.626   6.299 -0.0785 -0.0446  0.0094
    1AU     AUC   44   2.012   4.880   6.868  0.0177 -0.0852 -0.0123
    1AU     AUC   45   1.710   4.715   6.818 -0.0483  0.0835 -0.0742
    1AU     AUC   46   1.759   5.225   5.967  0.0651 -0.0404 -0.0558
    1AU     AUC   47   1.413   5.114   6.036 -0.0215 -0.0046  0.0153
    1AU     AUC   48   1.190   5.633   6.683  0.0175 -0.0406  0.0423
    1AU     AUC   49   1.273   5.469   6.951  0.0552  0.0220 -0.0686
    1AU     AUC   50   1.487   4.809   6.213  0.0427  0.0646 -0.0373
    1AU     AUC   51   1.571   4.638   6.498 -0.0303 -0.0753 -0.0340
    1AU     AUC   52   1.696   5.808   6.589  0.0226  0.0702 -0.0103
    1AU     AUC   53   1.790   5.709   6.932  0.0449  0.0465  0.0530
    1AU     AUC   54   2.012   5.041   6.181 -0.0064  0.0749  0.1191
    1AU     AUC   55   2.107   4.921   6.530 -0.0258 -0.0397 -0.0047
    1AU    AUSL   56   1.124   4.627   7.026  0.0120 -0.0959 -0.0295
    1AU    AUSL   57   1.259   4.418   6.666  0.0224 -0.0565  0.0411
    1AU     AUL   58   1.167   4.272   6.991 -0.0737 -0.0717  0.0126
    1AU       S   59   1.449   3.987   6.750  0.0432  0.4235  0.4078
    1AU     LIG   60   1.006   3.898   6.674  0.3117  0.0834  0.0680
    1AU     LIG   61   0.533   3.957   6.909 -0.0589 -0.1444  0.0010
    1AU     LIG   62   0.165   3.949   6.866 -0.2933  0.0760  0.2625
    1AU     LIG   63  -0.233   4.136   6.869 -0.1713  0.0149  0.4695
    1AU       S   64   0.683   4.396   6.933  0.3096  0.2223  0.2621
    1AU     LIG   65   0.309   4.302   7.166  0.0630 -0.0958 -0.1217
    1AU     LIG   66   0.001   4.072   7.367  0.1577 -0.1590 -0.0904
    1AU     LIG   67  -0.470   3.992   7.325 -0.1565  0.0859  0.1875
    1AU     LIG   68  -0.798   3.784   7.076  0.0828 -0.0654 -0.1629
    1AU    AUSL   69   0.913   4.674   6.642  0.0132 -0.0268  0.0702
    1AU    AUSL   70   0.723   5.108   6.573 -0.0395 -0.0738  0.0613
    1AU     AUL   71   0.563   4.784   6.708  0.0343  0.0020  0.0182
    1AU       S   72   0.756   4.394   6.604  0.0321  0.2111 -0.1587
    1AU     LIG   73   0.267   4.365   6.675  0.5445 -0.4234  0.0302
    1AU     LIG   74  -0.050   4.536   6.427  0.0805  0.2559 -0.1774
    1AU     LIG   75  -0.385   4.317   6.381 -0.2318 -0.0684  0.0889
    1AU     LIG   76  -0.637   4.140   6.097  0.2191 -0.2577  0.0660
    1AU       S   77   0.461   4.861   6.264 -0.2454 -0.0906  0.3823
    1AU     LIG   78   0.098   5.075   6.553 -0.0972 -0.2073  0.0134
    1AU     LIG   79  -0.209   5.194   6.909  0.0948  0.1907 -0.1468
    1AU     LIG   80  -0.555   5.105   6.927 -0.1675 -0.0951 -0.3069
    1AU     LIG   81  -0.890   5.229   6.700  0.0901 -0.0287 -0.1814
    1AU    AUSL   82   1.007   5.045   6.873 -0.0550  0.0079  0.0804
    1AU    AUSL   83   1.159   4.981   7.291  0.1433  0.0768  0.0244
    1AU     AUL   84   0.850   4.816   7.125 -0.0985  0.0927  0.0331
    1AU       S   85   0.501   5.181   6.966  0.0589 -0.1370 -0.1891
    1AU     LIG   86   0.211   5.462   6.887 -0.0726 -0.5624 -0.1048
    1AU     LIG   87  -0.034   5.905   6.890  0.1283  0.0484 -0.1741
    1AU     LIG   88  -0.328   6.278   6.809 -0.3527  0.1868  0.0270
    1AU     LIG   89  -0.376   6.577   7.061 -0.3737  0.4077  0.0255
    1AU       S   90   0.908   5.015   7.555 -0.3574  0.6718  0.0190
    1AU     LIG   91   0.515   4.761   7.552  0.1929  0.1950 -0.3010
    1AU     LIG   92   0.234   4.835   7.242 -0.0486  0.0056 -0.1958
    1AU     LIG   93  -0.051   4.713   6.890 -0.0994  0.2943  0.4408
    1AU     LIG   94  -0.477   4.559   6.850  0.1202  0.1664  0.2079
    1AU    AUSL   95   2.346   5.416   7.066 -0.0316  0.0827 -0.0710
    1AU    AUSL   96   2.127   5.812   7.117 -0.0343 -0.0737 -0.0408
    1AU     AUL   97   2.461   5.665   7.289  0.0268 -0.1213  0.0202
    1AU       S   98   2.658   5.845   6.924  0.0150 -0.6160 -0.0451
    1AU     LIG   99   2.850   6.230   7.003  0.2172 -0.2211  0.3860
    1AU     LIG  100   3.069   6.564   7.349 -0.1518  0.6243 -0.0896
    1AU     LIG  101   3.170   6.695   7.734  0.0969 -0.2957  0.3058
    1AU     LIG  102   3.148   6.878   8.110  0.1363  0.1896  0.1478
    1AU       S  103   2.127   5.897   7.575 -0.4412 -0.3205 -0.1424
    1AU     LIG  104   1.965   6.301   7.615  0.0499  0.0055  0.0691
    1AU     LIG  105   1.744   6.621   7.356  0.2319 -0.1386  0.0476
    1AU     LIG  106   1.466   6.791   7.090  0.1321  0.0969  0.0717
    1AU     LIG  107   1.253   7.014   6.780 -0.0081 -0.1492  0.0309
    1AU    AUSL  108   2.593   5.336   6.722 -0.0696 -0.0131 -0.0268
    1AU    AUSL  109   2.425   4.998   7.083 -0.0685 -0.0117 -0.0278
    1AU     AUL  110   2.636   5.253   7.090 -0.0195 -0.0077 -0.1461
    1AU       S  111   2.737   4.822   7.112  0.0253  0.4648  0.0655
    1AU     LIG  112   3.070   4.619   7.300  0.0677  0.1787  0.1798
    1AU     LIG  113   3.473   4.509   7.044 -0.0186 -0.3538 -0.2218
    1AU     LIG  114   3.768   4.122   6.995 -0.1384  0.0719  0.0171
    1AU     LIG  115   3.924   3.907   6.694  0.2081  0.0928 -0.0235
    1AU       S  116   2.769   5.685   6.933  0.0861  0.3253 -0.1353
    1AU     LIG  117   3.190   5.884   6.753 -0.1584 -0.0659 -0.2385
    1AU     LIG  118   3.399   6.139   6.467  0.0689  0.1264  0.0902
    1AU     LIG  119   3.565   6.564   6.365  0.0583 -0.0065  0.0389
    1AU     LIG  120   3.654   6.848   6.517 -0.3988 -0.1204 -0.0869
    1AU    AUSL  121   2.267   5.653   6.734 -0.1075  0.0100  0.0800
    1AU    AUSL  122   2.384   5.450   6.364 -0.0285  0.0309 -0.0759
    1AU     AUL  123   2.667   5.532   6.536 -0.0515 -0.0662 -0.0941
    1AU       S  124   2.742   5.706   6.107  0.1977  0.3599 -0.2002
    1AU     LIG  125   3.082   5.749   6.164 -0.5593 -0.2256 -0.0007
    1AU     LIG  126   3.550   5.780   6.148  0.1597 -0.3510 -0.2455
    1AU     LIG  127   3.697   5.656   6.595  0.1944 -0.0077 -0.0802
    1AU     LIG  128   3.756   5.169   7.009  0.0163 -0.1249 -0.0175
    1AU       S  129   2.510   5.856   6.833 -0.0852  0.0238 -0.1339
    1AU     LIG  130   2.413   6.262   6.804  0.0796 -0.0186  0.0941
    1AU     LIG  131   2.337   6.406   6.439 -0.2523 -0.0147  0.1578
    1AU     LIG  132   2.681   6.536   6.185 -0.4223 -0.1576 -0.2211
    1AU     LIG  133   2.783   6.820   5.952 -0.2051 -0.1090 -0.1750
    1AU    AUSL  134   0.769   5.252   6.173  0.0006  0.0388  0.0266
    1AU    AUSL  135   0.768   5.536   6.618 -0.0492  0.0192 -0.1358
    1AU     AUL  136   0.501   5.330   6.424 -0.0175 -0.0126 -0.0289
    1AU       S  137   0.561   4.904   6.148 -0.0668  0.0502 -0.2481
    1AU     LIG  138   0.369   5.309   5.965 -0.0131  0.0564 -0.1581
    1AU     LIG  139   0.324   5.480   5.596  0.2668 -0.0621  0.3886
    1AU     LIG  140   0.237   5.420   5.092 -0.1017  0.2506 -0.2166
    1AU     LIG  141   0.390   5.504   4.681  0.2456  0.0534 -0.1596
    1AU       S  142   0.584   5.785   6.417 -0.0490  0.1891  0.0492
    1AU     LIG  143   0.159   5.741   6.351 -0.0906  0.1248 -0.3461
    1AU     LIG  144  -0.190   5.404   6.325 -0.1387  0.1421  0.1000
    1AU     LIG  145  -0.392   4.949   6.500  0.0173 -0.2711  0.2718
    1AU     LIG  146  -0.708   4.697   6.398 -0.0149 -0.1551  0.0690
    1AU    AUSL  147   1.027   4.935   6.339 -0.0073  0.0168 -0.0560
    1AU    AUSL  148   1.017   4.980   5.907  0.0212 -0.0062 -0.0057
    1AU     AUL  149   0.802   5.164   5.890 -0.0701 -0.0465  0.0996
    1AU       S  150   0.810   4.743   5.691  0.1301  0.1962 -0.2959
    1AU     LIG  151   0.525   4.299   5.600 -0.1964 -0.2388  0.1880
    1AU     LIG  152   0.412   3.919   5.718 -0.2392 -0.3413  0.0815
    1AU     LIG  153   0.515   3.472   5.959  0.8079  0.2170  0.0453
    1AU     LIG  154   0.834   3.428   5.906 -0.2337 -0.0783 -0.0319
    1AU       S  155   0.672   4.817   6.200 -0.2577 -0.2597 -0.4145
    1AU     LIG  156   0.486   4.294   6.179  0.0686 -0.2212 -0.3911
    1AU     LIG  157   0.104   3.929   6.180  0.1135  0.0636 -0.0476
    1AU     LIG  158  -0.348   3.757   6.122 -0.0412 -0.0093  0.0473
    1AU     LIG  159  -0.614   3.813   6.579 -0.0718 -0.2998 -0.1149
    1AU    AUSL  160   2.187   5.649   6.047  0.0384 -0.0243  0.0277
    1AU    AUSL  161   2.200   5.186   6.081  0.0020 -0.0483  0.0210
    1AU     AUL  162   2.494   5.294   6.049  0.0092 -0.0064  0.0552
    1AU       S  163   2.593   5.779   6.005  0.2437 -0.2070 -0.3133
    1AU     LIG  164   2.391   5.870   5.668 -0.1134 -0.4081  0.1940
    1AU     LIG  165   2.252   6.211   5.488 -0.4297  0.1015  0.1913
    1AU     LIG  166   2.009   6.594   5.470 -0.1859  0.0206  0.0756
    1AU     LIG  167   2.026   6.970   5.363  0.1757  0.2377 -0.2007
    1AU       S  168   2.343   5.373   5.629 -0.1465 -0.0112 -0.3206
    1AU     LIG  169   2.563   5.309   5.255 -0.0704  0.1281  0.0959
    1AU     LIG  170   2.610   5.149   4.914  0.0556 -0.1349 -0.1598
    1AU     LIG  171   2.615   5.248   4.426  0.1542  0.1274 -0.3820
    1AU     LIG  172   2.377   5.182   4.001  0.0875  0.2305 -0.0764
    1AU    AUSL  173   2.335   5.882   6.389 -0.0942 -0.0369 -0.0239
    1AU    AUSL  174   1.895   5.972   6.032 -0.0347  0.0673 -0.0118
    1AU     AUL  175   2.207   6.011   6.099 -0.0105 -0.0035  0.0103
    1AU       S  176   1.935   6.297   5.825 -0.1346  0.2283 -0.3133
    1AU     LIG  177   2.356   6.527   5.838  0.1987  0.2309 -0.3866
    1AU     LIG  178   2.709   6.237   5.785 -0.1376  0.0905  0.4700
    1AU     LIG  179   2.961   5.978   5.648  0.1095  0.4883 -0.0023
    1AU     LIG  180   2.866   5.526   5.652 -0.1721  0.0781  0.4435
    1AU       S  181   2.628   5.936   6.339  0.0096  0.2478 -0.1321
    1AU     LIG  182   2.849   6.136   6.478 -0.1720 -0.0093  0.0908
    1AU     LIG  183   3.066   6.456   6.549  0.2089 -0.2176 -0.0342
    1AU     LIG  184   3.120   6.859   6.492 -0.1603  0.0713  0.0003
    1AU     LIG  185   3.289   7.240   6.674 -0.2071 -0.1563 -0.4658
    1AU    AUSL  186   1.627   5.359   7.474  0.0125  0.0464  0.0254
    1AU    AUSL  187   2.044   5.437   7.363  0.0103  0.0328 -0.1046
    1AU     AUL  188   1.884   5.412   7.720  0.0004  0.0456 -0.0613
    1AU       S  189   2.114   5.765   7.568 -0.0138  0.2429 -0.0288
    1AU     LIG  190   2.636   5.652   7.765  0.1865  0.3775  0.0817
    1AU     LIG  191   2.850   5.461   7.701 -0.0160 -0.1185 -0.1888
    1AU     LIG  192   3.021   5.261   7.395 -0.1742 -0.0529  0.0654
    1AU     LIG  193   3.236   5.191   7.062  0.3332 -0.0087 -0.1559
    1AU       S  194   1.607   5.083   7.770  0.0684  0.5262 -0.1067
    1AU     LIG  195   1.377   5.095   8.035  0.2576 -0.1720 -0.2988
    1AU     LIG  196   1.011   5.233   8.086  0.1712  0.2865 -0.0798
    1AU     LIG  197   0.764   5.504   8.126 -0.2500  0.1838 -0.0004
    1AU     LIG  198   0.380   5.822   8.217 -0.1251  0.1276 -0.3962
    1AU    AUSL  199   1.961   5.033   7.470 -0.0611 -0.0056  0.0415
    1AU    AUSL  200   1.774   4.631   7.305  0.0581 -0.0304 -0.0395
    1AU     AUL  201   2.101   4.743   7.550 -0.0480  0.0299  0.1000
    1AU       S  202   1.737   4.898   7.789 -0.2371  0.5083 -0.0072
    1AU     LIG  203   2.078   4.963   8.006 -0.6282  0.3996  0.0152
    1AU     LIG  204   2.060   5.358   8.388 -0.3060  0.0856  0.1496
    1AU     LIG  205   2.061   5.702   8.666  0.1376  0.1233  0.0480
    1AU     LIG  206   1.927   6.041   8.832  0.2491  0.0089  0.0553
    1AU       S  207   1.951   4.317   7.445  0.6973  0.1604  0.1430
    1AU     LIG  208   1.727   4.387   7.690 -0.0179  0.4725 -0.1783
    1AU     LIG  209   1.395   4.113   7.710  0.0563 -0.2938  0.3150
    1AU     LIG  210   1.090   3.787   7.243  0.1439  0.0823 -0.2770
    1AU     LIG  211   0.767   3.464   6.943  0.0818 -0.3234 -0.0157
    1AU    AUSL  212   1.561   4.998   7.277 -0.0817  0.0302 -0.0723
    1AU    AUSL  213   1.315   5.386   7.175 -0.0866  0.0392  0.0294
    1AU     AUL  214   1.293   5.276   7.480  0.0158  0.0471 -0.0302
    1AU       S  215   0.842   5.294   7.600 -0.1838 -0.0206  0.0647
    1AU     LIG  216   0.644   5.728   7.692  0.0578  0.1144  0.3831
    1AU     LIG  217   0.225   5.720   7.635 -0.1823  0.2062 -0.3902
    1AU     LIG  218  -0.098   5.587   7.300 -0.0559 -0.0495  0.3387
    1AU     LIG  219  -0.465   5.465   7.289 -0.2844  0.0684 -0.0064
    1AU       S  220   1.527   4.907   7.618  0.2837  0.1211 -0.1330
    1AU     LIG  221   1.264   4.537   7.464 -0.0033 -0.0432 -0.0953
    1AU     LIG  222   0.837   4.317   7.535 -0.1595 -0.0603  0.3902
    1AU     LIG  223   0.549   3.887   7.460 -0.1259 -0.2852 -0.3008
    1AU     LIG  224   0.565   3.467   7.446 -0.0628  0.0162 -0.4417
    1AU    AUSL  225   1.256   5.942   6.204  0.1065 -0.0744  0.1501
    1AU    AUSL  226   0.960   5.620   6.218 -0.0379 -0.0065  0.0037
    1AU     AUL  227   0.950   6.016   6.075 -0.0370 -0.0787  0.0570
    1AU       S  228   0.664   5.689   6.143 -0.2410  0.4114  0.2071
    1AU     LIG  229   0.479   6.003   6.060  0.1607  0.0407 -0.1627
    1AU     LIG  230   0.168   6.354   5.905 -0.1667  0.0431  0.2335
    1AU     LIG  231   0.213   6.813   5.688 -0.3094 -0.0394 -0.1187
    1AU     LIG  232   0.554   7.079   5.664 -0.1246  0.2808 -0.3159
    1AU       S  233   1.155   6.317   6.373  0.1477  0.0448 -0.0240
    1AU     LIG  234   1.095   6.461   5.927  0.1711 -0.0037 -0.2500
    1AU     LIG  235   1.162   6.231   5.542 -0.0383 -0.3383 -0.1985
    1AU     LIG  236   0.907   6.178   5.168  0.4332  0.1872  0.0722
    1AU     LIG  237   0.501   6.082   4.957  0.2876  0.0675  0.0535
    1AU    AUSL  238   1.574   5.702   6.013  0.0044  0.0087  0.0580
    1AU    AUSL  239   1.606   6.154   6.296 -0.0547  0.0241 -0.0683
    1AU     AUL  240   1.545   6.114   5.959 -0.0301  0.0059  0.0934
    1AU       S  241   1.918   5.821   5.586 -0.3070 -0.1831  0.0778
    1AU     LIG  242   1.668   6.125   5.387  0.1801  0.0599  0.3180
    1AU     LIG  243   1.549   6.528   5.458 -0.1311  0.0116 -0.3355
    1AU     LIG  244   1.468   6.894   5.349 -0.0698 -0.0344 -0.0643
    1AU     LIG  245   1.340   7.316   5.179  0.0086  0.3064  0.0778
    1AU       S  246   1.623   6.516   6.252  0.2046  0.3820  0.1401
    1AU     LIG  247   1.776   6.792   5.884  0.2508  0.0522  0.4464
    1AU     LIG  248   2.193   6.957   5.818  0.1593 -0.1062  0.1131
    1AU     LIG  249   2.566   7.211   5.766  0.0762 -0.1350 -0.3648
    1AU     LIG  250   2.870   7.571   5.723 -0.1141 -0.1835 -0.0275
    1AU    AUSL  251   1.155   5.680   5.855 -0.0390  0.0698 -0.1246
    1AU    AUSL  252   1.580   5.503   5.639  0.0100 -0.0380 -0.0039
    1AU     AUL  253   1.421   5.802   5.663  0.0463 -0.0035  0.0611
    1AU       S  254   1.263   5.370   5.372 -0.5040 -0.0397  0.1151
    1AU     LIG  255   1.204   5.762   5.204 -0.2027  0.0681  0.2590
    1AU     LIG  256   1.364   6.112   5.014  0.0879  0.0093 -0.4347
    1AU     LIG  257   1.337   6.456   4.852  0.2344  0.4420 -0.0866
    1AU     LIG  258   1.177   6.628   4.403  0.1187 -0.0586 -0.2277
    1AU       S  259   0.933   5.574   5.731 -0.2448 -0.1723  0.3307
    1AU     LIG  260   0.693   5.948   5.626 -0.3769  0.1115  0.0308
    1AU     LIG  261   0.633   6.482   5.635  0.1458 -0.1279  0.0925
    1AU     LIG  262   0.693   6.711   5.972 -0.3670  0.1513  0.1101
    1AU     LIG  263   1.033   6.855   6.268 -0.1784  0.1460 -0.0820
    1AU    AUSL  264   1.979   4.479   6.934 -0.0228 -0.0082  0.0383
    1AU    AUSL  265   1.530   4.642   6.945  0.0075 -0.0315 -0.0743
    1AU     AUL  266   1.604   4.381   7.154 -0.0073  0.0480  0.0202
    1AU       S  267   2.042   4.238   7.060 -0.6303  0.2574 -0.3580
    1AU     LIG  268   2.151   3.859   6.813 -0.0114 -0.1161  0.2614
    1AU     LIG  269   2.369   3.502   6.642 -0.1042  0.1271 -0.2342
    1AU     LIG  270   2.555   3.221   6.772  0.0982  0.2663  0.0047
    1AU     LIG  271   3.001   3.260   6.707  0.3049  0.0365 -0.1162
    1AU       S  272   1.554   4.013   6.922  0.3208  0.1662  0.0673
    1AU     LIG  273   1.728   3.540   6.952 -0.0811 -0.1341 -0.1354
    1AU     LIG  274   1.682   3.072   7.174  0.6016 -0.3927 -0.0637
    1AU     LIG  275   1.552   3.043   7.439  0.1961  0.3094 -0.2524
    1AU     LIG  276   1.195   2.805   7.573  0.1585  0.2059  0.2282
    1AU    AUSL  277   2.013   4.904   7.078 -0.0686  0.0330  0.0900
    1AU    AUSL  278   2.333   4.674   6.826 -0.0712 -0.0525  0.0192
    1AU     AUL  279   2.276   4.657   7.126 -0.0487  0.0329  0.0218
    1AU       S  280   2.125   4.276   7.328 -0.2728 -0.3201  0.1301
    1AU     LIG  281   2.258   3.888   7.408  0.1333 -0.1288  0.1106
    1AU     LIG  282   2.231   3.526   7.158 -0.2626 -0.1192 -0.0463
    1AU     LIG  283   2.128   3.149   7.150 -0.4173  0.1998 -0.2790
    1AU     LIG  284   2.249   2.732   6.919  0.1669  0.1041 -0.2993
    1AU       S  285   2.723   4.614   6.938 -0.1953  0.4289  0.0676
    1AU     LIG  286   3.070   4.329   6.838  0.3411 -0.0457 -0.0453
    1AU     LIG  287   3.299   3.974   6.764  0.2093  0.0670 -0.3401
    1AU     LIG  288   3.405   3.530   6.848 -0.0934  0.2167  0.2106
    1AU     LIG  289   3.424   3.155   6.993 -0.0283  0.0149 -0.1166
    1AU    AUSL  290   1.577   5.046   5.671 -0.0642 -0.0981  0.0283
    1AU    AUSL  291   1.912   5.392   5.863  0.0272 -0.0146  0.0031
    1AU     AUL  292   1.768   5.321   5.479 -0.0685 -0.1098 -0.0473
    1AU       S  293   2.206   5.408   5.645 -0.1490  0.0348 -0.2743
    1AU     LIG  294   2.204   5.670   5.222  0.2557 -0.1000 -0.3037
    1AU     LIG  295   2.109   6.106   5.012  0.0068  0.0532 -0.0344
    1AU     LIG  296   2.182   6.386   4.597  0.1213 -0.0676  0.6656
    1AU     LIG  297   2.217   6.766   4.421 -0.5086  0.2274  0.3259
    1AU       S  298   1.355   5.169   5.333 -0.3221  0.1842  0.0647
    1AU     LIG  299   1.115   4.851   5.191  0.0623  0.2213  0.1659
    1AU     LIG  300   0.726   4.665   5.227  0.1441 -0.2509 -0.1603
    1AU     LIG  301   0.288   4.467   5.154 -0.1353 -0.1958 -0.1402
    1AU     LIG  302   0.082   4.191   5.382  0.2400 -0.2025 -0.2325
    1AU    AUSL  303   1.294   5.295   5.889 -0.0889 -0.0121 -0.0400
    1AU    AUSL  304   1.420   4.862   6.008  0.0586 -0.0468  0.1067
    1AU     AUL  305   1.277   4.879   5.672 -0.0123  0.0867  0.0429
    1AU       S  306   1.028   4.535   5.653  0.5383  0.0831  0.1247
    1AU     LIG  307   1.246   4.108   5.674 -0.0101  0.2443 -0.0746
    1AU     LIG  308   1.299   3.660   5.819 -0.0028  0.0076 -0.1465
    1AU     LIG  309   1.160   3.210   5.605  0.2886 -0.0129  0.4205
    1AU     LIG  310   1.172   2.795   5.418  0.1175  0.1110 -0.3412
    1AU       S  311   1.150   5.295   5.432 -0.3022  0.1490 -0.3498
    1AU     LIG  312   0.724   5.173   5.408  0.3103 -0.0366  0.1576
    1AU     LIG  313   0.396   4.950   5.577  0.0896 -0.1298  0.0263
    1AU     LIG  314   0.173   4.680   5.800 -0.0057  0.1612  0.1893
    1AU     LIG  315  -0.094   4.376   5.908  0.0965 -0.1215 -0.1650
    1AU    AUSL  316   1.043   5.635   6.920 -0.0051  0.0423 -0.0327
    1AU    AUSL  317   1.025   5.873   6.547  0.0576 -0.0751 -0.0730
    1AU     AUL  318   0.748   5.720   6.841 -0.1105 -0.0254  0.0543
    1AU       S  319   0.792   6.049   6.515  0.0396 -0.3004  0.5115
    1AU     LIG  320   0.645   6.383   6.375  0.1080 -0.2120  0.0785
    1AU     LIG  321   0.363   6.665   6.252 -0.1389  0.0480  0.1253
    1AU     LIG  322   0.048   6.865   6.157 -0.3347  0.0556 -0.2304
    1AU     LIG  323  -0.031   7.172   6.426 -0.0167 -0.0814  0.2788
    1AU       S  324   0.833   6.008   7.222 -0.0730 -0.0608  0.0791
    1AU     LIG  325   0.460   6.143   7.523 -0.0847 -0.4879 -0.0183
    1AU     LIG  326   0.465   6.221   7.882 -0.0066  0.1925 -0.2626
    1AU     LIG  327   0.463   6.287   8.248 -0.0059 -0.0930 -0.2642
    1AU     LIG  328   0.747   6.440   8.555  0.1236  0.1129  0.1245
    1AU    AUSL  329   1.203   6.040   6.901 -0.0471  0.0174  0.0857
    1AU    AUSL  330   1.615   6.049   7.086  0.0344  0.0127  0.0676
    1AU     AUL  331   1.399   6.282   7.212 -0.0692 -0.0866 -0.0559
    1AU       S  332   0.975   6.170   7.022  0.0926  0.3660 -0.2095
    1AU     LIG  333   0.552   6.455   7.052  0.4153 -0.1517  0.0261
    1AU     LIG  334   0.156   6.635   6.786  0.0646 -0.0532 -0.0897
    1AU     LIG  335  -0.251   6.719   6.594  0.0518  0.1473 -0.0372
    1AU     LIG  336  -0.646   6.635   6.675 -0.0147 -0.5905  0.1213
    1AU       S  337   1.668   6.436   6.867  0.0177 -0.0095  0.0383
    1AU     LIG  338   1.745   6.849   6.571  0.3071 -0.0386  0.0781
    1AU     LIG  339   1.533   7.136   6.217  0.0591  0.0966  0.1368
    1AU     LIG  340   1.274   7.531   6.218  0.1110 -0.2972 -0.1325
    1AU     LIG  341   1.038   7.901   6.051  0.1411 -0.1749 -0.0668
    1AU    AUSL  342   1.279   5.797   7.259  0.1108  0.0077 -0.0838
    1AU    AUSL  343   0.888   5.326   7.154 -0.0152  0.0237  0.1243
    1AU     AUL  344   1.011   5.601   7.324 -0.0177 -0.1168  0.0839
    1AU       S  345   0.728   5.240   7.423  0.2056 -0.1653 -0.2641
    1AU     LIG  346   0.539   5.611   7.250  0.3186  0.1848 -0.1284
    1AU     LIG  347   0.375   5.874   7.125  0.1369 -0.0987 -0.1176
    1AU     LIG  348   0.367   6.110   6.738 -0.1043  0.5059 -0.1202
    1AU     LIG  349   0.061   6.282   6.440  0.1564 -0.2667  0.0200
    1AU       S  350   1.011   6.053   7.389  0.0721 -0.1317  0.3304
    1AU     LIG  351   0.810   6.475   7.517 -0.3155  0.1819 -0.2732
    1AU     LIG  352   0.539   6.821   7.384 -0.1138 -0.3018  0.2781
    1AU     LIG  353   0.345   7.158   7.048 -0.0646  0.3629 -0.0742
    1AU     LIG  354   0.109   7.470   6.819 -0.0848 -0.1092 -0.2746
    1AU    AUSL  355   1.462   4.542   6.302  0.0465 -0.0391 -0.0258
    1AU    AUSL  356   1.694   4.378   6.642 -0.0175 -0.0659 -0.0218
    1AU     AUL  357   1.330   4.253   6.395  0.0935  0.0229 -0.0358
    1AU       S  358   1.568   4.070   6.045  0.1699 -0.1147  0.4063
    1AU     LIG  359   1.311   3.766   6.338  0.2801  0.1163 -0.0181
    1AU     LIG  360   1.025   3.517   6.375 -0.1270  0.4193 -0.0304
    1AU     LIG  361   0.709   3.192   6.512 -0.2263  0.0052  0.1998
    1AU     LIG  362   0.733   2.705   6.414 -0.2625 -0.2972  0.0953
    1AU       S  363   1.698   4.105   6.691  0.3351 -0.0796  0.0684
    1AU     LIG  364   1.833   3.719   6.502  0.1315  0.0442 -0.0850
    1AU     LIG  365   1.903   3.266   6.552 -0.1681  0.1424 -0.3109
    1AU     LIG  366   1.856   2.844   6.563  0.4947  0.3936  0.1595
    1AU     LIG  367   1.673   2.424   6.810 -0.0055 -0.1560  0.0421
    1AU    AUSL  368   1.714   4.593   5.895  0.1472  0.0330  0.0071
    1AU    AUSL  369   1.077   4.579   6.138 -0.0571 -0.0615  0.0311
    1AU     AUL  370   1.373   4.481   5.938  0.0929 -0.1072 -0.0056
    1AU       S  371   1.742   4.133   5.805 -0.1575 -0.1993  0.0318
    1AU     LIG  372   1.858   3.673   5.808  0.0704  0.0185 -0.1583
    1AU     LIG  373   1.586   3.409   6.159 -0.2904 -0.4703 -0.2924
    1AU     LIG  374   1.419   3.363   6.606  0.1212  0.1684 -0.3100
    1AU     LIG  375   1.225   3.229   6.978  0.0803 -0.0268  0.0527
    1AU       S  376   0.909   4.487   5.910 -0.1725 -0.1305 -0.3186
    1AU     LIG  377   0.918   4.077   6.091 -0.2079  0.0278  0.2297
    1AU     LIG  378   0.641   3.800   6.304 -0.2890 -0.3760 -0.1081
    1AU     LIG  379   0.354   3.588   6.545  0.0823 -0.3300 -0.1179
    1AU     LIG  380  -0.098   3.537   6.522  0.5128 -0.0713  0.1365
    1AU    AUSL  381   1.870   4.398   6.242  0.0123 -0.0503 -0.0475
    1AU    AUSL  382   2.038   4.770   6.090  0.0003 -0.0803 -0.0378
    1AU     AUL  383   2.027   4.503   5.857 -0.0286  0.0690  0.0406
    1AU       S  384   2.351   4.373   6.157 -0.1777  0.2380 -0.5001
    1AU     LIG  385   2.669   4.054   5.953  0.3082 -0.2397 -0.3377
    1AU     LIG  386   2.629   3.593   5.858 -0.0544 -0.0077 -0.1644
    1AU     LIG  387   2.531   3.150   5.920 -0.1654 -0.0792 -0.0843
    1AU     LIG  388   2.478   2.745   5.944 -0.1796  0.2413  0.1188
    1AU       S  389   1.878   4.167   6.136  0.1563  0.0532 -0.3267
    1AU     LIG  390   2.202   3.872   6.223  0.2715  0.0551  0.0914
    1AU     LIG  391   2.222   3.442   6.204  0.4006 -0.3676 -0.2558
    1AU     LIG  392   2.040   3.168   5.955 -0.1485 -0.0817 -0.0307
    1AU     LIG  393   1.640   3.072   5.680 -0.2049 -0.0685 -0.0901
    1AU    AUSL  394   1.967   6.057   6.815 -0.0158  0.0505 -0.0831
    1AU    AUSL  395   1.718   5.681   7.228 -0.0615 -0.0254 -0.0255
    1AU     AUL  396   1.928   6.079   7.170 -0.0358 -0.0075  0.0276
    1AU       S  397   1.897   6.430   6.876  0.1305  0.1464  0.0435
    1AU     LIG  398   2.203   6.677   6.816 -0.2379 -0.2623 -0.1432
    1AU     LIG  399   2.602   6.900   6.509 -0.1481  0.0817  0.1702
    1AU     LIG  400   2.648   7.365   6.457  0.0555 -0.1591 -0.1900
    1AU     LIG  401   2.858   7.666   6.218  0.2384  0.1773  0.0412
    1AU       S  402   1.767   5.828   7.487  0.0037  0.3232 -0.4221
    1AU     LIG  403   1.549   6.001   7.805  0.0513 -0.0738 -0.0825
    1AU     LIG  404   1.429   6.355   7.833  0.2592 -0.0846  0.0556
    1AU     LIG  405   1.277   6.711   7.608 -0.0178  0.1138  0.1239
    1AU     LIG  406   1.014   6.844   7.230 -0.0614  0.1660 -0.0244
    1AU    AUSL  407   1.552   5.997   6.665 -0.0269  0.0014 -0.0735
    1AU    AUSL  408   1.922   5.867   6.446 -0.0156  0.0033 -0.0657
    1AU     AUL  409   1.902   6.200   6.495  0.0003  0.0496  0.0511
    1AU       S  410   1.508   6.374   6.716  0.1193 -0.1770 -0.0870
    1AU     LIG  411   1.004   6.612   6.726 -0.5231 -0.1279 -0.0258
    1AU     LIG  412   0.744   6.913   6.680  0.1393  0.4205 -0.2131
    1AU     LIG  413   0.429   7.118   6.501 -0.0514 -0.1408  0.2274
    1AU     LIG  414   0.344   7.303   6.065  0.0091 -0.2040  0.4479
    1AU       S  415   1.940   6.434   6.109  0.0270  0.4704  0.1292
    1AU     LIG  416   2.128   6.782   6.300  0.1350 -0.2699  0.1010
    1AU     LIG  417   2.111   7.178   6.518 -0.3709  0.0630  0.0348
    1AU     LIG  418   2.105   7.648   6.538  0.1338  0.0341 -0.0431
    1AU     LIG  419   2.373   7.978   6.452  0.0110  0.2555 -0.2536
    1AU    AUSL  420   2.417   4.846   6.256 -0.0764 -0.0235  0.0052
    1AU    AUSL  421   1.999   4.991   5.734  0.0460  0.0081 -0.0806
    1AU     AUL  422   2.328   4.876   5.893  0.0444 -0.0272 -0.0091
    1AU       S  423   2.205   5.116   5.525  0.2345 -0.5129 -0.0805
    1AU     LIG  424   2.252   4.822   5.317 -0.2243  0.2876  0.1451
    1AU     LIG  425   2.213   4.750   4.929 -0.3228  0.1425 -0.3250
    1AU     LIG  426   2.205   4.992   4.624  0.0029 -0.3326  0.1114
    1AU     LIG  427   2.030   5.295   4.472  0.1166  0.3316 -0.5680
    1AU       S  428   2.457   4.498   6.131 -0.0017 -0.0506 -0.0920
    1AU     LIG  429   2.808   4.294   6.387 -0.1322  0.2412  0.1124
    1AU     LIG  430   2.723   3.799   6.443  0.1195 -0.4644 -0.0592
    1AU     LIG  431   2.745   3.370   6.340 -0.1936 -0.2118  0.0054
    1AU     LIG  432   2.933   2.950   6.299  0.3037  0.1445 -0.1048
    1AU    AUSL  433   2.106   4.636   6.480 -0.0709  0.0878  0.0841
    1AU    AUSL  434   2.317   5.046   6.620  0.0386 -0.0145 -0.0558
    1AU     AUL  435   2.506   4.710   6.562 -0.0285 -0.0610  0.0001
    1AU       S  436   2.267   4.351   6.410 -0.2815  0.2174  0.1227
    1AU     LIG  437   2.533   4.218   6.745  0.1268  0.1259  0.3070
    1AU     LIG  438   2.633   4.141   7.132 -0.5100 -0.0603  0.0255
    1AU     LIG  439   2.832   4.001   7.500 -0.0099 -0.1712  0.2920
    1AU     LIG  440   3.184   3.928   7.765  0.0655  0.0824  0.1851
    1AU       S  441   2.838   4.895   6.824 -0.2470  0.0769  0.3108
    1AU     LIG  442   2.874   5.026   6.307  0.2279  0.0258  0.0253
    1AU     LIG  443   2.900   5.070   5.917  0.1219  0.0560 -0.1518
    1AU     LIG  444   2.750   4.940   5.660 -0.0590  0.0664 -0.2724
    1AU     LIG  445   2.479   4.521   5.605  0.1525 -0.1205 -0.1239
    2POPC   NC3  446   5.749   4.054   8.331  0.2691  0.2058 -0.1734
    2POPC   PO4  447   5.678   4.508   8.410  0.0143  0.0586 -0.0917
    2POPC   GL1  448   5.730   4.802   8.113  0.3049  0.2079 -0.1188
    2POPC   GL2  449   6.017   4.885   8.136 -0.0845 -0.4333 -0.1132
    2POPC   C1A  450   5.673   4.994   7.723  0.1821 -0.1732 -0.2943
    2POPC   D2A  451   5.809   5.089   7.326  0.1185  0.0111  0.1022
    2POPC   C3A  452   5.691   5.483   7.041 -0.2548 -0.0224 -0.2731
    2POPC   C4A  453   5.636   5.993   7.004 -0.1532 -0.1211 -0.1133
    2POPC   C1B  454   6.124   5.163   7.741 -0.1307  0.3461 -0.0198
    2POPC   C2B  455   6.172   5.470   7.409  0.1535 -0.3000  0.0643
    2POPC   C3B  456   6.116   5.774   6.955 -0.0415 -0.0335 -0.2606
    2POPC   C4B  457   5.903   6.032   6.604 -0.3656  0.1346  0.4298
    3POPC   NC3  458   7.452   9.635   9.441  0.1444 -0.1249 -0.0420
    3POPC   PO4  459   7.454   9.744   8.927  0.0181 -0.1745  0.0034
    3POPC   GL1  460   7.396   9.701   8.571 -0.1475  0.0405 -0.2046
    3POPC   GL2  461   7.511   9.993   8.367  0.1762  0.1903 -0.0961
    3POPC   C1A  462   7.434   9.385   8.263  0.0393 -0.0164  0.0699
    3POPC   D2A  463   7.298   9.009   8.000  0.3047 -0.0096 -0.1295
    3POPC   C3A  464   7.023   9.009   7.540  0.3455 -0.2517  0.2377
    3POPC   C4A  465   6.883   8.829   7.087 -0.0009  0.0737 -0.0962
    3POPC   C1B  466   7.652   9.965   7.956  0.0423  0.1182 -0.1403
    3POPC   C2B  467   7.915   9.964   7.575 -0.3545 -0.0421 -0.1682
    3POPC   C3B  468   7.961  10.003   7.208  0.1144 -0.2025  0.0166
    3POPC   C4B  469   7.999   9.684   6.945 -0.0056  0.0184  0.2525
    4POPC   NC3  470   3.217   9.452   8.596  0.1833  0.1051  0.2565
    4POPC   PO4  471   3.178   9.047   8.379  0.1435  0.1693  0.3779
    4POPC   GL1  472   3.165   8.889   7.970  0.0404  0.4171  0.1473
    4POPC   GL2  473   3.526   8.797   7.845  0.1800 -0.1254  0.0510
    4POPC   C1A  474   3.073   8.706   7.603 -0.4285  0.2376 -0.1879
    4POPC   D2A  475   3.245   8.962   7.184  0.2756 -0.4242 -0.1033
    4POPC   C3A  476   2.865   9.188   7.040 -0.0413  0.3266  0.3015
    4POPC   C4A  477   2.553   9.134   6.660  0.1764 -0.4794 -0.1399
    4POPC   C1B  478   3.507   8.593   7.484  0.0426 -0.3063 -0.1980
    4POPC   C2B  479   3.688   8.338   7.304 -0.0433  0.0638 -0.0892
    4POPC   C3B  480   3.483   7.999   7.088  0.0846 -0.0451 -0.1232
    4POPC   C4B  481   3.294   7.581   7.050 -0.2713  0.0773 -0.1687
    5POPC   NC3  482   2.385   0.370   8.241  0.3258  0.0748  0.0268
    5POPC   PO4  483   2.609  -0.058   8.144 -0.1792 -0.0063 -0.1330
    5POPC   GL1  484   2.487  -0.079   7.763 -0.0194  0.3799 -0.1002
    5POPC   GL2  485   2.294   0.201   7.748 -0.2788 -0.0234 -0.0537
    5POPC   C1A  486   2.729   0.064   7.327 -0.0628 -0.1526 -0.1374
    5POPC   D2A  487   3.164   0.188   7.140  0.2755 -0.1305  0.0023
    5POPC   C3A  488   3.249   0.435   6.885  0.0050 -0.0560 -0.1833
    5POPC   C4A  489   3.059   0.698   6.895 -0.0951  0.1914 -0.0441
    5POPC   C1B  490   2.496   0.511   7.392  0.3500 -0.0687 -0.0780
    5POPC   C2B  491   2.469   0.788   7.119  0.1858 -0.3811  0.2528
    5POPC   C3B  492   2.486   0.829   6.610  0.0078  0.0295 -0.0022
    5POPC   C4B  493   2.487   0.756   6.136 -0.1764  0.0433  0.0551
    6POPC   NC3  494   5.761   6.785   8.818  0.1090 -0.1371 -0.1311
    6POPC   PO4  495   6.046   7.153   8.553  0.0055  0.1614 -0.1290
    6POPC   GL1  496   6.057   7.073   8.153  0.0244  0.1369  0.1125
    6POPC   GL2  497   5.796   6.969   7.934  0.0836  0.1742 -0.3425
    6POPC   C1A  498   6.283   7.127   7.758  0.1539  0.0936 -0.0457
    6POPC   D2A  499   6.586   7.284   7.642  0.0748 -0.1159 -0.1289
    6POPC   C3A  500   6.543   7.727   7.767  0.1230  0.2091 -0.1522
    6POPC   C4A  501   6.416   8.157   7.902  0.0257  0.2973  0.0116
    6POPC   C1B  502   5.659   7.065   7.576  0.2073 -0.1685 -0.1027
    6POPC   C2B  503   5.710   7.224   7.200  0.1639 -0.1276  0.0286
    6POPC   C3B  504   5.801   7.426   6.802  0.1657 -0.0037 -0.2311
    6POPC   C4B  505   5.651   7.298   6.429 -0.1722 -0.0982  0.0565
    7POPC   NC3  506   4.953   5.486   9.585 -0.3155 -0.1718 -0.1214
    7POPC   PO4  507   4.776   5.533   9.130 -0.0486 -0.3454  0.1660
    7POPC   GL1  508   4.529   5.854   8.868  0.3959 -0.0621 -0.5875
    7POPC   GL2  509   4.571   5.569   8.659 -0.0737 -0.1009  0.2102
    7POPC   C1A  510   4.248   6.106   8.589 -0.0845 -0.0665 -0.0376
    7POPC   D2A  511   3.952   6.328   8.420 -0.2728  0.2405 -0.1035
    7POPC   C3A  512   4.072   6.620   8.055  0.1344  0.0463 -0.2986
    7POPC   C4A  513   4.336   6.711   7.749 -0.1323 -0.2612  0.1157
    7POPC   C1B  514   4.431   5.802   8.280  0.0206 -0.0820  0.1714
    7POPC   C2B  515   4.340   5.706   7.777 -0.2855 -0.1291  0.1744
    7POPC   C3B  516   4.240   5.417   7.398 -0.0690 -0.1958 -0.1727
    7POPC   C4B  517   3.983   5.599   7.030 -0.1495  0.1892 -0.2239
    8POPC   NC3  518   0.906   1.261   8.490  0.1534  0.3083  0.2573
    8POPC   PO4  519   0.755   1.627   8.638 -0.0576  0.1744 -0.0675
    8POPC   GL1  520   0.740   1.748   8.240 -0.0820  0.3558  0.1433
    8POPC   GL2  521   1.001   1.526   8.051 -0.0401  0.0987 -0.1042
    8POPC   C1A  522   0.746   2.056   7.899 -0.5043  0.1799  0.1773
    8POPC   D2A  523   1.033   2.292   7.652 -0.0202 -0.2701 -0.0025
    8POPC   C3A  524   0.902   2.533   7.254 -0.0374 -0.0542 -0.0738
    8POPC   C4A  525   0.877   2.890   6.942 -0.1930 -0.1193 -0.0485
    8POPC   C1B  526   1.028   1.712   7.623 -0.0030  0.2670  0.1790
    8POPC   C2B  527   0.949   1.478   7.227 -0.1473  0.2251 -0.4722
    8POPC   C3B  528   1.098   1.609   6.867  0.3453  0.0940  0.0995
    8POPC   C4B  529   1.167   1.945   6.545 -0.2117 -0.1908  0.0788
    9POPC   NC3  530   8.758   7.245   8.465 -0.0445  0.2691 -0.1580
    9POPC   PO4  531   8.961   6.886   8.418  0.0281  0.1605  0.1688
    9POPC   GL1  532   8.893   6.849   7.989 -0.1137  0.2251 -0.0564
    9POPC   GL2  533   9.136   6.832   7.805 -0.2396 -0.1660  0.0453
    9POPC   C1A  534   8.753   7.076   7.585 -0.1094 -0.0047  0.0288
    9POPC   D2A  535   8.768   7.461   7.387  0.2845  0.0392  0.1150
    9POPC   C3A  536   8.759   7.625   6.989  0.2106  0.0610  0.0485
    9POPC   C4A  537   8.925   8.007   6.749 -0.2255  0.2561  0.1910
    9POPC   C1B  538   9.041   6.643   7.386  0.0289  0.2376  0.0440
    9POPC   C2B  539   9.040   6.483   7.028  0.1563  0.1526  0.3383
    9POPC   C3B  540   9.203   6.088   6.792  0.1222 -0.3152 -0.1122
    9POPC   C4B  541   9.535   5.631   6.738  0.1860  0.2465 -0.2330
   10POPC   NC3  542   7.136   4.898   9.272 -0.3016  0.1651 -0.0377
   10POPC   PO4  543   7.060   5.282   8.966 -0.0917 -0.0285  0.4291
   10POPC   GL1  544   7.311   5.072   8.541  0.1084  0.0249  0.1740
   10POPC   GL2  545   7.113   5.022   8.273 -0.0371 -0.2108 -0.0490
   10POPC   C1A  546   7.544   5.246   8.118 -0.2168  0.1906  0.4955
   10POPC   D2A  547   7.708   5.536   7.772  0.0845  0.0219  0.0617
   10POPC   C3A  548   7.989   5.464   7.359 -0.0402  0.1067  0.0038
   10POPC   C4A  549   8.002   5.426   6.946  0.2589  0.1667 -0.0197
   10POPC   C1B  550   7.157   5.036   7.869 -0.0637 -0.0538  0.0136
   10POPC   C2B  551   7.550   4.873   7.728  0.1148 -0.1565 -0.0825
   10POPC   C3B  552   7.895   4.966   7.598  0.0206  0.1373  0.0051
   10POPC   C4B  553   8.272   5.139   7.614  0.0106 -0.3415  0.2118
   11POPC   NC3  554   2.876   2.866   9.506 -0.2341  0.0517  0.2551
   11POPC   PO4  555   2.955   2.623   9.225  0.0981  0.4887 -0.2361
   11POPC   GL1  556   2.901   2.733   8.773  0.1083 -0.0845  0.2148
   11POPC   GL2  557   2.597   2.560   8.689  0.0943 -0.2823  0.0235
   11POPC   C1A  558   2.757   3.020   8.399  0.0679 -0.0582  0.2257
   11POPC   D2A  559   2.425   3.303   8.122  0.0644  0.0804 -0.3076
   11POPC   C3A  560   2.214   3.644   7.891 -0.0863  0.1078  0.2404
   11POPC   C4A  561   1.935   3.965   7.884  0.2376 -0.1662 -0.2507
   11POPC   C1B  562   2.466   2.682   8.268 -0.0248 -0.2030  0.0777
   11POPC   C2B  563   2.262   2.827   7.908  0.1078 -0.0861  0.0470
   11POPC   C3B  564   1.921   2.781   7.586  0.0859  0.1990 -0.0436
   11POPC   C4B  565   1.907   2.564   7.216  0.1033  0.0418  0.2516
   12POPC   NC3  566   2.986   7.567   9.226  0.3066  0.1821  0.3105
   12POPC   PO4  567   2.994   7.309   8.863 -0.0950  0.1897  0.0419
   12POPC   GL1  568   2.954   7.235   8.352 -0.0174  0.1016  0.1732
   12POPC   GL2  569   2.609   7.277   8.441  0.0729 -0.0450 -0.1352
   12POPC   C1A  570   3.006   7.275   7.878  0.2436 -0.2653 -0.0575
   12POPC   D2A  571   3.090   7.387   7.503 -0.0722  0.0445  0.2864
   12POPC   C3A  572   3.246   7.015   7.153  0.0461  0.3096 -0.1700
   12POPC   C4A  573   3.407   6.662   6.893  0.2676  0.0487 -0.0865
   12POPC   C1B  574   2.591   7.028   7.943  0.3000 -0.4312 -0.0385
   12POPC   C2B  575   2.744   6.970   7.616  0.1916 -0.0582  0.0053
   12POPC   C3B  576   2.657   6.907   7.251  0.0749  0.0937 -0.0607
   12POPC   C4B  577   2.709   6.702   6.973  0.0263  0.2208 -0.0458
   13POPC   NC3  578   5.830   3.085   8.777  0.0642 -0.0966  0.0108
   13POPC   PO4  579   5.849   3.304   8.447  0.1684  0.1638  0.0591
   13POPC   GL1  580   5.809   3.520   8.024  0.3961 -0.1254 -0.2350
   13POPC   GL2  581   5.695   3.359   7.805  0.0414  0.0271  0.1645
   13POPC   C1A  582   5.881   3.832   7.699 -0.1479 -0.1938  0.4523
   13POPC   D2A  583   6.129   4.118   7.426  0.2602  0.1336 -0.1007
   13POPC   C3A  584   6.599   4.329   7.439  0.2521 -0.1747 -0.0275
   13POPC   C4A  585   6.937   4.363   7.140 -0.1135  0.0004 -0.0553
   13POPC   C1B  586   5.516   3.475   7.378 -0.1910  0.1339 -0.2763
   13POPC   C2B  587   5.523   3.479   6.911  0.2347 -0.0835 -0.1519
   13POPC   C3B  588   5.358   3.266   6.562  0.0643 -0.1107  0.1581
   13POPC   C4B  589   4.975   3.083   6.533 -0.0656 -0.0861  0.1428
   14POPC   NC3  590   6.176   5.157   8.547  0.0929  0.0972  0.1806
   14POPC   PO4  591   5.952   5.666   8.616 -0.0556 -0.0004 -0.2103
   14POPC   GL1  592   6.023   5.899   8.283  0.0281 -0.0843  0.3176
   14POPC   GL2  593   5.756   5.881   8.135 -0.2057  0.1822  0.1350
   14POPC   C1A  594   6.161   5.838   7.844  0.1044  0.1872 -0.1693
   14POPC   D2A  595   6.269   6.113   7.488  0.0795  0.0105 -0.2379
   14POPC   C3A  596   6.626   6.437   7.581 -0.1490  0.2089 -0.0898
   14POPC   C4A  597   7.014   6.447   7.784  0.2319  0.5911  0.0177
   14POPC   C1B  598   5.400   5.845   7.922 -0.0434  0.0072 -0.2320
   14POPC   C2B  599   5.269   6.077   7.563 -0.0798 -0.1424 -0.1970
   14POPC   C3B  600   5.252   6.422   7.284  0.1902  0.0947  0.2005
   14POPC   C4B  601   5.269   6.871   7.182 -0.0719 -0.0611 -0.1036
   15POPC   NC3  602   4.961   2.300   8.745 -0.2996  0.0627  0.0213
   15POPC   PO4  603   5.106   2.691   8.663 -0.0111 -0.2634  0.1312
   15POPC   GL1  604   5.356   2.783   8.293  0.0415  0.0283 -0.0860
   15POPC   GL2  605   5.373   3.156   8.192 -0.2667 -0.1850  0.0576
   15POPC   C1A  606   5.549   2.760   7.831  0.1477 -0.1748 -0.1160
   15POPC   D2A  607   5.863   2.865   7.495 -0.1011 -0.0853  0.1979
   15POPC   C3A  608   6.304   2.830   7.333  0.0806  0.0209 -0.0163
   15POPC   C4A  609   6.717   2.868   7.118  0.1523 -0.3540  0.3218
   15POPC   C1B  610   5.091   3.189   7.805  0.0767  0.0688  0.1464
   15POPC   C2B  611   4.795   3.268   7.433  0.4091  0.0305  0.3908
   15POPC   C3B  612   4.717   3.360   6.903  0.1657 -0.0773 -0.1103
   15POPC   C4B  613   4.293   3.270   6.700  0.0091 -0.0762  0.0918
   16POPC   NC3  614   8.050   5.017   8.846 -0.0179  0.3640 -0.2803
   16POPC   PO4  615   8.404   5.273   8.963 -0.0016  0.1548 -0.0172
   16POPC   GL1  616   8.505   5.161   8.569  0.1192 -0.2413  0.0831
   16POPC   GL2  617   8.316   4.919   8.415 -0.2678  0.0007  0.0260
   16POPC   C1A  618   8.596   5.238   8.126  0.2935 -0.2019  0.0023
   16POPC   D2A  619   8.794   5.476   7.856  0.0136  0.1890  0.0921
   16POPC   C3A  620   8.608   5.524   7.372  0.1318 -0.1332  0.1908
   16POPC   C4A  621   8.548   5.259   7.017 -0.2023  0.0881 -0.2710
   16POPC   C1B  622   8.167   4.761   7.976  0.2228  0.1507  0.0800
   16POPC   C2B  623   8.316   4.598   7.544  0.1800  0.2980 -0.0840
   16POPC   C3B  624   8.174   4.846   7.128 -0.2982 -0.1840  0.2375
   16POPC   C4B  625   7.757   4.953   6.820 -0.2041  0.3839 -0.1675
   17POPC   NC3  626   3.281   5.730   9.477  0.0036 -0.3512  0.1354
   17POPC   PO4  627   2.791   5.589   9.415  0.0260 -0.4811 -0.0730
   17POPC   GL1  628   3.073   5.354   9.099  0.1793 -0.3079 -0.0635
   17POPC   GL2  629   3.316   5.652   8.986  0.0776  0.1163 -0.1110
   17POPC   C1A  630   2.969   5.148   8.667 -0.0611  0.0689 -0.1027
   17POPC   D2A  631   2.694   5.115   8.442 -0.1236 -0.3434  0.1125
   17POPC   C3A  632   2.550   5.244   8.011  0.1474  0.2283 -0.5447
   17POPC   C4A  633   2.453   5.190   7.569  0.1516 -0.1595 -0.1130
   17POPC   C1B  634   3.447   5.442   8.554 -0.0953  0.0639  0.0452
   17POPC   C2B  635   3.548   5.410   8.125  0.2401 -0.0059 -0.1102
   17POPC   C3B  636   3.411   4.974   7.831 -0.3387  0.4258 -0.1119
   17POPC   C4B  637   3.515   4.809   7.440 -0.1346  0.0915 -0.0379
   18POPC   NC3  638   8.313   4.279   9.167  0.4637 -0.0705 -0.4493
   18POPC   PO4  639   8.308   4.538   8.845 -0.2179  0.2802 -0.0624
   18POPC   GL1  640   8.646   4.634   8.544 -0.1127  0.0394 -0.0269
   18POPC   GL2  641   8.797   4.825   8.762  0.0982  0.0083 -0.3838
   18POPC   C1A  642   8.689   4.675   8.078 -0.0710 -0.1893 -0.0948
   18POPC   D2A  643   8.686   4.901   7.741  0.1855  0.0463  0.0331
   18POPC   C3A  644   8.773   4.770   7.435 -0.2146  0.0555  0.1088
   18POPC   C4A  645   9.050   4.799   7.009 -0.0101 -0.0060 -0.2431
   18POPC   C1B  646   8.977   4.998   8.384 -0.1257 -0.3186 -0.1131
   18POPC   C2B  647   9.116   4.925   8.002  0.1058 -0.0735 -0.0384
   18POPC   C3B  648   9.088   5.169   7.592 -0.1607  0.0020  0.1385
   18POPC   C4B  649   8.962   5.231   7.220  0.0766 -0.1579  0.0809
   19POPC   NC3  650   9.241   6.260   9.139 -0.0413 -0.1498 -0.1116
   19POPC   PO4  651   8.841   6.139   8.966  0.1157 -0.0040  0.0116
   19POPC   GL1  652   8.890   6.076   8.508 -0.0908  0.0044 -0.0952
   19POPC   GL2  653   8.904   6.385   8.242  0.3567  0.1109  0.0949
   19POPC   C1A  654   8.987   5.915   8.069  0.1203 -0.1125  0.1057
   19POPC   D2A  655   8.701   5.942   7.783  0.0804 -0.0280 -0.0671
   19POPC   C3A  656   8.310   5.641   7.820 -0.1490  0.1056  0.0726
   19POPC   C4A  657   8.112   5.375   8.113 -0.0731 -0.1027  0.1577
   19POPC   C1B  658   8.659   6.448   7.852 -0.6618  0.1327  0.0712
   19POPC   C2B  659   8.516   6.587   7.464  0.0543 -0.0596 -0.2302
   19POPC   C3B  660   8.603   6.731   7.095  0.1450 -0.1222  0.5210
   19POPC   C4B  661   8.503   7.204   6.941  0.2910  0.1607 -0.1190
   20POPC   NC3  662   4.223   4.270   9.325 -0.1022 -0.2783 -0.2206
   20POPC   PO4  663   3.974   4.565   9.185 -0.1285  0.1139  0.0425
   20POPC   GL1  664   3.846   4.658   8.663  0.2391 -0.1996 -0.1199
   20POPC   GL2  665   4.059   4.853   8.598  0.1776  0.0061  0.0975
   20POPC   C1A  666   3.933   4.324   8.293 -0.0016 -0.2555  0.2800
   20POPC   D2A  667   3.808   4.134   7.848 -0.1779  0.2028  0.1156
   20POPC   C3A  668   3.502   4.240   7.531 -0.0139 -0.0135  0.0588
   20POPC   C4A  669   3.266   4.105   7.231  0.1012  0.1597 -0.3928
   20POPC   C1B  670   4.266   4.948   8.176  0.0589  0.1360  0.4124
   20POPC   C2B  671   3.997   5.113   7.816  0.0044  0.1471 -0.4553
   20POPC   C3B  672   4.052   4.966   7.407 -0.1557 -0.0851 -0.2239
   20POPC   C4B  673   4.073   4.728   6.890  0.1952 -0.0352 -0.2289
   21POPC   NC3  674   0.702   0.655   8.050  0.0763 -0.1779 -0.4275
   21POPC   PO4  675   1.086   0.860   8.244 -0.1693 -0.0474  0.0229
   21POPC   GL1  676   1.138   0.858   7.751  0.0595  0.0239  0.0753
   21POPC   GL2  677   0.881   0.720   7.596 -0.2247 -0.1223 -0.0732
   21POPC   C1A  678   1.150   0.997   7.297 -0.3171  0.2223  0.1093
   21POPC   D2A  679   1.168   1.136   6.921 -0.0038 -0.0067  0.1685
   21POPC   C3A  680   1.324   1.305   6.528  0.2239  0.0471 -0.1215
   21POPC   C4A  681   1.512   1.156   6.243 -0.1042  0.0159 -0.0665
   21POPC   C1B  682   0.998   0.419   7.249 -0.1117 -0.1981  0.1698
   21POPC   C2B  683   1.138   0.166   6.800  0.0525 -0.1438 -0.2579
   21POPC   C3B  684   1.542  -0.005   6.638  0.1206  0.0918  0.0347
   21POPC   C4B  685   1.618  -0.216   6.385 -0.1909  0.1838 -0.1973
   22POPC   NC3  686   0.355   7.712   8.535 -0.3186  0.0110 -0.3803
   22POPC   PO4  687  -0.079   7.860   8.425  0.3707 -0.3200 -0.0253
   22POPC   GL1  688  -0.287   7.810   7.951 -0.0551  0.0143  0.0327
   22POPC   GL2  689  -0.273   7.519   7.900  0.1658  0.2142  0.1826
   22POPC   C1A  690  -0.210   7.960   7.569  0.0952  0.0218  0.2019
   22POPC   D2A  691  -0.023   8.251   7.316 -0.2135 -0.0669 -0.2289
   22POPC   C3A  692   0.387   8.171   7.123 -0.2297 -0.0762 -0.2097
   22POPC   C4A  693   0.781   8.117   7.272  0.2234  0.1966  0.1705
   22POPC   C1B  694  -0.248   7.501   7.398  0.0525  0.1550 -0.1030
   22POPC   C2B  695  -0.161   7.823   7.077  0.0166 -0.0448 -0.1203
   22POPC   C3B  696  -0.007   7.967   6.819  0.1560 -0.3183  0.0861
   22POPC   C4B  697   0.050   8.391   6.736 -0.0841 -0.0222 -0.0444
   23POPC   NC3  698   5.206   4.980   8.696 -0.1924  0.0949  0.2705
   23POPC   PO4  699   5.042   5.398   8.718 -0.0201 -0.2399 -0.0311
   23POPC   GL1  700   4.741   5.112   8.363 -0.1012  0.0303 -0.2374
   23POPC   GL2  701   4.678   5.386   8.145  0.1468 -0.0624  0.0719
   23POPC   C1A  702   4.698   4.911   7.960  0.2542 -0.1577 -0.3057
   23POPC   D2A  703   4.831   4.876   7.565  0.2777 -0.1760 -0.0909
   23POPC   C3A  704   4.614   4.924   7.225  0.0942 -0.1545  0.0188
   23POPC   C4A  705   4.339   5.230   6.926  0.3098  0.2167 -0.0279
   23POPC   C1B  706   4.718   5.361   7.730 -0.0096  0.1814  0.0967
   23POPC   C2B  707   4.763   5.582   7.349  0.1726  0.0346 -0.0353
   23POPC   C3B  708   4.457   5.786   7.120  0.1242 -0.0336 -0.0770
   23POPC   C4B  709   4.131   6.063   7.116  0.0860  0.1532  0.1743
   24POPC   NC3  710   0.444   1.193   8.626 -0.0332 -0.0570 -0.3286
   24POPC   PO4  711   0.451   0.937   8.302  0.2734  0.0520  0.3968
   24POPC   GL1  712   0.430   1.221   7.900 -0.0280 -0.1899 -0.0931
   24POPC   GL2  713   0.702   1.146   7.917 -0.0083 -0.1610  0.2831
   24POPC   C1A  714   0.541   1.587   7.702 -0.0354 -0.1751 -0.1968
   24POPC   D2A  715   0.588   1.805   7.335 -0.1631  0.0848 -0.5519
   24POPC   C3A  716   0.922   2.037   7.238 -0.2646 -0.1186 -0.2816
   24POPC   C4A  717   1.048   2.355   6.859  0.0635  0.0900  0.1861
   24POPC   C1B  718   0.647   1.139   7.436 -0.1517 -0.2081  0.1220
   24POPC   C2B  719   0.685   0.888   6.993 -0.3171  0.0303  0.4601
   24POPC   C3B  720   0.681   0.479   6.776 -0.2610  0.4934 -0.3003
   24POPC   C4B  721   0.978   0.374   6.373  0.2443  0.0303 -0.2674
   25POPC   NC3  722   2.068   1.425   8.940  0.1367  0.0547 -0.5433
   25POPC   PO4  723   1.891   1.394   8.454 -0.1538  0.2323 -0.1526
   25POPC   GL1  724   1.957   1.644   8.109 -0.1109  0.0349  0.0528
   25POPC   GL2  725   1.881   1.976   8.029  0.0774 -0.0089  0.2532
   25POPC   C1A  726   1.851   1.587   7.692  0.3633 -0.0484  0.1672
   25POPC   D2A  727   2.057   1.520   7.250 -0.0456 -0.2334  0.0771
   25POPC   C3A  728   2.011   1.012   7.152  0.3038 -0.4524 -0.0597
   25POPC   C4A  729   2.071   0.703   6.854  0.1088  0.3926 -0.0069
   25POPC   C1B  730   2.019   2.036   7.579  0.2641  0.0831  0.0262
   25POPC   C2B  731   2.228   2.152   7.161  0.0449 -0.2553  0.2094
   25POPC   C3B  732   2.080   2.162   6.709  0.0408 -0.2229  0.1409
   25POPC   C4B  733   1.719   1.997   6.515 -0.0044 -0.0868 -0.0526
   26POPC   NC3  734   2.361   6.718   9.490 -0.0687  0.1565  0.0703
   26POPC   PO4  735   2.083   6.441   9.432 -0.4464  0.1739  0.2588
   26POPC   GL1  736   2.254   6.450   9.085  0.1377  0.1041  0.1880
   26POPC   GL2  737   2.102   6.586   8.816 -0.2025 -0.1838 -0.0226
   26POPC   C1A  738   2.442   6.119   8.932  0.0392  0.0295 -0.2048
   26POPC   D2A  739   2.462   5.771   8.963 -0.1906 -0.0471  0.1525
   26POPC   C3A  740   2.560   5.295   8.877  0.1213 -0.1395  0.3772
   26POPC   C4A  741   2.591   4.818   8.938  0.0906  0.0740  0.1064
   26POPC   C1B  742   1.777   6.463   8.546  0.3188  0.1330  0.0379
   26POPC   C2B  743   1.855   6.313   8.240  0.1422 -0.0949 -0.0043
   26POPC   C3B  744   1.953   5.936   8.063  0.0919  0.1832  0.0036
   26POPC   C4B  745   2.193   5.611   8.007 -0.4281  0.0870  0.0342
   27POPC   NC3  746   5.028   9.688   8.654 -0.0798 -0.0819  0.3484
   27POPC   PO4  747   4.649   9.561   8.796 -0.1044 -0.2085 -0.0149
   27POPC   GL1  748   4.586   9.610   8.375 -0.0800 -0.0173 -0.1775
   27POPC   GL2  749   4.321   9.519   8.240  0.2215  0.0787  0.1424
   27POPC   C1A  750   4.479   9.896   7.998  0.0607  0.0367 -0.0802
   27POPC   D2A  751   4.119  10.219   7.721 -0.1854  0.0217 -0.0049
   27POPC   C3A  752   3.992   9.951   7.347 -0.4004 -0.1897 -0.0952
   27POPC   C4A  753   4.100   9.595   7.195 -0.0434  0.0899  0.0040
   27POPC   C1B  754   4.583   9.394   7.911  0.2721 -0.1647  0.0001
   27POPC   C2B  755   4.723   9.078   7.694 -0.1429 -0.0582 -0.3207
   27POPC   C3B  756   4.705   9.219   7.294  0.0649  0.3942  0.1741
   27POPC   C4B  757   4.889   9.330   6.836 -0.0545  0.0110 -0.0075
   28POPC   NC3  758   3.129   6.580   9.052 -0.0734 -0.3471  0.3828
   28POPC   PO4  759   3.606   6.479   9.102 -0.0322  0.0819  0.0500
   28POPC   GL1  760   3.533   6.458   8.695  0.0955 -0.1124  0.0020
   28POPC   GL2  761   3.174   6.569   8.535  0.1339  0.3393 -0.0511
   28POPC   C1A  762   3.616   6.734   8.222 -0.2347  0.0379 -0.0656
   28POPC   D2A  763   3.509   7.227   8.191  0.1589 -0.1246  0.2019
   28POPC   C3A  764   3.734   7.530   7.949  0.2100  0.0373 -0.1423
   28POPC   C4A  765   4.095   7.487   7.673  0.1594 -0.2977  0.1235
   28POPC   C1B  766   3.320   6.315   8.141  0.0643  0.0331 -0.0154
   28POPC   C2B  767   3.356   6.130   7.626 -0.0100 -0.1671  0.2006
   28POPC   C3B  768   3.498   6.286   7.243 -0.0795  0.0788  0.1561
   28POPC   C4B  769   3.618   6.097   6.963 -0.0785  0.1069 -0.0008
   29POPC   NC3  770   8.679   8.316   9.003  0.0422  0.3093  0.0589
   29POPC   PO4  771   8.440   8.624   8.851  0.0387 -0.4411  0.2334
   29POPC   GL1  772   8.419   8.504   8.389 -0.0378 -0.1378 -0.0156
   29POPC   GL2  773   8.326   8.260   8.227  0.0401  0.0877  0.0905
   29POPC   C1A  774   8.399   8.747   8.080 -0.0225  0.0842  0.1843
   29POPC   D2A  775   8.528   8.757   7.674 -0.2233  0.0951 -0.1333
   29POPC   C3A  776   8.830   8.510   7.454  0.2064  0.0902  0.2241
   29POPC   C4A  777   8.967   8.144   7.276 -0.0841 -0.1457 -0.0281
   29POPC   C1B  778   8.461   8.284   7.731 -0.1496 -0.0774  0.1973
   29POPC   C2B  779   8.260   8.269   7.359  0.1629  0.2237 -0.1382
   29POPC   C3B  780   8.039   8.227   7.052 -0.1854 -0.2366 -0.0422
   29POPC   C4B  781   7.847   8.037   6.740 -0.1761 -0.0457 -0.1174
   30POPC   NC3  782   0.823   7.423   8.977  0.4545 -0.1668 -0.0814
   30POPC   PO4  783   0.868   7.711   8.747 -0.5335 -0.2720  0.1600
   30POPC   GL1  784   0.902   7.736   8.250 -0.1519 -0.2184  0.1128
   30POPC   GL2  785   0.624   8.005   8.107  0.0782 -0.0183  0.0037
   30POPC   C1A  786   1.019   7.733   7.827 -0.1108  0.1366 -0.0711
   30POPC   D2A  787   1.209   7.735   7.436 -0.0563  0.3311  0.1775
   30POPC   C3A  788   1.134   7.729   6.964 -0.0960  0.1481 -0.3695
   30POPC   C4A  789   0.956   7.977   6.564  0.1882 -0.1419  0.0253
   30POPC   C1B  790   0.507   7.890   7.661 -0.3372  0.1198 -0.4919
   30POPC   C2B  791   0.443   7.646   7.268 -0.1684  0.2232 -0.2524
   30POPC   C3B  792   0.625   7.682   6.862 -0.0127 -0.1690  0.1443
   30POPC   C4B  793   0.666   7.660   6.369 -0.0074 -0.1113 -0.0426
   31POPC   NC3  794   3.231   7.089   9.253 -0.0279 -0.2057 -0.1217
   31POPC   PO4  795   2.849   6.973   9.215  0.3079  0.0397  0.1462
   31POPC   GL1  796   2.650   6.626   8.848 -0.1868  0.0464 -0.2464
   31POPC   GL2  797   2.429   6.935   8.769 -0.0912  0.0732  0.0024
   31POPC   C1A  798   2.716   6.269   8.538 -0.0196  0.2930  0.1559
   31POPC   D2A  799   2.824   6.104   8.177 -0.1955  0.5480  0.5455
   31POPC   C3A  800   2.922   6.120   7.826 -0.1126 -0.1737  0.0498
   31POPC   C4A  801   2.895   5.861   7.379 -0.1205 -0.0530 -0.1934
   31POPC   C1B  802   2.650   6.806   8.371  0.1780  0.1583  0.1284
   31POPC   C2B  803   2.758   6.568   8.019 -0.0091 -0.0262 -0.0530
   31POPC   C3B  804   2.625   6.506   7.623 -0.1057  0.0685  0.1066
   31POPC   C4B  805   2.427   6.220   7.296 -0.1568  0.3090 -0.0725
   32POPC   NC3  806   2.251   3.994   9.336 -0.1635  0.0627 -0.3324
   32POPC   PO4  807   2.056   4.189   9.672 -0.2349 -0.2211 -0.0825
   32POPC   GL1  808   1.902   4.244   9.151 -0.1214 -0.2266  0.1069
   32POPC   GL2  809   1.811   4.002   8.965 -0.0515 -0.0260 -0.2136
   32POPC   C1A  810   2.094   4.555   8.806 -0.0520  0.1163  0.0665
   32POPC   D2A  811   1.933   4.635   8.406 -0.2239  0.5786  0.1614
   32POPC   C3A  812   1.691   4.972   8.360  0.0505  0.1251 -0.2594
   32POPC   C4A  813   1.630   5.444   8.258  0.1627 -0.0684 -0.2018
   32POPC   C1B  814   1.904   4.092   8.494 -0.2447 -0.0601  0.4041
   32POPC   C2B  815   1.692   4.292   8.164 -0.0745  0.0739  0.3071
   32POPC   C3B  816   1.448   4.599   8.030  0.1442 -0.1310  0.2981
   32POPC   C4B  817   0.981   4.643   7.962  0.1164  0.0688 -0.2976
   33POPC   NC3  818   0.246   4.051   9.348 -0.1317  0.2869 -0.2968
   33POPC   PO4  819   0.035   3.648   9.438 -0.2625  0.0388 -0.1765
   33POPC   GL1  820   0.287   3.690   9.003 -0.1819  0.1078 -0.1436
   33POPC   GL2  821   0.451   3.476   8.863  0.3092 -0.2605  0.4424
   33POPC   C1A  822   0.448   3.919   8.598 -0.3241 -0.1166 -0.1763
   33POPC   D2A  823   0.736   4.140   8.327  0.1591 -0.0057 -0.0767
   33POPC   C3A  824   0.694   4.016   7.940 -0.0219 -0.2271  0.0712
   33POPC   C4A  825   0.980   3.760   7.714 -0.2921  0.1742 -0.2146
   33POPC   C1B  826   0.522   3.226   8.610 -0.1188 -0.2246  0.0740
   33POPC   C2B  827   0.393   3.087   8.172  0.2845 -0.0709 -0.0946
   33POPC   C3B  828   0.219   3.241   7.832 -0.0886 -0.1026  0.3731
   33POPC   C4B  829   0.123   3.098   7.472  0.1221 -0.1277 -0.0918
   34POPC   NC3  830   2.376   8.549   8.164 -0.0976  0.0491 -0.0971
   34POPC   PO4  831   2.599   8.158   8.445 -0.0786 -0.1670  0.0188
   34POPC   GL1  832   2.337   7.996   8.035  0.2543 -0.0713 -0.4872
   34POPC   GL2  833   2.552   8.137   7.918  0.1222 -0.3079 -0.1945
   34POPC   C1A  834   2.039   7.869   7.779 -0.1660  0.2114 -0.2483
   34POPC   D2A  835   1.795   8.043   7.453  0.6012  0.1410  0.3013
   34POPC   C3A  836   1.569   7.910   7.109  0.0423 -0.1150  0.1619
   34POPC   C4A  837   1.499   7.946   6.660  0.1469 -0.2000  0.0995
   34POPC   C1B  838   2.791   8.307   7.537 -0.0406 -0.2961  0.1683
   34POPC   C2B  839   3.193   8.391   7.148 -0.1788  0.0108 -0.2104
   34POPC   C3B  840   3.412   8.539   6.877  0.0165 -0.1428  0.2180
   34POPC   C4B  841   3.539   8.651   6.468 -0.1575  0.0435  0.1102
   35POPC   NC3  842   2.864   0.410   8.413 -0.3108  0.3930  0.1377
   35POPC   PO4  843   2.604   0.796   8.263  0.1747 -0.2312 -0.1631
   35POPC   GL1  844   2.387   0.797   7.873  0.4267  0.0976 -0.3564
   35POPC   GL2  845   2.058   0.570   7.928 -0.0307 -0.0706 -0.0447
   35POPC   C1A  846   2.346   1.082   7.511  0.0731 -0.2227  0.2032
   35POPC   D2A  847   2.534   1.358   7.337  0.0202  0.0685  0.1863
   35POPC   C3A  848   2.817   1.238   6.973 -0.2678  0.1339  0.0773
   35POPC   C4A  849   2.973   1.138   6.515  0.3775 -0.2455  0.0743
   35POPC   C1B  850   1.899   0.629   7.655  0.0036  0.1142 -0.2956
   35POPC   C2B  851   1.945   0.430   7.242  0.1864  0.1809 -0.0145
   35POPC   C3B  852   2.240   0.228   6.991 -0.2252  0.0768  0.1819
   35POPC   C4B  853   2.310   0.410   6.534 -0.0308 -0.0966  0.2368
   36POPC   NC3  854   9.805   7.629   8.862  0.1097  0.2141  0.2633
   36POPC   PO4  855  10.028   7.288   8.746  0.0017 -0.2565 -0.1514
   36POPC   GL1  856  10.116   7.336   8.299 -0.2736  0.1881  0.0140
   36POPC   GL2  857  10.212   7.674   8.077 -0.1137  0.0017  0.0505
   36POPC   C1A  858   9.868   7.085   8.044 -0.2098  0.1538  0.1740
   36POPC   D2A  859   9.559   7.059   7.837 -0.0352  0.0929 -0.0918
   36POPC   C3A  860   9.558   6.886   7.451  0.0499 -0.0886 -0.0872
   36POPC   C4A  861   9.484   6.452   7.523 -0.3574  0.2058 -0.1100
   36POPC   C1B  862  10.208   7.424   7.716  0.0107  0.3092  0.0153
   36POPC   C2B  863   9.997   7.101   7.493  0.1174  0.0247 -0.0201
   36POPC   C3B  864   9.772   7.102   7.016  0.2695 -0.0070 -0.0926
   36POPC   C4B  865   9.451   7.183   6.776  0.0155  0.1444  0.1406
   37POPC   NC3  866   6.367   3.974   8.904 -0.0596 -0.0200  0.0794
   37POPC   PO4  867   6.233   4.229   8.545  0.0612  0.3342  0.1109
   37POPC   GL1  868   6.145   4.392   8.160  0.2495  0.1611 -0.1094
   37POPC   GL2  869   5.989   4.266   7.928  0.2081 -0.2073 -0.0556
   37POPC   C1A  870   6.241   4.629   7.812  0.2526 -0.0336  0.0713
   37POPC   D2A  871   6.168   4.588   7.437 -0.0152  0.2281 -0.3223
   37POPC   C3A  872   6.429   4.475   7.022  0.1407  0.1774  0.0260
   37POPC   C4A  873   6.817   4.822   7.049  0.0194 -0.1796 -0.0509
   37POPC   C1B  874   5.639   4.462   7.645  0.0546 -0.0490 -0.2273
   37POPC   C2B  875   5.557   4.628   7.258 -0.4034 -0.0532 -0.1958
   37POPC   C3B  876   5.484   4.857   6.916 -0.1054  0.1915 -0.1485
   37POPC   C4B  877   5.335   5.208   6.828  0.0462 -0.1862 -0.1988
   38POPC   NC3  878   9.714   5.447   9.826 -0.2347  0.1134  0.5549
   38POPC   PO4  879  10.119   5.656   9.650  0.0310 -0.0555  0.0822
   38POPC   GL1  880  10.020   5.651   9.139 -0.0423  0.0616 -0.0847
   38POPC   GL2  881   9.963   5.891   8.914  0.2387 -0.0060 -0.3786
   38POPC   C1A  882  10.193   5.542   8.676 -0.1853  0.3357 -0.1310
   38POPC   D2A  883  10.187   5.147   8.280  0.3717  0.0904 -0.0860
   38POPC   C3A  884  10.132   5.274   7.939 -0.2471  0.2080 -0.2057
   38POPC   C4A  885  10.159   5.214   7.538  0.4574 -0.2197  0.1532
   38POPC   C1B  886   9.751   5.683   8.465  0.0919  0.2322 -0.0302
   38POPC   C2B  887   9.902   5.726   8.084  0.0791  0.3200  0.1754
   38POPC   C3B  888   9.695   5.458   7.751  0.1146  0.0177 -0.1264
   38POPC   C4B  889   9.599   5.006   7.853 -0.3004 -0.1619 -0.0993
   39POPC   NC3  890   1.718   8.164   8.931  0.0192 -0.2101  0.3230
   39POPC   PO4  891   1.602   8.299   8.532 -0.0763  0.3701  0.1135
   39POPC   GL1  892   1.586   8.010   8.110 -0.2424 -0.4203  0.2083
   39POPC   GL2  893   1.633   7.652   8.000  0.2705 -0.2021 -0.1870
   39POPC   C1A  894   1.383   8.145   7.744  0.1431  0.2097  0.2333
   39POPC   D2A  895   1.303   8.232   7.370 -0.0038  0.2645 -0.3246
   39POPC   C3A  896   1.246   8.313   6.850  0.1510  0.0798  0.4485
   39POPC   C4A  897   1.193   8.605   6.498  0.1112 -0.2297 -0.5774
   39POPC   C1B  898   1.666   7.580   7.562  0.0687  0.1815 -0.0929
   39POPC   C2B  899   1.985   7.416   7.257 -0.0154 -0.0402  0.1037
   39POPC   C3B  900   1.949   7.674   6.974  0.7721  0.1297 -0.1339
   39POPC   C4B  901   2.051   8.056   6.801  0.4381 -0.0578  0.0071
   40POPC   NC3  902   8.232   0.353   8.617 -0.0249 -0.0311 -0.2993
   40POPC   PO4  903   8.024   0.750   8.551  0.4181 -0.0068 -0.0290
   40POPC   GL1  904   7.910   0.722   8.100  0.2888 -0.3438  0.2315
   40POPC   GL2  905   8.130   0.735   7.783 -0.1335  0.1348  0.1974
   40POPC   C1A  906   7.744   0.508   7.799  0.4800  0.1004  0.1127
   40POPC   D2A  907   7.474   0.320   7.380 -0.3213  0.1312  0.1123
   40POPC   C3A  908   7.384  -0.124   7.371 -0.0839 -0.2837  0.0150
   40POPC   C4A  909   7.484  -0.373   7.030  0.0898 -0.1408 -0.0026
   40POPC   C1B  910   7.935   0.546   7.362  0.0278  0.0977 -0.2721
   40POPC   C2B  911   7.996   0.679   6.945 -0.2274  0.0963  0.2143
   40POPC   C3B  912   7.919   0.555   6.545 -0.1234 -0.0020 -0.1593
   40POPC   C4B  913   7.956   0.639   6.058  0.0877 -0.1094 -0.4883
   41POPC   NC3  914   4.276   1.694   8.813 -0.1557 -0.3198  0.0484
   41POPC   PO4  915   4.549   1.939   8.546  0.0934 -0.1051 -0.2255
   41POPC   GL1  916   4.725   2.189   8.304 -0.2423  0.1081 -0.0134
   41POPC   GL2  917   4.870   2.482   8.287 -0.0970  0.6011  0.1574
   41POPC   C1A  918   4.789   2.076   7.927 -0.0236  0.0402  0.0781
   41POPC   D2A  919   4.634   2.185   7.567  0.1678 -0.1363  0.1567
   41POPC   C3A  920   4.494   2.513   7.606  0.0260 -0.2630  0.3032
   41POPC   C4A  921   4.339   2.960   7.621 -0.1652  0.3050  0.3821
   41POPC   C1B  922   4.903   2.692   7.931  0.2691 -0.0939  0.0177
   41POPC   C2B  923   4.851   2.823   7.549  0.2536  0.2819 -0.1795
   41POPC   C3B  924   4.628   2.848   7.188  0.1137 -0.0086  0.0082
   41POPC   C4B  925   4.376   2.790   6.824  0.0622 -0.0255 -0.2664
   42POPC   NC3  926   4.316   2.354   8.494  0.0813  0.0616  0.0511
   42POPC   PO4  927   3.903   2.470   8.527  0.2884  0.2863 -0.4149
   42POPC   GL1  928   3.609   2.661   8.286 -0.0510 -0.2298 -0.1594
   42POPC   GL2  929   3.590   2.954   8.106 -0.0048 -0.2175 -0.2452
   42POPC   C1A  930   3.195   2.712   8.266  0.0407 -0.1668 -0.5173
   42POPC   D2A  931   2.810   2.769   7.942 -0.4312 -0.2064 -0.0439
   42POPC   C3A  932   2.804   2.592   7.545 -0.2091 -0.0880 -0.0645
   42POPC   C4A  933   2.754   2.423   7.175 -0.2272  0.2716  0.3088
   42POPC   C1B  934   3.294   2.952   7.813 -0.0649 -0.1020 -0.3076
   42POPC   C2B  935   3.271   2.835   7.327 -0.0042 -0.0656 -0.2877
   42POPC   C3B  936   3.005   2.786   6.953  0.0319 -0.0206 -0.1291
   42POPC   C4B  937   2.709   2.737   6.688 -0.0081  0.0839  0.0128
   43POPC   NC3  938   4.790   2.971   8.424  0.0914 -0.4257 -0.2307
   43POPC   PO4  939   4.547   3.378   8.496 -0.0591  0.2560 -0.2850
   43POPC   GL1  940   4.517   3.607   8.145  0.1708  0.1677  0.0634
   43POPC   GL2  941   4.705   3.850   8.036  0.3374 -0.3043 -0.3580
   43POPC   C1A  942   4.327   3.690   7.760 -0.0743 -0.1376  0.0872
   43POPC   D2A  943   4.352   3.695   7.389  0.0050  0.0665  0.2314
   43POPC   C3A  944   4.278   3.968   7.030  0.1636 -0.1626 -0.1494
   43POPC   C4A  945   4.227   4.277   6.657 -0.2501 -0.2845 -0.1972
   43POPC   C1B  946   4.949   3.701   7.768  0.1208 -0.1362  0.2010
   43POPC   C2B  947   5.048   3.768   7.224 -0.0503 -0.3259 -0.1423
   43POPC   C3B  948   5.179   3.758   6.775 -0.0561 -0.2271  0.2559
   43POPC   C4B  949   5.044   3.706   6.290  0.1020 -0.0752 -0.0815
   44POPC   NC3  950   5.504   5.527   8.569 -0.1116  0.0038 -0.2221
   44POPC   PO4  951   5.643   5.078   8.501 -0.3493  0.0938  0.1355
   44POPC   GL1  952   5.611   5.374   8.074 -0.0333 -0.1859  0.1005
   44POPC   GL2  953   5.273   5.264   8.174  0.1128 -0.0915 -0.1471
   44POPC   C1A  954   5.760   5.475   7.691  0.1651  0.0446  0.1825
   44POPC   D2A  955   5.721   5.873   7.441  0.0813 -0.2976 -0.0484
   44POPC   C3A  956   5.799   6.229   7.463 -0.2565  0.3248  0.0515
   44POPC   C4A  957   5.510   6.534   7.664  0.0481  0.4213  0.3033
   44POPC   C1B  958   5.249   5.352   7.759 -0.1057  0.2189 -0.1674
   44POPC   C2B  959   5.277   5.655   7.356 -0.1902  0.4597  0.3036
   44POPC   C3B  960   5.188   5.734   6.915 -0.2823  0.2343  0.1739
   44POPC   C4B  961   5.253   5.930   6.603 -0.3200 -0.0705 -0.0399
   45POPC   NC3  962   2.228   2.655   8.999 -0.0815 -0.1631  0.1208
   45POPC   PO4  963   1.918   2.431   8.932  0.0913 -0.0402 -0.2584
   45POPC   GL1  964   1.606   2.677   8.721  0.0409  0.1583 -0.0540
   45POPC   GL2  965   1.698   2.454   8.367 -0.2431  0.0246 -0.0656
   45POPC   C1A  966   1.606   3.073   8.657 -0.0524  0.3089  0.2335
   45POPC   D2A  967   1.970   3.276   8.432  0.0914  0.0533 -0.2616
   45POPC   C3A  968   2.181   3.649   8.514  0.0327  0.0534 -0.2616
   45POPC   C4A  969   2.347   3.954   8.363 -0.0418  0.0443 -0.0970
   45POPC   C1B  970   1.887   2.421   7.968 -0.0029 -0.1415 -0.2598
   45POPC   C2B  971   1.618   2.374   7.642 -0.1207 -0.0599  0.0482
   45POPC   C3B  972   1.381   2.377   7.315  0.0861  0.1255 -0.2161
   45POPC   C4B  973   1.343   2.699   7.084 -0.5328  0.0611  0.1570
   46POPC   NC3  974   5.289   4.425   8.771  0.1228  0.3615 -0.0998
   46POPC   PO4  975   4.863   4.437   8.836 -0.1915 -0.1323  0.1460
   46POPC   GL1  976   4.932   4.473   8.395  0.1150  0.0870 -0.5646
   46POPC   GL2  977   5.270   4.754   8.236  0.3416 -0.2509 -0.0846
   46POPC   C1A  978   4.780   4.430   7.889 -0.1409 -0.0159 -0.2223
   46POPC   D2A  979   4.707   4.160   7.531 -0.0178 -0.0854 -0.0518
   46POPC   C3A  980   4.837   4.154   7.027  0.1379  0.0344  0.1544
   46POPC   C4A  981   4.703   3.827   6.776  0.2742  0.0175  0.5100
   46POPC   C1B  982   5.202   4.826   7.868 -0.0070  0.0780  0.0331
   46POPC   C2B  983   5.272   4.989   7.394  0.0971 -0.0699 -0.2368
   46POPC   C3B  984   5.028   5.199   7.183  0.1724  0.1353 -0.0791
   46POPC   C4B  985   4.800   5.423   6.763  0.2197 -0.1083  0.1500
   47POPC   NC3  986   8.795   1.744   8.302 -0.1250 -0.1441  0.0077
   47POPC   PO4  987   9.233   1.848   8.530  0.1226 -0.2020 -0.2017
   47POPC   GL1  988   9.312   1.912   8.147  0.1615  0.1041 -0.3622
   47POPC   GL2  989   9.232   1.712   7.955 -0.2559  0.0881  0.0530
   47POPC   C1A  990   9.344   2.217   7.883 -0.1769 -0.0780 -0.0013
   47POPC   D2A  991   9.172   2.355   7.460  0.2130  0.1753 -0.2013
   47POPC   C3A  992   9.144   1.992   7.296 -0.1057  0.1602  0.2121
   47POPC   C4A  993   9.393   1.605   7.240 -0.0025  0.1227  0.3055
   47POPC   C1B  994   8.997   1.607   7.552  0.1629  0.3482 -0.4366
   47POPC   C2B  995   8.855   1.539   7.126 -0.2474  0.0951 -0.1125
   47POPC   C3B  996   8.714   1.218   6.949 -0.0316  0.0331 -0.3466
   47POPC   C4B  997   8.406   0.980   6.978 -0.2905 -0.2110 -0.0050
   48POPC   NC3  998   3.311   1.340   8.674  0.2036 -0.1257  0.0125
   48POPC   PO4  999   3.689   1.173   8.483 -0.2731  0.4462 -0.3277
   48POPC   GL1 1000   3.479   1.164   8.038  0.1231  0.3128 -0.0186
   48POPC   GL2 1001   3.454   0.956   7.744  0.1644  0.3055 -0.2427
   48POPC   C1A 1002   3.596   1.407   7.663 -0.0100  0.1318 -0.1159
   48POPC   D2A 1003   3.497   1.742   7.486 -0.0035 -0.0086 -0.2312
   48POPC   C3A 1004   3.666   2.100   7.290 -0.1416 -0.1797  0.1820
   48POPC   C4A 1005   3.831   2.610   7.281 -0.1424  0.1371  0.1043
   48POPC   C1B 1006   3.333   0.975   7.418 -0.0733  0.0588  0.1986
   48POPC   C2B 1007   3.331   1.120   6.944  0.2837  0.1704  0.1482
   48POPC   C3B 1008   3.319   1.420   6.699 -0.0818 -0.2305  0.1256
   48POPC   C4B 1009   3.416   1.681   6.392  0.1336  0.3644  0.2653
   49POPC   NC3 1010   0.151   4.244  10.141 -0.2352  0.2813  0.0436
   49POPC   PO4 1011   0.295   4.442   9.769  0.3832 -0.0062  0.0756
   49POPC   GL1 1012   0.445   4.554   9.358  0.2924 -0.0738 -0.0829
   49POPC   GL2 1013   0.362   4.484   9.058  0.1507  0.2815 -0.1224
   49POPC   C1A 1014   0.610   4.895   9.148 -0.1883 -0.1388 -0.2152
   49POPC   D2A 1015   0.756   4.792   8.772 -0.0606 -0.0326 -0.1951
   49POPC   C3A 1016   0.671   5.115   8.442 -0.0133  0.1107  0.3463
   49POPC   C4A 1017   0.579   4.990   7.970 -0.0567  0.0828 -0.0221
   49POPC   C1B 1018   0.504   4.360   8.739  0.0599  0.0317 -0.0295
   49POPC   C2B 1019   0.571   4.575   8.358 -0.0964  0.0787  0.0793
   49POPC   C3B 1020   0.458   4.537   7.990  0.1230  0.3631 -0.0228
   49POPC   C4B 1021   0.348   4.309   7.676 -0.0520  0.0396  0.0127
   50POPC   NC3 1022   8.553   3.525   8.823  0.1194  0.0882  0.2035
   50POPC   PO4 1023   8.920   3.747   8.612  0.1111  0.1953  0.1727
   50POPC   GL1 1024   8.946   4.038   8.283 -0.0082 -0.1277  0.0557
   50POPC   GL2 1025   8.659   4.205   8.286  0.0390  0.0801 -0.0848
   50POPC   C1A 1026   9.182   4.351   8.169 -0.2593 -0.1665  0.4596
   50POPC   D2A 1027   9.151   4.435   7.719 -0.3441 -0.0467  0.1796
   50POPC   C3A 1028   9.308   4.758   7.482 -0.0231 -0.2563  0.1593
   50POPC   C4A 1029   9.679   4.947   7.330  0.0643  0.0152  0.0856
   50POPC   C1B 1030   8.683   4.208   7.852 -0.1657 -0.0234  0.1909
   50POPC   C2B 1031   8.703   4.290   7.422  0.2492  0.1671 -0.0099
   50POPC   C3B 1032   8.623   4.498   7.021  0.0064  0.0242 -0.2212
   50POPC   C4B 1033   8.613   4.846   6.708 -0.0986  0.0763  0.0839
   51POPC   NC3 1034   5.194   7.345   8.351 -0.3663 -0.1578  0.1152
   51POPC   PO4 1035   5.644   7.454   8.613 -0.0541  0.2235 -0.2053
   51POPC   GL1 1036   5.732   7.508   8.120  0.0833  0.1105 -0.0285
   51POPC   GL2 1037   6.008   7.776   8.013  0.3626  0.3294 -0.0544
   51POPC   C1A 1038   5.448   7.507   7.790  0.1049 -0.0636 -0.1411
   51POPC   D2A 1039   5.193   7.432   7.449 -0.1638 -0.0529 -0.0472
   51POPC   C3A 1040   5.282   7.527   7.020  0.0219 -0.1390 -0.1630
   51POPC   C4A 1041   5.409   7.696   6.686  0.3368  0.2518  0.0387
   51POPC   C1B 1042   5.951   7.519   7.666  0.1572 -0.3183 -0.1131
   51POPC   C2B 1043   6.166   7.371   7.319  0.1892  0.1693  0.3335
   51POPC   C3B 1044   6.504   7.607   7.286 -0.0697  0.0066  0.0126
   51POPC   C4B 1045   6.854   7.530   6.978  0.3222 -0.1930  0.0068
   52POPC   NC3 1046   9.796   2.698   8.480 -0.1465 -0.0679 -0.0412
   52POPC   PO4 1047   9.942   2.438   8.636 -0.2357  0.0760 -0.1803
   52POPC   GL1 1048  10.247   2.561   8.306 -0.2523 -0.3037 -0.0499
   52POPC   GL2 1049  10.479   2.464   8.065  0.0208 -0.3461  0.1392
   52POPC   C1A 1050  10.107   2.743   7.883 -0.0846 -0.1669 -0.0533
   52POPC   D2A 1051  10.054   2.578   7.534 -0.2391 -0.2212 -0.0950
   52POPC   C3A 1052   9.780   2.243   7.500 -0.1953 -0.1435  0.1713
   52POPC   C4A 1053   9.561   1.881   7.636 -0.2603 -0.0822 -0.0738
   52POPC   C1B 1054  10.498   2.302   7.542  0.0246 -0.3661 -0.1631
   52POPC   C2B 1055  10.366   2.522   7.100 -0.2310  0.0454  0.0896
   52POPC   C3B 1056  10.388   2.783   6.804  0.0422  0.2162 -0.1234
   52POPC   C4B 1057  10.167   2.993   6.515  0.3381  0.0432 -0.0703
   53POPC   NC3 1058   2.977   6.389   9.934 -0.0355  0.1451 -0.0408
   53POPC   PO4 1059   2.904   6.018   9.629 -0.3825  0.0831 -0.2076
   53POPC   GL1 1060   2.976   6.040   9.151 -0.3768 -0.2086  0.0174
   53POPC   GL2 1061   3.256   6.131   8.976 -0.1362 -0.2152 -0.0426
   53POPC   C1A 1062   2.887   5.724   8.734  0.1113  0.2448  0.1175
   53POPC   D2A 1063   2.997   5.541   8.335  0.1649 -0.0996  0.1653
   53POPC   C3A 1064   3.098   5.104   8.168 -0.2569  0.1835  0.2939
   53POPC   C4A 1065   2.922   4.941   7.778 -0.0446  0.0968  0.1098
   53POPC   C1B 1066   3.220   5.998   8.530  0.0220 -0.1113 -0.1238
   53POPC   C2B 1067   3.307   5.839   8.072 -0.2757 -0.3832  0.3120
   53POPC   C3B 1068   3.364   5.524   7.721  0.0446  0.1176 -0.1716
   53POPC   C4B 1069   3.619   5.366   7.488 -0.0446 -0.1544 -0.0991
   54POPC   NC3 1070   7.195   7.333   8.855 -0.0378  0.0114 -0.1813
   54POPC   PO4 1071   7.475   7.005   8.686  0.1370 -0.0600  0.1914
   54POPC   GL1 1072   7.504   6.846   8.259  0.1389 -0.1459 -0.4173
   54POPC   GL2 1073   7.296   6.730   8.006 -0.2286 -0.3357 -0.3584
   54POPC   C1A 1074   7.740   6.808   7.841 -0.4862  0.3359 -0.2356
   54POPC   D2A 1075   8.030   6.641   7.507 -0.0353  0.0487 -0.1193
   54POPC   C3A 1076   7.888   6.328   7.187 -0.1377 -0.0960  0.0835
   54POPC   C4A 1077   7.498   6.244   7.038  0.1557 -0.0716 -0.2485
   54POPC   C1B 1078   7.313   7.027   7.673 -0.1123 -0.3358 -0.1273
   54POPC   C2B 1079   7.562   6.963   7.339 -0.2295  0.0332 -0.0826
   54POPC   C3B 1080   7.508   6.843   6.986 -0.3367 -0.0269 -0.3105
   54POPC   C4B 1081   7.519   6.991   6.657  0.2357  0.0158 -0.2084
   55POPC   NC3 1082   9.791   0.214   8.274 -0.0540  0.0751  0.1339
   55POPC   PO4 1083  10.291   0.389   8.348 -0.0675 -0.1229 -0.3769
   55POPC   GL1 1084  10.166   0.607   7.962  0.1664  0.0513  0.1063
   55POPC   GL2 1085  10.279   0.764   7.755 -0.1350  0.1036  0.0006
   55POPC   C1A 1086   9.893   0.485   7.581 -0.0447  0.1114 -0.4005
   55POPC   D2A 1087   9.731   0.208   7.206  0.0012  0.1449 -0.0018
   55POPC   C3A 1088   9.565   0.305   6.746 -0.4471 -0.0589  0.0858
   55POPC   C4A 1089   9.125   0.237   6.602 -0.0846  0.2859 -0.0972
   55POPC   C1B 1090  10.118   1.007   7.416 -0.3401  0.0494 -0.1914
   55POPC   C2B 1091  10.273   1.330   7.158 -0.3229 -0.1951 -0.0170
   55POPC   C3B 1092  10.539   1.595   6.877  0.0372  0.0503 -0.0920
   55POPC   C4B 1093  10.566   2.031   6.852  0.0082 -0.0115 -0.2688
   56POPC   NC3 1094   8.187   9.506   8.845 -0.2771  0.1601 -0.2063
   56POPC   PO4 1095   8.027   9.813   8.632  0.1379  0.0520 -0.0302
   56POPC   GL1 1096   7.955   9.754   8.212 -0.0429  0.2764 -0.1592
   56POPC   GL2 1097   8.229   9.795   8.002 -0.2196  0.1751  0.2768
   56POPC   C1A 1098   7.844   9.455   7.890 -0.0491  0.0652 -0.4031
   56POPC   D2A 1099   7.471   9.371   7.643  0.0490 -0.3912  0.0550
   56POPC   C3A 1100   7.252   9.648   7.788  0.1101 -0.2599 -0.0219
   56POPC   C4A 1101   7.220  10.123   7.791  0.2427  0.0642 -0.2296
   56POPC   C1B 1102   8.432   9.436   7.764  0.2215  0.1967  0.2452
   56POPC   C2B 1103   8.522   9.374   7.275 -0.0891 -0.1909 -0.0684
   56POPC   C3B 1104   8.306   9.268   6.893 -0.3745 -0.0559  0.1563
   56POPC   C4B 1105   8.101   9.337   6.441  0.2522 -0.1689  0.1561
   57POPC   NC3 1106   5.845   0.190   8.740 -0.0136  0.3786 -0.2892
   57POPC   PO4 1107   5.913   0.627   8.685 -0.2278  0.1153 -0.2704
   57POPC   GL1 1108   5.640   0.510   8.391 -0.2701 -0.0051  0.4066
   57POPC   GL2 1109   5.541   0.717   8.156  0.3307 -0.3009  0.1459
   57POPC   C1A 1110   5.452   0.138   8.188  0.1398  0.1415  0.0233
   57POPC   D2A 1111   5.417  -0.106   7.800 -0.0171  0.3309  0.1274
   57POPC   C3A 1112   5.285   0.039   7.344 -0.2904  0.1813 -0.3641
   57POPC   C4A 1113   4.896  -0.083   7.094  0.0025 -0.5249 -0.3800
   57POPC   C1B 1114   5.672   0.909   7.767 -0.1281  0.1550  0.0426
   57POPC   C2B 1115   5.857   0.941   7.264 -0.1768 -0.0018 -0.0617
   57POPC   C3B 1116   5.815   0.615   7.095  0.2595 -0.1304 -0.2099
   57POPC   C4B 1117   5.997   0.241   7.164 -0.0980  0.1157 -0.0107
   58POPC   NC3 1118   0.914   9.605   8.540 -0.0890  0.1432 -0.3369
   58POPC   PO4 1119   0.679   9.867   8.246  0.0036 -0.1424 -0.1952
   58POPC   GL1 1120   0.402  10.050   7.979 -0.0814 -0.4205  0.0015
   58POPC   GL2 1121   0.529  10.269   7.660  0.3633  0.1708  0.1925
   58POPC   C1A 1122   0.071  10.026   7.721  0.0850  0.1072 -0.0907
   58POPC   D2A 1123   0.057   9.686   7.349  0.1469  0.1016  0.0779
   58POPC   C3A 1124   0.136   9.788   6.920 -0.3086  0.1863 -0.1162
   58POPC   C4A 1125   0.248   9.572   6.606 -0.1209  0.1213 -0.0310
   58POPC   C1B 1126   0.441  10.465   7.359  0.0485  0.1415 -0.0331
   58POPC   C2B 1127   0.279  10.263   7.054  0.0186  0.1628  0.0876
   58POPC   C3B 1128   0.187  10.353   6.648 -0.1195 -0.0856 -0.0937
   58POPC   C4B 1129   0.157  10.255   6.187 -0.1324 -0.0264 -0.2544
   59POPC   NC3 1130   6.616   6.620   8.817 -0.0553  0.1374 -0.3025
   59POPC   PO4 1131   6.947   6.611   8.801  0.3312  0.0184 -0.0221
   59POPC   GL1 1132   7.024   6.479   8.377 -0.2045 -0.1295 -0.1142
   59POPC   GL2 1133   6.716   6.506   8.241  0.2094  0.0588  0.3419
   59POPC   C1A 1134   7.398   6.283   8.199  0.2821 -0.0306 -0.2669
   59POPC   D2A 1135   7.649   6.324   7.867  0.1146  0.2172 -0.0991
   59POPC   C3A 1136   7.501   6.469   7.482 -0.1896  0.1182 -0.0052
   59POPC   C4A 1137   7.136   6.684   7.359 -0.0004  0.0876 -0.2075
   59POPC   C1B 1138   6.376   6.671   7.989  0.1587  0.1660  0.1231
   59POPC   C2B 1139   6.143   6.650   7.567 -0.1490  0.3112 -0.1339
   59POPC   C3B 1140   5.731   6.702   7.259 -0.0614  0.0836  0.0015
   59POPC   C4B 1141   5.632   6.478   6.943 -0.1203  0.2864 -0.0292
   60POPC   NC3 1142   3.325   2.242   9.235 -0.0904  0.1962  0.1465
   60POPC   PO4 1143   3.443   2.054   8.804  0.1054  0.1020 -0.0629
   60POPC   GL1 1144   3.496   1.934   8.414 -0.3022 -0.1658 -0.2069
   60POPC   GL2 1145   3.474   1.610   8.309  0.0317 -0.0853  0.1816
   60POPC   C1A 1146   3.361   1.931   7.932 -0.1874  0.0246 -0.0538
   60POPC   D2A 1147   3.075   1.964   7.598 -0.0707 -0.2251 -0.0132
   60POPC   C3A 1148   3.182   2.205   7.328  0.0735  0.0487  0.0185
   60POPC   C4A 1149   3.065   2.158   6.856  0.0469  0.1068  0.0861
   60POPC   C1B 1150   3.184   1.497   7.961 -0.1324 -0.3384  0.0833
   60POPC   C2B 1151   3.027   1.113   7.836 -0.0906 -0.2786  0.2432
   60POPC   C3B 1152   2.831   0.893   7.447 -0.2426  0.0910 -0.1176
   60POPC   C4B 1153   2.973   0.580   7.358  0.0491  0.0567  0.0160
   61POPC   NC3 1154   9.029   4.978   9.246 -0.0233  0.1719  0.0362
   61POPC   PO4 1155   9.382   4.944   9.619  0.0417  0.4333 -0.1151
   61POPC   GL1 1156   9.654   4.964   9.262 -0.3813 -0.1946  0.2205
   61POPC   GL2 1157   9.812   5.199   9.417 -0.1771 -0.1721 -0.1394
   61POPC   C1A 1158   9.790   4.729   8.855  0.0523 -0.3907  0.1189
   61POPC   D2A 1159   9.545   4.481   8.584 -0.2695  0.0515 -0.2608
   61POPC   C3A 1160   9.570   4.645   8.156 -0.0157  0.3490  0.2067
   61POPC   C4A 1161   9.980   4.744   7.967 -0.0688  0.1305 -0.0271
   61POPC   C1B 1162  10.094   5.178   9.055 -0.1877 -0.0141 -0.0505
   61POPC   C2B 1163  10.240   4.897   8.733 -0.0204  0.0871  0.1227
   61POPC   C3B 1164  10.045   4.656   8.461  0.1606 -0.0402 -0.0962
   61POPC   C4B 1165  10.123   4.305   8.323 -0.2888  0.4234  0.0194
   62POPC   NC3 1166   0.817   2.069   8.870 -0.2738 -0.1027 -0.4164
   62POPC   PO4 1167   1.091   2.523   8.868 -0.3359  0.0712 -0.0428
   62POPC   GL1 1168   1.201   2.527   8.361  0.0436 -0.1647  0.2902
   62POPC   GL2 1169   1.297   2.834   8.180  0.0817  0.0326 -0.0335
   62POPC   C1A 1170   1.335   2.302   8.065  0.0986  0.2332  0.1981
   62POPC   D2A 1171   1.412   1.843   7.861 -0.0117  0.4254 -0.0859
   62POPC   C3A 1172   1.452   1.871   7.405  0.1562 -0.1731 -0.0915
   62POPC   C4A 1173   1.468   1.986   7.000  0.1338  0.0839  0.1201
   62POPC   C1B 1174   1.761   2.886   8.081 -0.2094 -0.2246  0.0974
   62POPC   C2B 1175   1.865   3.192   7.858  0.1034  0.1712 -0.1638
   62POPC   C3B 1176   1.911   3.432   7.478 -0.2836  0.0009 -0.3278
   62POPC   C4B 1177   1.768   3.859   7.360 -0.0960  0.0466  0.2645
   63POPC   NC3 1178   6.503   1.519   8.618  0.0833 -0.1669 -0.2087
   63POPC   PO4 1179   6.235   1.863   8.671  0.0704 -0.2336  0.0213
   63POPC   GL1 1180   6.025   1.963   8.336 -0.1897  0.0610 -0.0828
   63POPC   GL2 1181   5.744   1.873   8.418 -0.2225 -0.0258  0.2178
   63POPC   C1A 1182   5.991   1.994   7.955 -0.0727 -0.0322  0.2213
   63POPC   D2A 1183   5.952   1.920   7.550 -0.2498  0.2180  0.0280
   63POPC   C3A 1184   6.048   1.809   7.147 -0.2537  0.1328 -0.1500
   63POPC   C4A 1185   6.097   1.692   6.688 -0.0326  0.1817  0.1580
   63POPC   C1B 1186   5.564   1.838   7.971 -0.1839 -0.2022  0.1183
   63POPC   C2B 1187   5.616   1.606   7.711  0.0229 -0.0001  0.0065
   63POPC   C3B 1188   5.719   1.485   7.275  0.1665 -0.0694  0.2447
   63POPC   C4B 1189   5.556   1.528   6.805 -0.0712  0.1320 -0.0226
   64POPC   NC3 1190   6.215   2.365   8.568  0.0316  0.3238  0.0131
   64POPC   PO4 1191   5.775   2.637   8.562  0.2392 -0.1769  0.2166
   64POPC   GL1 1192   5.750   2.345   8.189  0.0890  0.2035 -0.1451
   64POPC   GL2 1193   6.056   2.457   8.071  0.1892 -0.0240 -0.3588
   64POPC   C1A 1194   5.668   2.301   7.737 -0.1238 -0.0092  0.0831
   64POPC   D2A 1195   5.701   2.397   7.318 -0.0855 -0.1885  0.1228
   64POPC   C3A 1196   5.447   2.511   7.120  0.0891  0.1632 -0.1177
   64POPC   C4A 1197   5.342   2.256   6.773  0.2036  0.2064  0.2443
   64POPC   C1B 1198   6.169   2.434   7.673 -0.2022  0.0045 -0.0330
   64POPC   C2B 1199   6.186   2.315   7.253 -0.3240 -0.1140 -0.2732
   64POPC   C3B 1200   5.939   2.353   6.824 -0.1149  0.1013  0.0008
   64POPC   C4B 1201   5.961   2.608   6.465 -0.1404 -0.0681  0.3442
   65POPC   NC3 1202   4.016   2.953   8.530  0.2698 -0.2695  0.1987
   65POPC   PO4 1203   4.342   2.766   8.278 -0.0316  0.0443 -0.1349
   65POPC   GL1 1204   4.213   2.389   8.033  0.0711  0.0057 -0.1257
   65POPC   GL2 1205   4.320   2.181   8.061  0.1905  0.2123 -0.0989
   65POPC   C1A 1206   3.989   2.239   7.635  0.0566  0.4289  0.3024
   65POPC   D2A 1207   4.225   2.107   7.367 -0.0847 -0.0294  0.2619
   65POPC   C3A 1208   4.619   2.342   7.115 -0.3621  0.1954  0.2674
   65POPC   C4A 1209   5.044   2.120   7.155 -0.1782  0.3642 -0.1084
   65POPC   C1B 1210   4.377   1.820   7.846  0.0779 -0.0543 -0.1201
   65POPC   C2B 1211   4.015   1.617   7.491 -0.1541  0.0165  0.1914
   65POPC   C3B 1212   4.154   1.649   6.992 -0.3316  0.2459 -0.0329
   65POPC   C4B 1213   4.281   1.979   6.749 -0.0654  0.3006  0.1431
   66POPC   NC3 1214   0.380   2.421   8.908 -0.0906 -0.0645 -0.1416
   66POPC   PO4 1215   0.462   2.742   9.162 -0.4152 -0.1075 -0.2059
   66POPC   GL1 1216   0.789   2.937   8.948 -0.3707 -0.2895  0.1973
   66POPC   GL2 1217   0.747   2.768   8.620  0.2699  0.0911 -0.1693
   66POPC   C1A 1218   1.072   3.193   8.682 -0.1131 -0.1304 -0.0618
   66POPC   D2A 1219   1.270   3.435   8.346  0.0276  0.0177 -0.4115
   66POPC   C3A 1220   1.202   3.274   7.906 -0.1900 -0.0769 -0.4105
   66POPC   C4A 1221   0.996   3.260   7.505  0.2622 -0.1557  0.0531
   66POPC   C1B 1222   0.836   2.873   8.216  0.0473 -0.0838  0.1891
   66POPC   C2B 1223   0.725   2.876   7.691 -0.2906  0.1468 -0.4510
   66POPC   C3B 1224   0.603   2.942   7.357 -0.2276  0.0253  0.1419
   66POPC   C4B 1225   0.361   3.286   6.991  0.1453 -0.2203  0.0085
   67POPC   NC3 1226   9.742   3.779   8.950  0.1435 -0.0838  0.1806
   67POPC   PO4 1227   9.455   4.112   8.965 -0.1853  0.2857  0.0301
   67POPC   GL1 1228   9.435   4.013   8.517 -0.0191 -0.0999 -0.3715
   67POPC   GL2 1229   9.768   3.857   8.407 -0.2584 -0.0586 -0.1723
   67POPC   C1A 1230   9.388   3.619   8.169 -0.0100 -0.2912  0.2012
   67POPC   D2A 1231   9.543   3.577   7.651  0.0481 -0.0966 -0.1539
   67POPC   C3A 1232   9.586   3.215   7.351  0.1661 -0.1288  0.2741
   67POPC   C4A 1233   9.910   2.898   6.993 -0.1018 -0.1471  0.0711
   67POPC   C1B 1234   9.595   4.051   7.998 -0.2172  0.2121  0.0998
   67POPC   C2B 1235   9.701   4.450   7.709 -0.2404  0.2854  0.1779
   67POPC   C3B 1236   9.654   4.452   7.322 -0.3014  0.2273  0.2710
   67POPC   C4B 1237   9.185   4.357   7.236 -0.0433 -0.0079 -0.1309
   68POPC   NC3 1238   7.912   1.565   8.423  0.0378  0.0288  0.5447
   68POPC   PO4 1239   8.005   1.772   8.103  0.1444  0.1300 -0.0432
   68POPC   GL1 1240   7.833   2.053   7.896  0.0030 -0.0331 -0.0678
   68POPC   GL2 1241   8.115   2.334   8.028  0.1046 -0.0332  0.0963
   68POPC   C1A 1242   7.703   2.123   7.469  0.0770 -0.1768 -0.0529
   68POPC   D2A 1243   7.585   1.919   7.020 -0.3904  0.2886  0.1303
   68POPC   C3A 1244   7.314   2.170   6.696 -0.3429 -0.0684 -0.3300
   68POPC   C4A 1245   7.011   2.542   6.679 -0.0664  0.0765 -0.1291
   68POPC   C1B 1246   8.231   2.487   7.591  0.1668 -0.0104  0.0493
   68POPC   C2B 1247   8.005   2.576   7.244  0.3589  0.1779 -0.2723
   68POPC   C3B 1248   7.878   2.862   7.002 -0.1023 -0.2419 -0.0129
   68POPC   C4B 1249   7.708   3.223   6.744 -0.7190  0.1184 -0.0577
   69POPC   NC3 1250   6.541   9.539   8.869  0.4569  0.3449  0.1986
   69POPC   PO4 1251   6.793   9.825   9.008 -0.1887  0.0238  0.1371
   69POPC   GL1 1252   6.927   9.573   8.596  0.1493 -0.0559 -0.0686
   69POPC   GL2 1253   6.675   9.512   8.371  0.1964 -0.1430 -0.0726
   69POPC   C1A 1254   7.030   9.759   8.203 -0.0396  0.0406 -0.1076
   69POPC   D2A 1255   6.792   9.969   7.849 -0.2035  0.0294  0.0432
   69POPC   C3A 1256   6.930  10.237   7.420  0.0937  0.1114  0.0041
   69POPC   C4A 1257   6.907  10.614   7.225  0.0699 -0.2655 -0.1101
   69POPC   C1B 1258   6.381   9.497   8.030  0.2448 -0.4194 -0.0901
   69POPC   C2B 1259   6.292   9.466   7.550 -0.0581  0.0089  0.3981
   69POPC   C3B 1260   6.027   9.674   7.238 -0.2148  0.0795  0.2035
   69POPC   C4B 1261   5.735   9.769   7.043 -0.0463 -0.0354 -0.0175
   70POPC   NC3 1262   0.710   8.487   8.708 -0.0180  0.1944 -0.0959
   70POPC   PO4 1263   0.763   8.876   8.670 -0.1068 -0.3757  0.0926
   70POPC   GL1 1264   0.739   9.096   8.186 -0.0272  0.3423 -0.0948
   70POPC   GL2 1265   1.013   9.002   8.031  0.1566  0.1925  0.0191
   70POPC   C1A 1266   0.528   8.989   7.877  0.0732 -0.0156  0.4921
   70POPC   D2A 1267   0.475   8.918   7.376  0.1738 -0.0043 -0.0442
   70POPC   C3A 1268   0.203   8.706   7.164 -0.2424  0.1161  0.2920
   70POPC   C4A 1269  -0.182   8.842   6.807  0.1020 -0.0296  0.0534
   70POPC   C1B 1270   0.935   8.931   7.593 -0.0637  0.0109 -0.0008
   70POPC   C2B 1271   0.814   8.617   7.166 -0.0836  0.1389  0.3103
   70POPC   C3B 1272   0.760   8.391   6.738 -0.1017  0.1115  0.2868
   70POPC   C4B 1273   0.405   8.098   6.578  0.1604 -0.0043 -0.2576
   71POPC   NC3 1274   4.490   9.159   8.518  0.3004 -0.0839 -0.0653
   71POPC   PO4 1275   4.823   9.175   8.495 -0.0590 -0.0875 -0.3730
   71POPC   GL1 1276   5.022   9.446   8.179 -0.0265  0.2164 -0.0706
   71POPC   GL2 1277   5.013   9.747   8.134 -0.2849  0.0704  0.1394
   71POPC   C1A 1278   5.080   9.485   7.719  0.2996 -0.0957  0.0864
   71POPC   D2A 1279   5.025   9.488   7.389 -0.0124 -0.1265 -0.0409
   71POPC   C3A 1280   5.287   9.537   7.050 -0.1280 -0.5088 -0.1493
   71POPC   C4A 1281   5.378   9.683   6.687  0.1962  0.0787  0.0614
   71POPC   C1B 1282   4.951   9.933   7.767  0.1350  0.0147  0.1556
   71POPC   C2B 1283   4.978  10.334   7.488  0.0219 -0.1455 -0.1843
   71POPC   C3B 1284   5.363  10.761   7.412  0.2927  0.0128 -0.4045
   71POPC   C4B 1285   5.464  10.874   6.914 -0.1249  0.0972 -0.2143
   72POPC   NC3 1286   9.191   2.398   9.344  0.2167 -0.1572  0.0133
   72POPC   PO4 1287   9.047   2.755   8.981 -0.0535 -0.0275  0.2047
   72POPC   GL1 1288   9.055   2.762   8.452  0.0281 -0.1773 -0.2534
   72POPC   GL2 1289   9.337   2.804   8.265  0.1949  0.1514  0.0661
   72POPC   C1A 1290   8.878   2.897   8.048 -0.0147 -0.0140  0.0456
   72POPC   D2A 1291   8.824   2.583   7.767  0.0408 -0.0822 -0.0655
   72POPC   C3A 1292   8.758   2.526   7.292  0.1407 -0.2770 -0.1221
   72POPC   C4A 1293   8.417   2.879   7.186  0.1517 -0.2054 -0.1974
   72POPC   C1B 1294   9.220   3.146   7.879  0.0632  0.2411 -0.2095
   72POPC   C2B 1295   9.098   2.912   7.467 -0.0126 -0.1291 -0.0484
   72POPC   C3B 1296   8.929   2.940   7.027 -0.1305 -0.1981  0.0296
   72POPC   C4B 1297   8.719   3.036   6.736 -0.1953  0.1851  0.1014
   73POPC   NC3 1298   3.259   7.678   8.530  0.0719  0.1847  0.0020
   73POPC   PO4 1299   3.478   7.923   8.369 -0.1396  0.1497 -0.0718
   73POPC   GL1 1300   3.563   8.059   7.983 -0.0857  0.0372 -0.2147
   73POPC   GL2 1301   3.721   8.187   7.859  0.0567 -0.2094 -0.0835
   73POPC   C1A 1302   3.275   8.131   7.556  0.2229  0.0484  0.0979
   73POPC   D2A 1303   2.972   7.989   7.252 -0.0653  0.3356 -0.3796
   73POPC   C3A 1304   2.746   8.216   6.962  0.0496  0.0669  0.0939
   73POPC   C4A 1305   2.342   8.532   6.918 -0.3197 -0.0107 -0.4085
   73POPC   C1B 1306   3.767   7.892   7.489 -0.1437 -0.2647  0.3639
   73POPC   C2B 1307   3.909   7.639   7.109 -0.0089  0.0959 -0.1665
   73POPC   C3B 1308   3.686   7.576   6.672 -0.0813 -0.1974 -0.0547
   73POPC   C4B 1309   3.283   7.694   6.455 -0.0675  0.0847  0.1764
   74POPC   NC3 1310   9.869   6.866   8.955 -0.0393 -0.0813  0.2330
   74POPC   PO4 1311   9.475   6.935   8.666 -0.3007 -0.0552 -0.1993
   74POPC   GL1 1312   9.496   6.798   8.248  0.0624 -0.1676 -0.2183
   74POPC   GL2 1313   9.406   6.583   8.258  0.3015 -0.1575 -0.0268
   74POPC   C1A 1314   9.908   6.584   8.050 -0.0931  0.2722  0.1462
   74POPC   D2A 1315   9.929   6.224   7.945 -0.1754 -0.2229 -0.3786
   74POPC   C3A 1316   9.751   6.014   7.549 -0.1125 -0.2372  0.2505
   74POPC   C4A 1317   9.433   6.050   7.257 -0.0137  0.0232 -0.2559
   74POPC   C1B 1318   9.283   6.343   7.945  0.1875 -0.2035  0.0324
   74POPC   C2B 1319   9.081   6.184   7.636 -0.0328  0.2212  0.1208
   74POPC   C3B 1320   8.779   6.141   7.296  0.3285  0.1964  0.1659
   74POPC   C4B 1321   8.715   6.114   6.928 -0.0009 -0.1222  0.0258
   75POPC   NC3 1322   7.765   5.838   9.343  0.0655  0.1128  0.0161
   75POPC   PO4 1323   7.650   5.903   8.944  0.0128  0.1630  0.1832
   75POPC   GL1 1324   7.651   5.918   8.496  0.0237 -0.1419  0.0940
   75POPC   GL2 1325   7.576   5.610   8.413 -0.0553  0.4262  0.1960
   75POPC   C1A 1326   7.876   5.846   8.095 -0.2085 -0.1511  0.1267
   75POPC   D2A 1327   8.042   6.104   7.715 -0.0880 -0.1222  0.1947
   75POPC   C3A 1328   8.203   6.016   7.315 -0.4345  0.1666  0.2332
   75POPC   C4A 1329   8.329   5.852   6.831 -0.2194  0.3694  0.0216
   75POPC   C1B 1330   7.180   5.543   8.071 -0.0946 -0.0587 -0.0172
   75POPC   C2B 1331   7.217   5.507   7.653 -0.2377  0.0537 -0.0965
   75POPC   C3B 1332   7.145   5.591   7.228 -0.1241  0.1309 -0.1664
   75POPC   C4B 1333   6.934   5.509   6.835  0.2150  0.0706  0.0228
   76POPC   NC3 1334   8.643   0.817   8.117  0.2856 -0.0423 -0.0309
   76POPC   PO4 1335   8.402   0.500   8.186 -0.2611  0.1433 -0.0909
   76POPC   GL1 1336   8.316   0.287   7.776 -0.3522  0.0644 -0.2859
   76POPC   GL2 1337   8.599   0.562   7.655 -0.0257  0.1600  0.2476
   76POPC   C1A 1338   8.436  -0.097   7.509 -0.3588 -0.4159  0.1125
   76POPC   D2A 1339   8.445  -0.108   7.002 -0.0959  0.1287 -0.1164
   76POPC   C3A 1340   8.768  -0.466   6.794  0.0464  0.0188 -0.0944
   76POPC   C4A 1341   8.830  -0.713   6.476  0.2141  0.2908  0.2991
   76POPC   C1B 1342   8.487   0.454   7.170  0.2484 -0.1376 -0.1632
   76POPC   C2B 1343   8.786   0.347   6.928  0.2729  0.0118 -0.0511
   76POPC   C3B 1344   8.737  -0.013   6.627  0.0947 -0.0010  0.3880
   76POPC   C4B 1345   9.045  -0.215   6.463  0.1907 -0.2640 -0.0013
   77POPC   NC3 1346   5.130   5.853   8.871 -0.0909 -0.1669  0.0200
   77POPC   PO4 1347   5.330   6.141   8.583 -0.3190 -0.1552  0.2156
   77POPC   GL1 1348   4.909   6.164   8.337  0.3268  0.3347 -0.1493
   77POPC   GL2 1349   4.971   5.783   8.229 -0.1239 -0.0184 -0.3118
   77POPC   C1A 1350   4.490   6.362   8.153 -0.4835 -0.0508 -0.2123
   77POPC   D2A 1351   4.341   6.226   7.754  0.2529  0.1238 -0.2178
   77POPC   C3A 1352   4.070   6.401   7.445 -0.0057 -0.1144 -0.0874
   77POPC   C4A 1353   3.898   6.483   6.912  0.2788  0.1505 -0.1023
   77POPC   C1B 1354   4.774   5.978   7.808  0.1999 -0.3624  0.0366
   77POPC   C2B 1355   4.781   6.055   7.480 -0.1356 -0.3323 -0.2959
   77POPC   C3B 1356   4.832   6.174   7.104 -0.4624  0.0389 -0.1829
   77POPC   C4B 1357   4.980   6.526   6.854  0.0366  0.1515  0.1674
   78POPC   NC3 1358   4.287   5.313   8.979 -0.4788  0.0708  0.1362
   78POPC   PO4 1359   3.862   5.019   9.037  0.1038  0.1465  0.0968
   78POPC   GL1 1360   3.902   5.341   8.613  0.1905  0.1253 -0.0138
   78POPC   GL2 1361   4.018   5.684   8.677  0.2443 -0.0897 -0.3014
   78POPC   C1A 1362   4.045   5.476   8.150  0.0989  0.2039 -0.1265
   78POPC   D2A 1363   3.886   5.660   7.769 -0.1599  0.0046  0.1074
   78POPC   C3A 1364   3.795   5.889   7.438 -0.1198  0.2926 -0.0520
   78POPC   C4A 1365   3.359   5.716   7.235  0.0362 -0.0010  0.0188
   78POPC   C1B 1366   3.738   5.886   8.367 -0.0586  0.0330  0.0375
   78POPC   C2B 1367   3.771   6.172   7.992  0.4256 -0.1498  0.0307
   78POPC   C3B 1368   3.642   6.521   7.733 -0.3060 -0.1719 -0.1895
   78POPC   C4B 1369   3.709   6.763   7.322 -0.0742  0.0460 -0.1021
   79POPC   NC3 1370   4.795   3.983   8.518  0.0276  0.2173 -0.1003
   79POPC   PO4 1371   5.164   4.050   8.420  0.1425  0.2609  0.4119
   79POPC   GL1 1372   5.266   3.894   8.048 -0.0096  0.1139  0.1002
   79POPC   GL2 1373   5.363   4.325   7.991  0.1389  0.2003  0.0263
   79POPC   C1A 1374   5.402   3.947   7.613  0.0172 -0.0782  0.0663
   79POPC   D2A 1375   5.496   4.110   7.133 -0.0037  0.1856  0.1327
   79POPC   C3A 1376   5.657   3.966   6.712  0.2721  0.3735 -0.0571
   79POPC   C4A 1377   5.635   3.683   6.305 -0.3413 -0.1611  0.2264
   79POPC   C1B 1378   5.156   4.375   7.507  0.1759  0.0977 -0.1198
   79POPC   C2B 1379   5.016   4.616   7.138 -0.4578 -0.0941  0.0749
   79POPC   C3B 1380   4.972   4.860   6.806 -0.3653  0.1061 -0.1465
   79POPC   C4B 1381   4.708   4.960   6.503  0.2641 -0.1810  0.2409
   80POPC   NC3 1382   3.348   3.482   9.149 -0.0028 -0.1455 -0.0131
   80POPC   PO4 1383   3.613   3.835   9.200  0.2660  0.1852 -0.4134
   80POPC   GL1 1384   3.423   3.861   8.714 -0.0522  0.2965 -0.2416
   80POPC   GL2 1385   3.197   3.640   8.554  0.0069  0.0031 -0.1717
   80POPC   C1A 1386   3.408   4.303   8.487 -0.0102 -0.3364  0.1981
   80POPC   D2A 1387   3.441   4.441   8.016 -0.2521  0.0494 -0.1855
   80POPC   C3A 1388   3.040   4.434   7.783  0.1293  0.0086 -0.0932
   80POPC   C4A 1389   2.616   4.522   7.551 -0.0075  0.0298  0.0191
   80POPC   C1B 1390   3.270   3.410   8.071 -0.0310 -0.2136 -0.5211
   80POPC   C2B 1391   3.212   3.480   7.583  0.2063  0.1757 -0.2730
   80POPC   C3B 1392   2.997   3.592   7.232 -0.0542  0.2767 -0.1303
   80POPC   C4B 1393   2.780   3.683   6.914 -0.1996  0.1988 -0.0812
   81POPC   NC3 1394   8.031   9.049   8.920 -0.3724  0.2749  0.0265
   81POPC   PO4 1395   8.118   8.911   8.558  0.1616  0.1469 -0.1182
   81POPC   GL1 1396   7.961   8.622   8.216  0.2630  0.0410 -0.1086
   81POPC   GL2 1397   7.798   8.964   8.050 -0.0836  0.0345 -0.1786
   81POPC   C1A 1398   7.973   8.580   7.734 -0.0906  0.3687  0.0739
   81POPC   D2A 1399   7.811   8.547   7.383 -0.3463  0.0578 -0.0260
   81POPC   C3A 1400   7.589   8.417   7.053 -0.2705  0.1681 -0.0926
   81POPC   C4A 1401   7.193   8.554   6.796 -0.0791 -0.0969 -0.0740
   81POPC   C1B 1402   8.105   9.071   7.716  0.0374  0.1758  0.4534
   81POPC   C2B 1403   8.259   8.960   7.305 -0.0749  0.1304  0.1508
   81POPC   C3B 1404   8.501   8.659   7.131  0.4052 -0.3159 -0.2133
   81POPC   C4B 1405   8.905   8.512   6.949  0.2319  0.0177 -0.0707
   82POPC   NC3 1406   8.547   4.045   8.848  0.0634  0.1022 -0.2055
   82POPC   PO4 1407   8.154   4.047   8.751 -0.1030  0.0069  0.1714
   82POPC   GL1 1408   8.259   3.801   8.304  0.0044 -0.2575 -0.1185
   82POPC   GL2 1409   8.416   3.491   8.332  0.0055  0.0663 -0.3462
   82POPC   C1A 1410   8.619   3.720   7.974  0.2427  0.1352  0.1983
   82POPC   D2A 1411   8.944   3.519   7.941 -0.0072 -0.1271 -0.1535
   82POPC   C3A 1412   9.145   3.430   7.459  0.1344  0.2526  0.3770
   82POPC   C4A 1413   9.219   3.323   6.959 -0.2617  0.1818 -0.2252
   82POPC   C1B 1414   8.524   3.230   8.051 -0.1275 -0.1870  0.1638
   82POPC   C2B 1415   8.718   3.207   7.652 -0.1013  0.1219  0.0552
   82POPC   C3B 1416   8.643   3.345   7.187 -0.0230 -0.3318  0.1692
   82POPC   C4B 1417   8.826   3.576   6.828  0.1136  0.0104 -0.0184
   83POPC   NC3 1418   9.758   8.928   8.391 -0.3622 -0.1506 -0.0937
   83POPC   PO4 1419   9.567   9.259   8.482  0.0331 -0.1932 -0.0224
   83POPC   GL1 1420   9.407   9.226   8.025 -0.1733  0.2043 -0.2223
   83POPC   GL2 1421   9.241   9.492   7.895  0.0947 -0.1516 -0.0627
   83POPC   C1A 1422   9.451   9.145   7.583 -0.1688  0.1794  0.3384
   83POPC   D2A 1423   9.190   9.320   7.099 -0.1236 -0.0046 -0.0568
   83POPC   C3A 1424   9.341   9.334   6.667 -0.1788  0.1457  0.4950
   83POPC   C4A 1425   9.683   9.098   6.373  0.0101 -0.1795  0.1890
   83POPC   C1B 1426   8.946   9.622   7.464 -0.4811 -0.0185 -0.1796
   83POPC   C2B 1427   8.946   9.857   7.133 -0.1063  0.0691 -0.4652
   83POPC   C3B 1428   9.232  10.259   7.114  0.4138 -0.1537  0.1185
   83POPC   C4B 1429   9.275  10.647   6.838  0.0172 -0.0074 -0.0817
   84POPC   NC3 1430   1.726   0.010   8.888  0.0650  0.0867 -0.3617
   84POPC   PO4 1431   1.985   0.078   8.513 -0.1354 -0.0510  0.0283
   84POPC   GL1 1432   1.985  -0.130   8.052 -0.0683  0.0898 -0.1596
   84POPC   GL2 1433   1.722  -0.021   8.052  0.0659  0.0263 -0.1054
   84POPC   C1A 1434   2.022  -0.291   7.666  0.2049 -0.1872  0.0824
   84POPC   D2A 1435   2.250  -0.160   7.349  0.0115 -0.0978  0.1558
   84POPC   C3A 1436   2.626  -0.452   7.446 -0.2955  0.0409 -0.0699
   84POPC   C4A 1437   2.957  -0.778   7.536 -0.0497  0.0353  0.1294
   84POPC   C1B 1438   1.797   0.137   7.640 -0.1007  0.1155 -0.3075
   84POPC   C2B 1439   1.776  -0.014   7.168  0.0717 -0.0691  0.1024
   84POPC   C3B 1440   1.966  -0.194   6.766  0.1161 -0.2149 -0.0711
   84POPC   C4B 1441   2.282  -0.144   6.486 -0.1252  0.2403 -0.0247
   85POPC   NC3 1442   6.804   0.247   8.727  0.1781 -0.0717  0.0993
   85POPC   PO4 1443   6.493   0.003   8.522 -0.1254 -0.1941  0.3561
   85POPC   GL1 1444   6.390   0.255   8.076 -0.0169 -0.0937  0.2041
   85POPC   GL2 1445   6.054   0.407   7.967  0.3707 -0.5621 -0.0972
   85POPC   C1A 1446   6.332   0.064   7.619  0.0733 -0.2404 -0.0581
   85POPC   D2A 1447   6.490  -0.063   7.156 -0.0357 -0.1003  0.2248
   85POPC   C3A 1448   6.676  -0.402   6.913  0.1790  0.4253 -0.2506
   85POPC   C4A 1449   7.097  -0.639   7.047  0.3222 -0.1601  0.0987
   85POPC   C1B 1450   6.134   0.541   7.652  0.0801 -0.1022  0.1126
   85POPC   C2B 1451   6.444   0.491   7.290 -0.0392 -0.3417  0.0117
   85POPC   C3B 1452   6.684   0.327   6.922 -0.0261 -0.1786  0.0024
   85POPC   C4B 1453   6.699  -0.027   6.631 -0.0732 -0.2339  0.1062
   86POPC   NC3 1454   2.319   5.563   9.450 -0.1516  0.1108 -0.2223
   86POPC   PO4 1455   1.903   5.268   9.529 -0.0386  0.0564 -0.3279
   86POPC   GL1 1456   1.486   5.282   9.341 -0.1822 -0.0085  0.0696
   86POPC   GL2 1457   1.402   4.956   9.301 -0.3391 -0.3632 -0.0726
   86POPC   C1A 1458   1.501   5.686   8.895  0.0718 -0.0040  0.0830
   86POPC   D2A 1459   1.587   5.912   8.463 -0.0871 -0.2466  0.0000
   86POPC   C3A 1460   1.267   5.744   8.158 -0.4849 -0.0437  0.0253
   86POPC   C4A 1461   1.134   5.643   7.817  0.1295 -0.0096 -0.0048
   86POPC   C1B 1462   1.075   5.136   9.005  0.2621 -0.1706 -0.0221
   86POPC   C2B 1463   0.622   5.476   8.981  0.1633 -0.0905 -0.0125
   86POPC   C3B 1464   0.468   5.989   8.698  0.2612  0.1841 -0.2574
   86POPC   C4B 1465   0.087   6.144   8.502 -0.1220  0.2728 -0.2055
   87POPC   NC3 1466   5.702   7.863   8.867  0.3671  0.0014  0.0438
   87POPC   PO4 1467   6.029   8.197   8.823 -0.3257  0.1478 -0.1923
   87POPC   GL1 1468   6.082   8.301   8.411 -0.2202 -0.0140 -0.1172
   87POPC   GL2 1469   6.382   8.344   8.445 -0.0227  0.2366  0.0959
   87POPC   C1A 1470   5.961   8.312   8.041 -0.2397 -0.0424 -0.4272
   87POPC   D2A 1471   5.865   8.317   7.702 -0.1283  0.1030 -0.1728
   87POPC   C3A 1472   6.189   8.009   7.520 -0.3440 -0.2723  0.0398
   87POPC   C4A 1473   6.524   8.077   7.272 -0.1681 -0.0797 -0.2583
   87POPC   C1B 1474   6.345   8.596   8.074  0.2591  0.3762 -0.0154
   87POPC   C2B 1475   6.280   8.638   7.655 -0.0317 -0.1553 -0.0823
   87POPC   C3B 1476   6.249   8.517   7.315  0.0071  0.0489 -0.0630
   87POPC   C4B 1477   6.505   8.541   7.001  0.4073  0.3323  0.1991
   88POPC   NC3 1478   3.589   0.364   8.852  0.0281 -0.0319 -0.1223
   88POPC   PO4 1479   3.377   0.326   8.509 -0.0545  0.1086  0.2830
   88POPC   GL1 1480   3.272   0.321   8.079 -0.1677 -0.2342  0.0533
   88POPC   GL2 1481   3.111  -0.077   8.005 -0.0827  0.0025  0.1332
   88POPC   C1A 1482   3.397   0.409   7.675 -0.0439 -0.2784  0.1177
   88POPC   D2A 1483   3.725   0.386   7.294 -0.0131 -0.2091  0.3326
   88POPC   C3A 1484   4.063   0.527   7.116  0.1072 -0.2046 -0.1017
   88POPC   C4A 1485   4.130   0.894   7.003  0.1202 -0.2513 -0.0077
   88POPC   C1B 1486   3.102  -0.106   7.604 -0.0757 -0.0188  0.0169
   88POPC   C2B 1487   3.033  -0.280   7.150 -0.0065  0.0841  0.2273
   88POPC   C3B 1488   3.364  -0.493   6.959  0.4794 -0.0167  0.4491
   88POPC   C4B 1489   3.495  -0.442   6.557 -0.2790  0.1277 -0.2154
   89POPC   NC3 1490   6.815   7.563   9.139 -0.0842  0.0170  0.1499
   89POPC   PO4 1491   7.034   7.885   8.878 -0.5412  0.1866 -0.2017
   89POPC   GL1 1492   7.124   8.092   8.527 -0.0397  0.2351 -0.2164
   89POPC   GL2 1493   6.833   8.266   8.563  0.0617 -0.1650 -0.0224
   89POPC   C1A 1494   7.254   7.981   8.103  0.2015 -0.1555  0.1077
   89POPC   D2A 1495   7.574   7.743   7.823 -0.3306  0.0394 -0.0746
   89POPC   C3A 1496   7.614   7.302   7.964 -0.0380 -0.1366  0.1481
   89POPC   C4A 1497   8.046   7.094   8.127 -0.2232  0.3503 -0.1151
   89POPC   C1B 1498   6.835   8.245   8.104 -0.1072  0.0596  0.0257
   89POPC   C2B 1499   6.872   8.104   7.677  0.2130 -0.0065  0.1481
   89POPC   C3B 1500   7.124   7.942   7.279 -0.2039  0.1829 -0.0823
   89POPC   C4B 1501   7.191   8.047   6.916 -0.1492  0.0639  0.2310
   90POPC   NC3 1502   6.560   8.509   8.899  0.3196  0.0118 -0.2466
   90POPC   PO4 1503   6.254   8.931   8.964  0.0420  0.0146 -0.0907
   90POPC   GL1 1504   6.299   9.116   8.591 -0.3886  0.2083  0.0879
   90POPC   GL2 1505   6.479   8.832   8.463 -0.1886  0.1315  0.1827
   90POPC   C1A 1506   6.038   8.947   8.263 -0.0573  0.1341 -0.1608
   90POPC   D2A 1507   6.075   8.993   7.886  0.3121  0.2010 -0.0011
   90POPC   C3A 1508   5.862   9.216   7.550 -0.3162 -0.0486  0.0972
   90POPC   C4A 1509   5.580   9.399   7.613 -0.2382  0.1443  0.0114
   90POPC   C1B 1510   6.523   9.061   8.154  0.0426 -0.0230 -0.2365
   90POPC   C2B 1511   6.533   9.042   7.730  0.2045 -0.1205 -0.1023
   90POPC   C3B 1512   6.510   9.074   7.306  0.1363  0.0636  0.0951
   90POPC   C4B 1513   6.518   9.031   6.792 -0.1234  0.0210  0.1645
   91POPC   NC3 1514   2.193   1.776   8.578  0.0439  0.1758 -0.2551
   91POPC   PO4 1515   2.562   1.565   8.483 -0.0243  0.3303 -0.1593
   91POPC   GL1 1516   2.771   1.630   8.191  0.2902 -0.2532  0.1516
   91POPC   GL2 1517   2.904   1.895   8.152  0.1229  0.0191 -0.0983
   91POPC   C1A 1518   2.763   1.598   7.669  0.0786 -0.0146 -0.1808
   91POPC   D2A 1519   3.074   1.383   7.405  0.1661 -0.3010 -0.1035
   91POPC   C3A 1520   3.204   1.730   7.090 -0.0092  0.0493  0.1582
   91POPC   C4A 1521   3.597   1.800   6.840  0.1810 -0.0610  0.2146
   91POPC   C1B 1522   2.796   2.235   7.947  0.1736 -0.2108  0.0169
   91POPC   C2B 1523   3.179   2.420   7.826  0.1467  0.0794 -0.0713
   91POPC   C3B 1524   3.509   2.438   7.600  0.0669  0.0343  0.1665
   91POPC   C4B 1525   3.904   2.748   7.750  0.0062 -0.1897 -0.0106
   92POPC   NC3 1526   6.672   3.827   8.530  0.0260 -0.2345  0.0118
   92POPC   PO4 1527   6.919   3.492   8.394 -0.1665  0.0355  0.1732
   92POPC   GL1 1528   6.886   3.552   7.955 -0.2672  0.1202 -0.0444
   92POPC   GL2 1529   7.050   3.240   7.796 -0.0270 -0.2313 -0.0487
   92POPC   C1A 1530   6.785   3.647   7.432  0.1721  0.1763  0.3483
   92POPC   D2A 1531   6.538   3.850   7.164  0.0103 -0.0266 -0.0245
   92POPC   C3A 1532   6.633   4.080   6.717  0.0276  0.2219  0.2114
   92POPC   C4A 1533   6.762   4.103   6.231 -0.1987 -0.1139 -0.0699
   92POPC   C1B 1534   6.748   3.184   7.534 -0.2206  0.0573 -0.1740
   92POPC   C2B 1535   6.353   3.361   7.303  0.2696  0.1024 -0.0692
   92POPC   C3B 1536   5.943   3.237   7.195 -0.2424  0.0976 -0.0451
   92POPC   C4B 1537   5.728   2.950   6.921 -0.0637  0.3479  0.2044
   93POPC   NC3 1538   6.387   0.513   8.551 -0.3884 -0.3436  0.2134
   93POPC   PO4 1539   6.852   0.678   8.424 -0.0411 -0.0930 -0.1148
   93POPC   GL1 1540   7.130   0.648   8.076  0.0165  0.1514  0.0473
   93POPC   GL2 1541   6.886   0.509   7.846 -0.3593 -0.3981 -0.3453
   93POPC   C1A 1542   7.278   0.660   7.606  0.0410 -0.5809 -0.0243
   93POPC   D2A 1543   7.379   0.732   7.186 -0.1704 -0.3616  0.1502
   93POPC   C3A 1544   7.169   0.624   6.791  0.3424 -0.3670  0.0595
   93POPC   C4A 1545   6.786   0.676   6.587 -0.1102  0.3660 -0.2511
   93POPC   C1B 1546   6.629   0.625   7.682  0.0788  0.0158 -0.1978
   93POPC   C2B 1547   6.424   0.977   7.512 -0.0271 -0.4111 -0.4600
   93POPC   C3B 1548   6.407   0.951   7.049  0.1775 -0.1476  0.0601
   93POPC   C4B 1549   6.149   0.703   6.703 -0.1160  0.0872  0.2346
   94POPC   NC3 1550   5.749   9.026   9.134  0.0734  0.3744  0.0650
   94POPC   PO4 1551   5.431   8.943   8.883 -0.0696 -0.0836 -0.1865
   94POPC   GL1 1552   5.365   8.808   8.520  0.1232 -0.0323  0.2602
   94POPC   GL2 1553   5.644   8.559   8.317 -0.1560  0.0300  0.0841
   94POPC   C1A 1554   5.183   8.876   8.089 -0.1140 -0.0826 -0.1736
   94POPC   D2A 1555   5.195   8.966   7.653  0.4452  0.1087  0.0572
   94POPC   C3A 1556   5.423   9.071   7.256  0.1737 -0.2005 -0.0703
   94POPC   C4A 1557   5.742   9.281   7.009  0.1226  0.3506  0.3062
   94POPC   C1B 1558   5.364   8.394   8.082  0.0577  0.2507  0.1029
   94POPC   C2B 1559   5.092   8.429   7.798 -0.0383 -0.0706  0.0088
   94POPC   C3B 1560   5.005   8.620   7.295  0.1554  0.0336 -0.2369
   94POPC   C4B 1561   5.279   8.651   6.939 -0.2173  0.1139  0.1304
   95POPC   NC3 1562   0.117   9.418   8.501 -0.0308 -0.2118  0.1144
   95POPC   PO4 1563   0.484   9.421   8.419  0.0008 -0.0987 -0.1126
   95POPC   GL1 1564   0.525   9.478   7.958  0.0203 -0.3511  0.1377
   95POPC   GL2 1565   0.885   9.495   7.889 -0.1192 -0.0041  0.1715
   95POPC   C1A 1566   0.521   9.392   7.603 -0.1772  0.0080 -0.1331
   95POPC   D2A 1567   0.406   9.415   7.127  0.0478 -0.0330 -0.1416
   95POPC   C3A 1568   0.246   9.104   6.870 -0.0319 -0.1666 -0.1749
   95POPC   C4A 1569   0.166   8.837   6.446 -0.1730  0.0393  0.3062
   95POPC   C1B 1570   1.086   9.403   7.570 -0.0296  0.0957  0.2886
   95POPC   C2B 1571   1.037   9.414   7.085  0.4795  0.1891  0.0849
   95POPC   C3B 1572   0.790   9.150   6.886 -0.1265  0.0953  0.1035
   95POPC   C4B 1573   0.700   8.868   6.530 -0.1554 -0.3100 -0.2096
   96POPC   NC3 1574   8.480   2.648   8.698 -0.1090 -0.0142  0.1066
   96POPC   PO4 1575   8.152   2.527   8.554 -0.0311 -0.0364 -0.0890
   96POPC   GL1 1576   8.131   2.995   8.216 -0.1860  0.3004  0.0645
   96POPC   GL2 1577   7.934   3.328   8.236 -0.1152  0.2188  0.1952
   96POPC   C1A 1578   8.225   2.938   7.830  0.0607  0.0862 -0.0761
   96POPC   D2A 1579   8.118   3.186   7.528  0.0615  0.2989  0.0814
   96POPC   C3A 1580   7.687   3.164   7.322 -0.0512  0.1154  0.1929
   96POPC   C4A 1581   7.358   3.475   7.191 -0.0788  0.1244  0.2013
   96POPC   C1B 1582   8.192   3.550   7.913  0.0952 -0.2155 -0.2344
   96POPC   C2B 1583   8.393   3.629   7.534 -0.2587 -0.0396  0.0513
   96POPC   C3B 1584   8.841   3.806   7.458  0.2020  0.1339 -0.0842
   96POPC   C4B 1585   9.132   3.964   7.718  0.1676  0.2271 -0.1524
   97POPC   NC3 1586   9.339   7.836   8.386 -0.0325  0.4411 -0.1545
   97POPC   PO4 1587   9.027   7.682   8.297  0.2151 -0.0289 -0.1901
   97POPC   GL1 1588   9.139   7.658   7.875  0.0971 -0.2531 -0.1123
   97POPC   GL2 1589   9.209   7.335   7.674  0.1858 -0.0648  0.1085
   97POPC   C1A 1590   9.219   7.742   7.434 -0.2498  0.0777 -0.0908
   97POPC   D2A 1591   9.246   7.729   7.020 -0.0238  0.3186 -0.3104
   97POPC   C3A 1592   9.143   7.563   6.663  0.2108 -0.2372  0.2147
   97POPC   C4A 1593   8.754   7.556   6.475 -0.1016 -0.0358 -0.1065
   97POPC   C1B 1594   9.213   7.270   7.290 -0.0572  0.1404 -0.2075
   97POPC   C2B 1595   9.018   7.078   6.994  0.0641  0.3389  0.0685
   97POPC   C3B 1596   8.871   6.912   6.673 -0.0968  0.1423  0.3312
   97POPC   C4B 1597   8.864   6.482   6.563 -0.3583  0.3715  0.1265
   98POPC   NC3 1598   1.921   0.575   8.391 -0.2968 -0.0136 -0.1785
   98POPC   PO4 1599   2.089   0.903   8.301  0.0723  0.0144  0.1115
   98POPC   GL1 1600   1.900   1.151   8.007 -0.2278 -0.2014 -0.4540
   98POPC   GL2 1601   1.543   1.241   8.049 -0.1551  0.0077 -0.2680
   98POPC   C1A 1602   1.763   1.112   7.625  0.0761  0.0132 -0.1419
   98POPC   D2A 1603   1.595   0.817   7.363 -0.2465 -0.0958 -0.1128
   98POPC   C3A 1604   1.581   0.818   6.909 -0.0630 -0.0063  0.0037
   98POPC   C4A 1605   1.764   1.145   6.744 -0.0844 -0.1134 -0.0223
   98POPC   C1B 1606   1.329   1.354   7.657  0.1730  0.1705 -0.0057
   98POPC   C2B 1607   1.547   1.355   7.158 -0.0539 -0.0695  0.2152
   98POPC   C3B 1608   1.830   1.622   6.864 -0.2571  0.1652 -0.1508
   98POPC   C4B 1609   2.255   1.710   6.827  0.0147  0.1640  0.0699
   99POPC   NC3 1610   7.156   3.463   8.857  0.0897 -0.0765 -0.1447
   99POPC   PO4 1611   7.229   3.881   8.489  0.1054  0.6380  0.4583
   99POPC   GL1 1612   7.265   3.956   8.114  0.2320 -0.4065 -0.1001
   99POPC   GL2 1613   7.532   4.182   8.121  0.5702  0.0746 -0.0678
   99POPC   C1A 1614   7.049   4.062   7.676  0.1225  0.0186 -0.0842
   99POPC   D2A 1615   7.260   3.992   7.265  0.0027  0.0988  0.2650
   99POPC   C3A 1616   7.009   3.824   7.002 -0.0285  0.1380  0.2223
   99POPC   C4A 1617   6.776   3.357   6.947 -0.1857 -0.3429  0.0836
   99POPC   C1B 1618   7.551   4.009   7.664 -0.1358  0.0708 -0.1360
   99POPC   C2B 1619   7.822   4.031   7.365 -0.1865  0.1134 -0.2077
   99POPC   C3B 1620   7.742   4.067   7.037  0.3647 -0.0306  0.0848
   99POPC   C4B 1621   7.489   4.245   6.864  0.1082  0.0967 -0.1583
  100POPC   NC3 1622   1.277   9.871   8.233  0.1355  0.2014 -0.3407
  100POPC   PO4 1623   1.538  10.178   8.431 -0.0350 -0.0582  0.2078
  100POPC   GL1 1624   1.292  10.241   7.946 -0.0956 -0.2772  0.0527
  100POPC   GL2 1625   1.021  10.253   7.808 -0.0332  0.1919 -0.2842
  100POPC   C1A 1626   1.378  10.391   7.557  0.0829  0.1629 -0.1925
  100POPC   D2A 1627   1.480  10.403   7.111 -0.2628  0.0424 -0.1988
  100POPC   C3A 1628   1.102  10.632   6.828 -0.0370  0.3347 -0.2289
  100POPC   C4A 1629   1.067  10.848   6.474  0.1081 -0.1210 -0.0272
  100POPC   C1B 1630   0.847   9.881   7.547  0.0650  0.1481 -0.0145
  100POPC   C2B 1631   0.711  10.010   7.135  0.2466  0.1094  0.0927
  100POPC   C3B 1632   0.699   9.754   6.770  0.3544 -0.0466 -0.2315
  100POPC   C4B 1633   0.755   9.485   6.416  0.1246  0.2124 -0.0498
  101POPC   NC3 1634   4.071   9.010   8.729  0.0536 -0.0816 -0.0068
  101POPC   PO4 1635   3.999   9.001   8.298 -0.0005 -0.2365  0.2118
  101POPC   GL1 1636   4.011   9.068   7.956 -0.2650  0.3110  0.0508
  101POPC   GL2 1637   4.006   8.805   7.800 -0.1340 -0.2953 -0.1714
  101POPC   C1A 1638   3.756   9.143   7.575 -0.0367 -0.1438  0.1834
  101POPC   D2A 1639   3.750   9.200   7.110  0.1550  0.2584  0.0004
  101POPC   C3A 1640   3.926   9.464   6.752 -0.3792 -0.0252  0.1307
  101POPC   C4A 1641   4.058   9.652   6.388  0.1681 -0.0567 -0.0696
  101POPC   C1B 1642   3.965   8.773   7.353 -0.1290 -0.1461 -0.2071
  101POPC   C2B 1643   3.858   8.776   6.896  0.0751 -0.1884 -0.1792
  101POPC   C3B 1644   3.747   9.064   6.624 -0.0344  0.1462 -0.0704
  101POPC   C4B 1645   3.894   9.280   6.152 -0.1966  0.1683 -0.1373
  102POPC   NC3 1646   4.726   1.521   8.391 -0.1156  0.0498 -0.3456
  102POPC   PO4 1647   4.570   1.137   8.528 -0.0653  0.2258  0.1235
  102POPC   GL1 1648   4.608   1.150   8.131 -0.3161 -0.2242  0.1624
  102POPC   GL2 1649   4.412   0.874   7.988  0.0694 -0.0830 -0.1776
  102POPC   C1A 1650   4.787   1.336   7.720  0.0933  0.2110 -0.1636
  102POPC   D2A 1651   4.732   1.710   7.470  0.0524  0.1141 -0.2295
  102POPC   C3A 1652   4.552   1.863   7.109 -0.1303 -0.1559  0.1021
  102POPC   C4A 1653   4.775   2.076   6.724  0.2757 -0.0150  0.0743
  102POPC   C1B 1654   4.280   0.741   7.504  0.2301 -0.0219  0.2099
  102POPC   C2B 1655   4.611   0.565   7.171  0.2273  0.0460 -0.1126
  102POPC   C3B 1656   4.598   0.212   6.850  0.2420 -0.2105 -0.0819
  102POPC   C4B 1657   4.464  -0.277   6.816  0.0711  0.2525  0.1011
  103POPC   NC3 1658   8.541   7.356   9.078 -0.1036  0.1005  0.1175
  103POPC   PO4 1659   8.643   7.632   8.736  0.0701  0.0779 -0.0004
  103POPC   GL1 1660   8.401   7.754   8.371  0.0693  0.0485 -0.2994
  103POPC   GL2 1661   8.589   7.813   8.133  0.0125 -0.2000  0.1363
  103POPC   C1A 1662   8.173   7.558   8.086  0.1304  0.1820 -0.0658
  103POPC   D2A 1663   8.275   7.382   7.727  0.2403 -0.2369  0.1976
  103POPC   C3A 1664   7.892   7.253   7.550  0.2465  0.0403 -0.2945
  103POPC   C4A 1665   7.476   7.451   7.405 -0.0405 -0.1270  0.0384
  103POPC   C1B 1666   8.765   7.892   7.652  0.0444  0.0911  0.2362
  103POPC   C2B 1667   8.431   7.839   7.331 -0.2147  0.0451 -0.1227
  103POPC   C3B 1668   8.139   7.607   7.039  0.1804  0.0232  0.0639
  103POPC   C4B 1669   7.843   7.287   7.025  0.0654 -0.0876  0.5051
  104POPC   NC3 1670   3.552   4.731   9.404  0.1642  0.1437  0.3613
  104POPC   PO4 1671   3.228   4.537   9.434  0.0298  0.2112 -0.2172
  104POPC   GL1 1672   3.176   4.638   9.070 -0.0133 -0.0304  0.1797
  104POPC   GL2 1673   3.397   4.962   8.950 -0.0657 -0.0361 -0.1174
  104POPC   C1A 1674   2.928   4.575   8.687  0.2868  0.0832 -0.0520
  104POPC   D2A 1675   2.904   4.660   8.255 -0.0183  0.1183  0.0225
  104POPC   C3A 1676   2.566   4.646   8.059 -0.2766 -0.2279 -0.1167
  104POPC   C4A 1677   2.262   4.523   8.080  0.0414  0.4429 -0.1183
  104POPC   C1B 1678   3.430   4.849   8.446 -0.0544 -0.2710 -0.2454
  104POPC   C2B 1679   3.746   4.815   8.154  0.2482  0.1224 -0.1076
  104POPC   C3B 1680   3.879   4.635   7.796  0.2034  0.1467 -0.0562
  104POPC   C4B 1681   4.036   4.375   7.294 -0.0220  0.0282 -0.1219
  105POPC   NC3 1682   6.993   4.756   8.794  0.0030  0.0926 -0.2065
  105POPC   PO4 1683   6.778   4.357   8.750  0.3192 -0.0728 -0.1917
  105POPC   GL1 1684   6.925   4.434   8.367  0.0808 -0.1227 -0.0262
  105POPC   GL2 1685   6.823   4.227   8.143 -0.0789 -0.0803  0.0180
  105POPC   C1A 1686   7.206   4.562   7.932  0.0917  0.2275  0.1617
  105POPC   D2A 1687   7.276   4.559   7.474  0.1126  0.2653 -0.0735
  105POPC   C3A 1688   7.332   4.699   7.014 -0.1585  0.0112 -0.0003
  105POPC   C4A 1689   7.162   5.034   6.703  0.1847  0.0758 -0.0929
  105POPC   C1B 1690   6.532   4.041   7.888 -0.0989 -0.0686 -0.0826
  105POPC   C2B 1691   6.394   3.641   7.723  0.1782 -0.1188  0.0778
  105POPC   C3B 1692   6.267   3.218   7.820  0.0046  0.1166  0.4744
  105POPC   C4B 1693   6.464   2.802   7.876 -0.1302 -0.0216 -0.1959
  106POPC   NC3 1694   7.205   6.106   8.780  0.0188 -0.2469 -0.2550
  106POPC   PO4 1695   6.768   6.064   8.480 -0.1255  0.0174 -0.0887
  106POPC   GL1 1696   6.872   6.008   8.044  0.1181  0.1074  0.0796
  106POPC   GL2 1697   6.658   5.722   7.921  0.0076  0.0305 -0.1625
  106POPC   C1A 1698   7.263   5.984   7.823  0.2991 -0.1677 -0.0060
  106POPC   D2A 1699   7.548   5.937   7.529 -0.1026 -0.1526 -0.1833
  106POPC   C3A 1700   7.622   5.769   7.234  0.0301 -0.0770 -0.0801
  106POPC   C4A 1701   7.500   5.534   6.898 -0.0885  0.0279 -0.0763
  106POPC   C1B 1702   6.821   5.920   7.567  0.3905  0.2792  0.2065
  106POPC   C2B 1703   7.094   6.196   7.352  0.2305 -0.3072 -0.1837
  106POPC   C3B 1704   7.099   6.417   6.907  0.0913 -0.0719 -0.1658
  106POPC   C4B 1705   7.226   6.626   6.471  0.3073  0.3473 -0.1862
  107POPC   NC3 1706   3.340   8.487   8.264 -0.3513  0.0067  0.3810
  107POPC   PO4 1707   3.119   8.176   8.548  0.1566 -0.4648  0.1635
  107POPC   GL1 1708   3.024   7.930   8.148 -0.0657  0.2174 -0.2707
  107POPC   GL2 1709   2.776   7.733   8.237 -0.3011 -0.1149 -0.0023
  107POPC   C1A 1710   2.912   7.769   7.758 -0.0790  0.3470  0.2416
  107POPC   D2A 1711   2.529   7.839   7.524  0.1298  0.1750 -0.0300
  107POPC   C3A 1712   2.649   7.450   7.245 -0.2891 -0.1384  0.3591
  107POPC   C4A 1713   2.827   7.263   6.922 -0.1383  0.1249  0.2306
  107POPC   C1B 1714   2.461   7.558   7.989  0.0132  0.3334  0.3644
  107POPC   C2B 1715   2.320   7.401   7.631 -0.0121 -0.0812 -0.1543
  107POPC   C3B 1716   2.230   6.958   7.569 -0.1529 -0.1706 -0.1396
  107POPC   C4B 1717   2.201   6.627   7.322  0.1041  0.0043 -0.1329
  108POPC   NC3 1718   4.375   4.602   8.901  0.1281 -0.0053 -0.0360
  108POPC   PO4 1719   4.392   4.049   8.862  0.1801 -0.0873  0.1342
  108POPC   GL1 1720   4.276   3.982   8.348  0.0427 -0.0434 -0.3202
  108POPC   GL2 1721   4.042   3.866   8.169  0.1888 -0.1196 -0.0500
  108POPC   C1A 1722   4.279   4.302   7.972 -0.3050  0.0412 -0.2632
  108POPC   D2A 1723   4.401   4.616   7.639  0.0540 -0.1500 -0.1496
  108POPC   C3A 1724   4.499   4.434   7.230  0.0071 -0.3471 -0.3768
  108POPC   C4A 1725   4.552   4.590   6.854  0.1139  0.1779  0.1940
  108POPC   C1B 1726   3.546   3.917   8.243  0.1771  0.0776 -0.2089
  108POPC   C2B 1727   3.097   4.022   8.272  0.1545  0.1890  0.1633
  108POPC   C3B 1728   2.724   4.177   7.999  0.1336 -0.0604  0.0480
  108POPC   C4B 1729   2.409   4.115   7.823  0.0506 -0.0905 -0.0453
  109POPC   NC3 1730   4.093   3.640   8.666 -0.1192  0.0194 -0.3500
  109POPC   PO4 1731   3.704   3.434   8.695  0.0531  0.1027  0.0167
  109POPC   GL1 1732   3.751   3.470   8.263 -0.1008 -0.1533 -0.2559
  109POPC   GL2 1733   4.103   3.329   8.173 -0.3604 -0.1914 -0.3406
  109POPC   C1A 1734   3.659   3.615   7.815 -0.0768 -0.1145  0.0977
  109POPC   D2A 1735   3.597   3.732   7.398  0.0506  0.1873 -0.3925
  109POPC   C3A 1736   3.928   3.551   7.172  0.0415 -0.2151  0.0601
  109POPC   C4A 1737   4.290   3.257   7.213  0.4807  0.0023  0.3888
  109POPC   C1B 1738   3.954   3.231   7.777  0.0797 -0.2777  0.0170
  109POPC   C2B 1739   3.796   3.069   7.330  0.0681 -0.0561  0.2358
  109POPC   C3B 1740   3.919   3.071   6.875  0.0239  0.4282 -0.1226
  109POPC   C4B 1741   3.809   3.301   6.605 -0.3223  0.1406  0.2196
  110POPC   NC3 1742   4.900   0.736   8.813 -0.3704  0.1299 -0.1095
  110POPC   PO4 1743   5.139   0.297   8.813 -0.1726 -0.1061 -0.0915
  110POPC   GL1 1744   5.149   0.444   8.389  0.1342 -0.0293 -0.0260
  110POPC   GL2 1745   5.025   0.853   8.201 -0.2485 -0.1290  0.1228
  110POPC   C1A 1746   4.848   0.359   8.051 -0.0545  0.0945  0.1766
  110POPC   D2A 1747   4.587   0.391   7.744 -0.2976 -0.1961  0.0931
  110POPC   C3A 1748   4.491   0.116   7.395 -0.0889 -0.0235  0.2824
  110POPC   C4A 1749   4.555  -0.271   7.330  0.1418 -0.0903 -0.1657
  110POPC   C1B 1750   4.835   0.835   7.779 -0.0382  0.1059 -0.2144
  110POPC   C2B 1751   4.844   0.949   7.374 -0.0523 -0.0482  0.0768
  110POPC   C3B 1752   4.990   0.921   7.074 -0.0316  0.0904 -0.0926
  110POPC   C4B 1753   5.085   1.144   6.665 -0.1631 -0.0537 -0.0162
  111POPC   NC3 1754   4.061   0.884   8.377 -0.0456 -0.1390 -0.3457
  111POPC   PO4 1755   3.679   0.704   8.262  0.0124 -0.0289  0.2923
  111POPC   GL1 1756   3.930   0.775   7.834  0.0439 -0.1286 -0.1381
  111POPC   GL2 1757   3.948   1.128   7.943  0.1476  0.0339  0.0608
  111POPC   C1A 1758   3.907   1.050   7.454  0.0117  0.0189  0.0113
  111POPC   D2A 1759   3.718   1.312   7.136 -0.0439 -0.0847  0.0380
  111POPC   C3A 1760   3.823   1.258   6.832 -0.1885  0.0978 -0.1581
  111POPC   C4A 1761   3.958   1.498   6.543  0.2285  0.2925  0.5661
  111POPC   C1B 1762   4.225   1.265   7.743  0.0641 -0.1096  0.1548
  111POPC   C2B 1763   4.430   1.227   7.364 -0.0200 -0.1398 -0.1494
  111POPC   C3B 1764   4.545   1.224   6.900 -0.0334 -0.1405  0.0131
  111POPC   C4B 1765   4.325   1.133   6.515 -0.0631 -0.0286  0.1163
  112POPC   NC3 1766   1.501   8.863   8.399  0.1200  0.0579 -0.2702
  112POPC   PO4 1767   1.260   9.332   8.303  0.1456 -0.0168 -0.0888
  112POPC   GL1 1768   1.453   9.417   8.030 -0.0352 -0.1333  0.2524
  112POPC   GL2 1769   1.529   9.125   7.850  0.2509 -0.1475  0.0530
  112POPC   C1A 1770   1.426   9.782   7.669 -0.0775 -0.0167 -0.0576
  112POPC   D2A 1771   1.300   9.822   7.266 -0.1647 -0.0667  0.1322
  112POPC   C3A 1772   1.525   9.420   6.936  0.3173  0.1802 -0.2218
  112POPC   C4A 1773   1.314   9.042   6.732 -0.1112 -0.1367  0.0804
  112POPC   C1B 1774   1.640   9.290   7.404 -0.2371 -0.1731  0.1152
  112POPC   C2B 1775   1.976   9.342   7.148  0.1448  0.1784 -0.1003
  112POPC   C3B 1776   2.360   9.279   7.076  0.2085 -0.0318 -0.2318
  112POPC   C4B 1777   2.530   9.581   6.963 -0.2379  0.0690  0.0344
  113POPC   NC3 1778   9.080   9.282   8.768 -0.0894  0.1801 -0.2495
  113POPC   PO4 1779   8.714   9.547   8.600  0.2196  0.3983 -0.4610
  113POPC   GL1 1780   8.842   9.326   8.262 -0.4100  0.2408  0.0498
  113POPC   GL2 1781   8.803   9.588   8.114  0.4663  0.3653  0.1684
  113POPC   C1A 1782   8.838   9.111   7.852 -0.2950  0.0030  0.0229
  113POPC   D2A 1783   8.896   9.036   7.428  0.2943  0.2987  0.3267
  113POPC   C3A 1784   9.233   8.829   7.222 -0.4076 -0.0638 -0.0832
  113POPC   C4A 1785   9.669   8.752   7.301 -0.0012  0.0619  0.0485
  113POPC   C1B 1786   8.818  10.007   7.843  0.0588 -0.2341  0.0643
  113POPC   C2B 1787   8.899  10.216   7.473 -0.2828 -0.3133 -0.1461
  113POPC   C3B 1788   8.917  10.726   7.220 -0.0818  0.3346 -0.1042
  113POPC   C4B 1789   8.690  11.038   7.427  0.0745 -0.0807  0.0117
  114POPC   NC3 1790   4.241   8.326   8.171 -0.0583 -0.0295  0.3521
  114POPC   PO4 1791   4.458   8.767   8.135  0.0061  0.0240 -0.0654
  114POPC   GL1 1792   4.384   8.500   7.730  0.0385 -0.1341  0.1430
  114POPC   GL2 1793   4.125   8.356   7.610  0.1090 -0.2117 -0.2234
  114POPC   C1A 1794   4.465   8.721   7.300 -0.0729  0.2364 -0.1425
  114POPC   D2A 1795   4.644   8.837   6.940 -0.1688  0.2093 -0.1015
  114POPC   C3A 1796   4.835   8.565   6.757  0.1291  0.1403  0.1879
  114POPC   C4A 1797   5.242   8.584   6.429  0.1670  0.1016 -0.2709
  114POPC   C1B 1798   4.169   8.380   7.138 -0.1917  0.0254 -0.1602
  114POPC   C2B 1799   3.933   8.299   6.756 -0.1729  0.2010 -0.5346
  114POPC   C3B 1800   3.602   8.158   6.646 -0.1611 -0.2720  0.1094
  114POPC   C4B 1801   3.213   8.092   6.674 -0.1594 -0.0319 -0.0421
  115POPC   NC3 1802   6.341   1.378   8.171 -0.0304 -0.1635  0.0588
  115POPC   PO4 1803   6.063   1.409   8.524 -0.2237  0.0890 -0.2757
  115POPC   GL1 1804   5.831   1.406   8.152  0.3366  0.0694  0.1175
  115POPC   GL2 1805   5.528   1.192   8.133  0.0029 -0.1172 -0.0890
  115POPC   C1A 1806   6.064   1.440   7.632  0.0391 -0.2255 -0.2393
  115POPC   D2A 1807   6.466   1.481   7.557  0.1132  0.0546  0.2267
  115POPC   C3A 1808   6.479   1.850   7.429  0.0755  0.0589 -0.1748
  115POPC   C4A 1809   6.633   2.098   7.146 -0.0591  0.2219  0.0666
  115POPC   C1B 1810   5.232   1.157   7.865  0.0040  0.2494  0.0129
  115POPC   C2B 1811   5.224   1.325   7.475 -0.3842 -0.1983  0.2762
  115POPC   C3B 1812   5.179   1.613   7.157 -0.1511 -0.1200 -0.1147
  115POPC   C4B 1813   5.115   1.758   6.668  0.1151  0.0831 -0.1354
  116POPC   NC3 1814   7.162   2.372   8.900  0.1296  0.1783  0.1500
  116POPC   PO4 1815   7.183   2.515   8.542 -0.0989  0.1263 -0.0715
  116POPC   GL1 1816   7.229   2.628   8.116  0.2926  0.0116 -0.2193
  116POPC   GL2 1817   7.460   2.421   7.909  0.3523  0.0733 -0.0527
  116POPC   C1A 1818   7.146   2.720   7.732  0.1363 -0.0001  0.1482
  116POPC   D2A 1819   7.169   3.010   7.296  0.0752  0.1598  0.1412
  116POPC   C3A 1820   7.161   2.992   6.802  0.2219 -0.0863  0.1442
  116POPC   C4A 1821   7.348   3.115   6.351 -0.1796  0.0851 -0.2411
  116POPC   C1B 1822   7.177   2.113   7.659 -0.0014 -0.3646 -0.0945
  116POPC   C2B 1823   7.107   1.816   7.385  0.2098 -0.0202  0.2701
  116POPC   C3B 1824   6.817   1.500   7.196 -0.0430  0.1232 -0.3412
  116POPC   C4B 1825   6.460   1.510   6.972  0.0417  0.4850 -0.1451
  117POPC   NC3 1826   1.592   3.795   9.725 -0.1161 -0.4030 -0.0506
  117POPC   PO4 1827   1.528   4.114   9.490 -0.1095 -0.0208  0.0506
  117POPC   GL1 1828   1.214   4.241   9.244  0.2287  0.0379  0.0272
  117POPC   GL2 1829   1.050   4.599   9.263  0.2609  0.2398  0.0401
  117POPC   C1A 1830   1.030   4.356   8.833  0.0239  0.0157 -0.0410
  117POPC   D2A 1831   1.084   4.557   8.482 -0.2118  0.0269  0.0610
  117POPC   C3A 1832   1.229   4.992   8.496  0.0979  0.1769 -0.2822
  117POPC   C4A 1833   1.191   5.377   8.546 -0.0841  0.2853  0.0377
  117POPC   C1B 1834   1.428   4.640   8.962  0.0785 -0.3278  0.0817
  117POPC   C2B 1835   1.591   4.420   8.672  0.1892  0.1613  0.2369
  117POPC   C3B 1836   1.387   4.018   8.522 -0.0936  0.0203  0.0846
  117POPC   C4B 1837   1.196   3.909   8.146  0.3886  0.0110  0.0817
  118POPC   NC3 1838   3.781   0.155   8.226 -0.2280  0.1860  0.1272
  118POPC   PO4 1839   3.556  -0.204   8.374  0.2492 -0.1703 -0.2073
  118POPC   GL1 1840   3.810  -0.466   8.117 -0.0341 -0.1789  0.1358
  118POPC   GL2 1841   3.571  -0.714   8.118  0.1213  0.1087 -0.1749
  118POPC   C1A 1842   4.143  -0.460   7.787  0.1823 -0.2884  0.2543
  118POPC   D2A 1843   4.280  -0.782   7.466 -0.1441 -0.1037 -0.1954
  118POPC   C3A 1844   4.316  -0.743   6.933  0.0660  0.1620 -0.1168
  118POPC   C4A 1845   4.214  -1.094   6.600  0.1081  0.0555  0.0339
  118POPC   C1B 1846   3.379  -0.479   7.681 -0.1842 -0.1794  0.1887
  118POPC   C2B 1847   3.524  -0.186   7.265 -0.1772  0.0922 -0.1231
  118POPC   C3B 1848   3.660   0.010   6.867 -0.1550  0.5044 -0.0085
  118POPC   C4B 1849   4.036   0.125   6.751 -0.0725  0.3317  0.0478
  119POPC   NC3 1850   6.368   2.188   9.058 -0.0597 -0.0519  0.0083
  119POPC   PO4 1851   6.691   2.206   8.737 -0.0059 -0.0759 -0.1314
  119POPC   GL1 1852   6.604   1.982   8.310 -0.1581  0.0033  0.0396
  119POPC   GL2 1853   6.830   1.715   8.099  0.0716 -0.1576  0.3970
  119POPC   C1A 1854   6.506   2.185   8.008 -0.0783 -0.1490  0.1006
  119POPC   D2A 1855   6.790   2.459   7.846 -0.2840 -0.0095  0.1117
  119POPC   C3A 1856   6.752   2.411   7.481 -0.1528  0.1124  0.2485
  119POPC   C4A 1857   7.058   2.379   7.181 -0.0808  0.0257  0.0047
  119POPC   C1B 1858   7.037   1.479   7.858  0.3982 -0.3891  0.0200
  119POPC   C2B 1859   7.463   1.484   7.644  0.3615 -0.1772 -0.2130
  119POPC   C3B 1860   7.684   1.552   7.324 -0.2634 -0.4087  0.4079
  119POPC   C4B 1861   8.046   1.853   7.247 -0.1195 -0.0133  0.1516
  120POPC   NC3 1862   8.756   5.549   9.291 -0.0522  0.1297 -0.3334
  120POPC   PO4 1863   9.030   5.870   9.421  0.0655 -0.0598  0.1799
  120POPC   GL1 1864   9.236   5.774   9.096  0.0752 -0.2003 -0.0822
  120POPC   GL2 1865   9.375   6.031   8.743  0.0156 -0.0629 -0.1057
  120POPC   C1A 1866   9.539   5.535   8.968 -0.2562 -0.2122  0.0394
  120POPC   D2A 1867   9.755   5.165   8.656  0.1040 -0.3548  0.2137
  120POPC   C3A 1868   9.623   5.197   8.347  0.1939  0.1114  0.4017
  120POPC   C4A 1869   9.242   5.400   8.045 -0.1347  0.0095 -0.3117
  120POPC   C1B 1870   9.508   6.121   8.322  0.2348  0.1182 -0.0214
  120POPC   C2B 1871   9.475   5.889   7.959  0.0107  0.1359  0.1883
  120POPC   C3B 1872   9.193   5.691   7.613 -0.0070 -0.2976  0.1384
  120POPC   C4B 1873   9.123   5.671   7.135 -0.4231 -0.4006 -0.0344
  121POPC   NC3 1874   0.049   7.274   9.256 -0.4059 -0.2107  0.0747
  121POPC   PO4 1875   0.379   6.986   9.073  0.0754 -0.2048  0.3648
  121POPC   GL1 1876   0.519   6.971   8.668 -0.0968 -0.2236 -0.5618
  121POPC   GL2 1877   0.665   7.245   8.547 -0.2977 -0.0218 -0.1496
  121POPC   C1A 1878   0.480   6.794   8.229  0.4058  0.1568  0.0109
  121POPC   D2A 1879   0.313   6.855   7.819 -0.1624 -0.2201  0.2294
  121POPC   C3A 1880   0.067   6.629   7.531 -0.1753  0.1724 -0.0793
  121POPC   C4A 1881   0.053   6.330   7.200 -0.2466 -0.1659  0.0019
  121POPC   C1B 1882   0.645   7.358   8.039 -0.1309 -0.1427  0.0734
  121POPC   C2B 1883   0.766   7.409   7.556  0.0926  0.1449 -0.2738
  121POPC   C3B 1884   0.848   7.287   7.083  0.0865  0.0182 -0.0671
  121POPC   C4B 1885   1.006   7.428   6.625 -0.0817  0.0286  0.3412
  122POPC   NC3 1886   4.772   8.557   8.494 -0.0491 -0.1443  0.4453
  122POPC   PO4 1887   4.626   8.105   8.383 -0.0045  0.0768  0.2040
  122POPC   GL1 1888   4.620   8.012   7.886 -0.1986  0.1016 -0.1518
  122POPC   GL2 1889   4.317   7.947   7.816 -0.1602 -0.4061 -0.0458
  122POPC   C1A 1890   4.782   8.242   7.506  0.3341 -0.3903 -0.1276
  122POPC   D2A 1891   4.652   8.258   7.102 -0.1813  0.2407  0.1939
  122POPC   C3A 1892   4.409   8.021   6.888 -0.0239  0.0028  0.1738
  122POPC   C4A 1893   4.221   7.757   6.711  0.0767 -0.0797  0.1548
  122POPC   C1B 1894   4.333   7.953   7.394 -0.0920 -0.0186 -0.0016
  122POPC   C2B 1895   4.360   7.553   7.238 -0.0902  0.2000  0.2985
  122POPC   C3B 1896   4.260   7.320   6.983  0.2344 -0.1654 -0.3153
  122POPC   C4B 1897   4.051   7.249   6.530 -0.1426 -0.1372 -0.0728
  123POPC   NC3 1898   9.760   1.975   8.366 -0.4499 -0.1144  0.1194
  123POPC   PO4 1899  10.192   1.672   8.542 -0.1752  0.0151  0.2066
  123POPC   GL1 1900  10.226   1.643   8.115 -0.0408 -0.1385 -0.0883
  123POPC   GL2 1901  10.165   1.942   8.092 -0.0368  0.0303  0.0036
  123POPC   C1A 1902  10.018   1.498   7.654 -0.2451 -0.2104 -0.2709
  123POPC   D2A 1903   9.929   1.670   7.254 -0.0666  0.0309  0.1853
  123POPC   C3A 1904   9.734   1.527   6.898  0.2826  0.1563  0.0735
  123POPC   C4A 1905   9.766   1.183   7.113 -0.0133 -0.5587 -0.3021
  123POPC   C1B 1906  10.156   1.963   7.635 -0.0660 -0.2433  0.0974
  123POPC   C2B 1907  10.160   2.054   7.147  0.1221 -0.2799 -0.1991
  123POPC   C3B 1908   9.892   2.364   6.997  0.1123 -0.0422 -0.1450
  123POPC   C4B 1909   9.682   2.577   6.721 -0.2527 -0.1394 -0.1945
  124POPC   NC3 1910   8.243   1.053   8.247  0.0091 -0.0067 -0.2060
  124POPC   PO4 1911   8.563   1.254   8.345 -0.0138 -0.1380 -0.2304
  124POPC   GL1 1912   8.399   1.470   8.007 -0.0920 -0.2059 -0.1820
  124POPC   GL2 1913   8.347   1.232   7.735 -0.1476 -0.2304 -0.0456
  124POPC   C1A 1914   8.395   1.718   7.656  0.1799  0.1367  0.1338
  124POPC   D2A 1915   8.643   2.046   7.385  0.0786 -0.2360  0.2243
  124POPC   C3A 1916   8.394   2.290   7.097 -0.1657 -0.1352  0.2626
  124POPC   C4A 1917   8.026   2.173   6.813 -0.0575  0.1245 -0.1187
  124POPC   C1B 1918   8.356   1.392   7.282  0.1625 -0.0089 -0.0456
  124POPC   C2B 1919   8.371   1.689   6.951 -0.0897  0.0085  0.1205
  124POPC   C3B 1920   8.623   1.921   6.716  0.2421 -0.0861 -0.4360
  124POPC   C4B 1921   8.851   1.936   6.430 -0.2218 -0.2502  0.0010
  125POPC   NC3 1922   4.807   7.904   8.789  0.0154 -0.0429 -0.3995
  125POPC   PO4 1923   5.131   7.868   8.494  0.0037  0.2515 -0.3917
  125POPC   GL1 1924   5.252   7.814   8.189  0.0279  0.5075 -0.0566
  125POPC   GL2 1925   5.046   7.744   7.976  0.3171 -0.2714 -0.1221
  125POPC   C1A 1926   5.587   7.944   7.906  0.2430 -0.0689  0.1168
  125POPC   D2A 1927   5.602   7.896   7.460 -0.0258 -0.0300  0.4042
  125POPC   C3A 1928   5.778   7.845   7.062  0.0897 -0.1356  0.1995
  125POPC   C4A 1929   6.172   7.776   6.911  0.0361 -0.0162 -0.2303
  125POPC   C1B 1930   5.124   7.915   7.638 -0.3852 -0.0838 -0.0792
  125POPC   C2B 1931   5.207   8.064   7.122 -0.3040  0.0456  0.1695
  125POPC   C3B 1932   5.052   8.057   6.672 -0.1289 -0.0012 -0.1850
  125POPC   C4B 1933   4.724   7.919   6.413 -0.0107 -0.0163  0.0029
  126POPC   NC3 1934   8.676   6.559   8.711  0.1283  0.0336 -0.1711
  126POPC   PO4 1935   8.461   6.873   8.657 -0.1216  0.2768  0.1283
  126POPC   GL1 1936   8.463   6.797   8.197 -0.1355  0.2791  0.1588
  126POPC   GL2 1937   8.179   6.520   8.075 -0.2450  0.1626 -0.0120
  126POPC   C1A 1938   8.395   6.873   7.795  0.4274 -0.1204 -0.0491
  126POPC   D2A 1939   8.306   7.006   7.360 -0.2169 -0.1622 -0.1761
  126POPC   C3A 1940   8.076   6.866   6.999  0.1432  0.4973  0.0139
  126POPC   C4A 1941   7.768   6.483   6.738 -0.0240  0.2792  0.2944
  126POPC   C1B 1942   8.278   6.143   8.230 -0.2970 -0.0292  0.0437
  126POPC   C2B 1943   8.500   5.713   8.341 -0.2759 -0.3696  0.0868
  126POPC   C3B 1944   8.801   5.614   8.410 -0.1103 -0.0366  0.0262
  126POPC   C4B 1945   9.281   5.510   8.508  0.2014  0.0429 -0.0612
  127POPC   NC3 1946   6.120   9.399   9.069  0.0509 -0.0263 -0.0348
  127POPC   PO4 1947   6.090   9.680   8.703 -0.2356  0.0346 -0.2317
  127POPC   GL1 1948   5.964   9.464   8.303  0.2035  0.0319 -0.3606
  127POPC   GL2 1949   5.524   9.533   8.197 -0.3174 -0.1409  0.0112
  127POPC   C1A 1950   5.910   9.680   7.861  0.0563  0.2303  0.0220
  127POPC   D2A 1951   5.874   9.947   7.577 -0.0766  0.1129  0.1102
  127POPC   C3A 1952   5.695  10.317   7.614  0.1705  0.1568  0.1582
  127POPC   C4A 1953   5.300  10.487   7.802 -0.0622 -0.2847 -0.0671
  127POPC   C1B 1954   5.601   9.143   8.047 -0.1626 -0.1182  0.0377
  127POPC   C2B 1955   5.626   8.810   7.808  0.2147 -0.1523 -0.2956
  127POPC   C3B 1956   5.775   8.708   7.411 -0.1384 -0.2231  0.1214
  127POPC   C4B 1957   5.482   8.462   7.318  0.1841  0.3086 -0.2425
  128POPC   NC3 1958   9.837   3.142   9.610  0.0088  0.3635 -0.1140
  128POPC   PO4 1959   9.855   3.283   9.066  0.1917 -0.0894 -0.1887
  128POPC   GL1 1960   9.967   3.382   8.630  0.1167 -0.0002  0.3153
  128POPC   GL2 1961   9.671   3.249   8.314  0.0973  0.4803  0.1171
  128POPC   C1A 1962  10.145   3.581   8.187  0.0626  0.0516  0.0099
  128POPC   D2A 1963   9.992   3.752   7.770  0.2665 -0.1683 -0.3421
  128POPC   C3A 1964  10.036   3.590   7.326 -0.3184 -0.2247 -0.0212
  128POPC   C4A 1965   9.710   3.667   7.090 -0.0733  0.1434  0.0317
  128POPC   C1B 1966   9.708   3.033   8.000  0.0432  0.1537  0.0017
  128POPC   C2B 1967   9.508   2.739   7.731 -0.3663  0.2341 -0.2865
  128POPC   C3B 1968   9.605   2.639   7.301 -0.1828  0.1582 -0.2293
  128POPC   C4B 1969   9.385   2.833   7.057 -0.1772  0.3814  0.4579
  129POPC   NC3 1970   0.589   6.264   9.544 -0.1016 -0.2514  0.0367
  129POPC   PO4 1971   0.667   6.481   9.204  0.1906 -0.1357  0.2278
  129POPC   GL1 1972   0.881   6.206   9.037  0.0426  0.2857 -0.0648
  129POPC   GL2 1973   1.059   6.105   9.337 -0.1037 -0.1194  0.1769
  129POPC   C1A 1974   1.303   6.275   8.737  0.4228 -0.1266  0.1507
  129POPC   D2A 1975   1.284   6.352   8.315  0.1069 -0.0673  0.3133
  129POPC   C3A 1976   0.911   6.576   8.117  0.0282 -0.1960  0.4258
  129POPC   C4A 1977   0.820   6.891   7.848 -0.1165 -0.0621 -0.0666
  129POPC   C1B 1978   1.026   5.764   9.099  0.0455  0.0645  0.0272
  129POPC   C2B 1979   1.049   5.878   8.630  0.4353  0.1593 -0.1524
  129POPC   C3B 1980   0.868   5.991   8.292  0.1854 -0.3684  0.1518
  129POPC   C4B 1981   0.936   6.153   7.881 -0.1024  0.2998 -0.0732
  130POPC   NC3 1982   9.843   0.719   8.308 -0.1012  0.1233 -0.0310
  130POPC   PO4 1983   9.498   1.069   8.301  0.0318 -0.2999  0.1823
  130POPC   GL1 1984   9.274   1.058   7.915 -0.1648 -0.3475  0.2341
  130POPC   GL2 1985   9.133   0.817   7.721 -0.1890  0.0149 -0.3683
  130POPC   C1A 1986   9.446   1.192   7.519  0.1652 -0.1518  0.4186
  130POPC   D2A 1987   9.206   1.161   7.043  0.1860  0.1375  0.2716
  130POPC   C3A 1988   9.505   1.157   6.591 -0.3057 -0.5190 -0.0988
  130POPC   C4A 1989   9.727   1.187   6.267 -0.3513 -0.0647  0.1388
  130POPC   C1B 1990   9.459   0.698   7.339  0.3910 -0.1183  0.0372
  130POPC   C2B 1991   9.794   0.702   7.043 -0.0061  0.0102 -0.0583
  130POPC   C3B 1992  10.069   0.907   6.910 -0.1923  0.3845  0.1917
  130POPC   C4B 1993  10.087   1.247   6.698 -0.1457 -0.0252 -0.0284
  131POPC   NC3 1994   2.070   7.078   9.117 -0.3976  0.2901 -0.0008
  131POPC   PO4 1995   1.728   6.956   8.988 -0.0774  0.2279 -0.3561
  131POPC   GL1 1996   1.623   6.961   8.525  0.3005 -0.0442 -0.1940
  131POPC   GL2 1997   1.665   7.200   8.291 -0.3880  0.0104 -0.1053
  131POPC   C1A 1998   1.524   6.719   8.106 -0.1145  0.0598 -0.2798
  131POPC   D2A 1999   1.839   6.694   7.815  0.2203  0.1757  0.2897
  131POPC   C3A 2000   2.218   6.618   7.907 -0.1060 -0.1804  0.2263
  131POPC   C4A 2001   2.422   6.163   7.917 -0.2062 -0.0254 -0.1441
  131POPC   C1B 2002   1.309   7.202   7.921  0.5320 -0.1360  0.2288
  131POPC   C2B 2003   1.268   7.283   7.433  0.0724 -0.0618  0.0183
  131POPC   C3B 2004   1.523   7.319   7.033  0.2305 -0.0174 -0.1587
  131POPC   C4B 2005   1.588   7.452   6.628  0.0075  0.0831  0.4661
  132POPC   NC3 2006   7.300   0.918   8.654 -0.0123  0.0966  0.0349
  132POPC   PO4 2007   6.818   1.062   8.710 -0.1689 -0.4304 -0.1115
  132POPC   GL1 2008   6.766   1.190   8.288  0.1128  0.0671 -0.1625
  132POPC   GL2 2009   7.095   1.156   8.285  0.3892 -0.0507  0.0743
  132POPC   C1A 2010   6.808   1.054   7.899 -0.2392 -0.1200  0.0044
  132POPC   D2A 2011   6.912   1.074   7.469  0.1239  0.1243  0.0031
  132POPC   C3A 2012   7.270   1.201   7.275 -0.0912 -0.2083  0.0583
  132POPC   C4A 2013   7.253   1.433   6.936 -0.0808  0.0047 -0.0975
  132POPC   C1B 2014   7.412   1.093   7.975 -0.0161 -0.0437  0.2035
  132POPC   C2B 2015   7.665   0.992   7.697 -0.2676 -0.1738  0.2695
  132POPC   C3B 2016   7.886   1.075   7.372  0.2641 -0.3704 -0.1286
  132POPC   C4B 2017   7.989   1.296   7.005 -0.0786 -0.0267  0.2058
  133POPC   NC3 2018   3.123   3.975   9.337  0.0126  0.1006  0.2238
  133POPC   PO4 2019   2.766   3.793   9.255 -0.2046 -0.2416  0.0133
  133POPC   GL1 2020   2.530   3.779   8.858 -0.1683  0.2674  0.2589
  133POPC   GL2 2021   2.440   4.059   8.871 -0.1055 -0.0940 -0.1202
  133POPC   C1A 2022   2.731   3.691   8.416 -0.0339  0.1934 -0.0336
  133POPC   D2A 2023   2.747   3.680   7.957 -0.2883  0.0741  0.0336
  133POPC   C3A 2024   2.845   3.270   7.857  0.0094  0.0041 -0.1039
  133POPC   C4A 2025   2.849   3.107   7.375  0.1626  0.0744 -0.0904
  133POPC   C1B 2026   2.469   4.395   8.552 -0.1248  0.0580  0.2195
  133POPC   C2B 2027   2.357   4.839   8.463 -0.0087  0.1992  0.1682
  133POPC   C3B 2028   2.054   5.055   8.785 -0.2810 -0.1813 -0.1522
  133POPC   C4B 2029   1.631   5.191   8.855  0.1351  0.1479  0.3092
  134POPC   NC3 2030   6.462   7.430   8.681  0.2525  0.0396 -0.0616
  134POPC   PO4 2031   6.754   7.106   8.717  0.0150 -0.2940 -0.1661
  134POPC   GL1 2032   7.073   7.052   8.370  0.0994  0.0392 -0.1900
  134POPC   GL2 2033   7.239   7.247   8.264  0.1665  0.0040 -0.4145
  134POPC   C1A 2034   6.860   7.006   7.972 -0.3501  0.0993 -0.2072
  134POPC   D2A 2035   6.776   6.866   7.687 -0.0724 -0.0596  0.1348
  134POPC   C3A 2036   6.478   6.901   7.348 -0.0873 -0.1286  0.1791
  134POPC   C4A 2037   6.509   7.111   6.946  0.0725 -0.1394  0.0637
  134POPC   C1B 2038   7.132   7.496   7.875 -0.0980  0.0739  0.0555
  134POPC   C2B 2039   6.987   7.527   7.509 -0.0575  0.4388  0.1261
  134POPC   C3B 2040   6.946   7.134   7.266  0.1278  0.1020  0.1201
  134POPC   C4B 2041   7.001   6.945   6.883  0.2843 -0.0771 -0.2385
  135POPC   NC3 2042   9.210   9.599   8.444  0.1175 -0.3051  0.1437
  135POPC   PO4 2043   9.663   9.749   8.536 -0.1836 -0.3228 -0.3715
  135POPC   GL1 2044   9.763   9.596   8.129  0.0207 -0.1486  0.1636
  135POPC   GL2 2045   9.905   9.294   8.078  0.1697  0.2724 -0.0036
  135POPC   C1A 2046   9.746   9.543   7.735  0.0782  0.0669 -0.3009
  135POPC   D2A 2047   9.473   9.587   7.417  0.2071 -0.0318  0.0696
  135POPC   C3A 2048   9.339   9.949   7.538 -0.2854  0.1845  0.1009
  135POPC   C4A 2049   9.381  10.299   7.714  0.0959  0.1905 -0.1481
  135POPC   C1B 2050   9.988   9.108   7.736  0.1738 -0.2156 -0.0511
  135POPC   C2B 2051   9.961   9.159   7.357  0.2961  0.3877  0.0418
  135POPC   C3B 2052   9.750   9.367   7.035  0.1814  0.2977  0.0695
  135POPC   C4B 2053   9.457   9.799   6.906 -0.0694  0.0368  0.1018
  136POPC   NC3 2054   8.749   8.151   8.536 -0.0081  0.1793 -0.1659
  136POPC   PO4 2055   9.167   8.278   8.475 -0.0771 -0.1799  0.1133
  136POPC   GL1 2056   9.355   8.426   8.139 -0.0713  0.1522  0.2880
  136POPC   GL2 2057   9.323   8.172   7.832  0.5561 -0.1804 -0.2174
  136POPC   C1A 2058   9.742   8.506   7.899  0.1213  0.1448 -0.2182
  136POPC   D2A 2059  10.046   8.663   7.631 -0.1604 -0.1598  0.0713
  136POPC   C3A 2060  10.474   8.497   7.605  0.0502  0.2284 -0.0690
  136POPC   C4A 2061  10.884   8.373   7.693 -0.0135  0.4640 -0.0395
  136POPC   C1B 2062   9.395   8.271   7.434  0.0143 -0.2074 -0.1228
  136POPC   C2B 2063   9.446   8.278   7.032 -0.0125 -0.1095 -0.0066
  136POPC   C3B 2064   9.410   8.520   6.756  0.0561 -0.2967  0.0992
  136POPC   C4B 2065   9.156   8.848   6.561  0.1839  0.1307  0.0695
  137POPC   NC3 2066   1.865   9.203   8.194  0.0957  0.3507  0.3495
  137POPC   PO4 2067   2.146   9.007   8.148  0.0593 -0.3149 -0.0181
  137POPC   GL1 2068   2.089   8.889   7.771  0.1604 -0.5533  0.0876
  137POPC   GL2 2069   2.136   9.184   7.607  0.0320 -0.3376 -0.0091
  137POPC   C1A 2070   1.809   8.822   7.474  0.0698  0.0925  0.2192
  137POPC   D2A 2071   1.810   8.490   7.191  0.2346 -0.0985 -0.2746
  137POPC   C3A 2072   1.733   8.448   6.771  0.0492  0.1524 -0.2708
  137POPC   C4A 2073   1.856   8.324   6.427 -0.0257  0.0410 -0.1886
  137POPC   C1B 2074   2.310   8.852   7.352 -0.0331 -0.2645  0.2952
  137POPC   C2B 2075   2.739   8.698   7.254  0.0685  0.0242 -0.2107
  137POPC   C3B 2076   2.864   8.713   6.860 -0.0107  0.4037 -0.1135
  137POPC   C4B 2077   3.043   8.587   6.562 -0.1206  0.1460 -0.3976
  138POPC   NC3 2078   1.198   2.831   9.640  0.0737  0.1118  0.0194
  138POPC   PO4 2079   1.678   3.067   9.461 -0.1957 -0.0831  0.2290
  138POPC   GL1 2080   1.601   3.403   9.117 -0.0247  0.1212 -0.3634
  138POPC   GL2 2081   1.495   3.702   9.208  0.2417  0.1969 -0.0657
  138POPC   C1A 2082   1.575   3.600   8.710 -0.1540  0.1250  0.1502
  138POPC   D2A 2083   1.754   3.696   8.244  0.1864 -0.1399  0.0994
  138POPC   C3A 2084   1.535   3.657   7.890 -0.2900  0.4851 -0.1435
  138POPC   C4A 2085   1.424   3.542   7.455 -0.3164  0.0707 -0.2185
  138POPC   C1B 2086   1.132   3.830   8.926  0.2165 -0.1900  0.2941
  138POPC   C2B 2087   0.872   3.682   8.682  0.1293 -0.0614  0.1689
  138POPC   C3B 2088   0.721   3.623   8.273  0.1567  0.0663 -0.1173
  138POPC   C4B 2089   0.706   3.349   7.925  0.1463 -0.0994 -0.2397
  139POPC   NC3 2090   1.619   7.379   8.766 -0.0102 -0.1150 -0.1172
  139POPC   PO4 2091   2.026   7.553   8.992  0.2746 -0.0852 -0.1870
  139POPC   GL1 2092   2.118   7.277   8.567 -0.0046  0.4363  0.2790
  139POPC   GL2 2093   2.115   7.411   8.237  0.3353  0.0492 -0.0113
  139POPC   C1A 2094   2.079   6.871   8.299  0.1043  0.1657 -0.4336
  139POPC   D2A 2095   2.285   6.462   8.373  0.0781 -0.0904  0.2912
  139POPC   C3A 2096   2.392   5.976   8.380  0.0207  0.2294  0.3490
  139POPC   C4A 2097   2.487   5.600   8.407 -0.2092 -0.1275 -0.0989
  139POPC   C1B 2098   1.894   7.222   7.867  0.0917  0.0554  0.2934
  139POPC   C2B 2099   1.730   7.077   7.538 -0.0675  0.0560 -0.2730
  139POPC   C3B 2100   1.903   7.023   7.054  0.1208 -0.0644 -0.0001
  139POPC   C4B 2101   2.331   7.222   6.955  0.0750  0.2679 -0.0501
  140POPC   NC3 2102   5.166   6.597   8.509 -0.2263 -0.1022 -0.1313
  140POPC   PO4 2103   4.907   6.916   8.413  0.3483  0.0927  0.0281
  140POPC   GL1 2104   5.060   6.736   7.973  0.1772  0.0158 -0.1395
  140POPC   GL2 2105   5.254   6.993   7.873  0.1649 -0.2383 -0.0079
  140POPC   C1A 2106   4.932   6.468   7.786 -0.2166  0.0316  0.0299
  140POPC   D2A 2107   4.760   6.542   7.361  0.1272 -0.0965 -0.4001
  140POPC   C3A 2108   4.792   6.887   7.063  0.0774  0.1003 -0.0861
  140POPC   C4A 2109   4.804   7.242   7.134 -0.0236 -0.1459 -0.1198
  140POPC   C1B 2110   4.963   6.932   7.556 -0.4249 -0.2274  0.1517
  140POPC   C2B 2111   4.486   7.101   7.462  0.4018 -0.2473 -0.2212
  140POPC   C3B 2112   4.234   6.837   7.233 -0.1363 -0.1660  0.1433
  140POPC   C4B 2113   4.357   6.904   6.746 -0.2074 -0.1552 -0.1987
  141POPC   NC3 2114   2.382   9.060   8.545 -0.0612 -0.1837 -0.4602
  141POPC   PO4 2115   1.974   8.748   8.543 -0.3216  0.1458  0.1116
  141POPC   GL1 2116   1.799   8.581   8.129  0.0926  0.0138 -0.0264
  141POPC   GL2 2117   1.881   8.396   7.947 -0.1263  0.3985 -0.1086
  141POPC   C1A 2118   1.467   8.634   7.813  0.2996  0.0721  0.2516
  141POPC   D2A 2119   1.347   8.709   7.289  0.0697  0.1233 -0.0715
  141POPC   C3A 2120   1.653   8.954   7.038  0.0663 -0.0314 -0.0704
  141POPC   C4A 2121   1.992   8.870   6.911 -0.3112 -0.1756 -0.2373
  141POPC   C1B 2122   2.128   8.360   7.654  0.1343 -0.1630  0.1202
  141POPC   C2B 2123   2.230   8.132   7.236 -0.1833 -0.2153 -0.0450
  141POPC   C3B 2124   2.384   7.799   7.034  0.3246 -0.0094  0.2188
  141POPC   C4B 2125   2.785   7.751   6.780  0.0404 -0.0015  0.0601
  142POPC   NC3 2126   7.231   3.065   8.357 -0.2136  0.0202 -0.1956
  142POPC   PO4 2127   7.609   2.922   8.467 -0.0354 -0.0913 -0.1269
  142POPC   GL1 2128   7.623   3.004   8.022  0.0244 -0.0204 -0.0749
  142POPC   GL2 2129   7.664   3.384   7.814 -0.2348  0.2449 -0.1093
  142POPC   C1A 2130   7.786   2.803   7.648  0.2687 -0.0911 -0.0711
  142POPC   D2A 2131   7.459   2.576   7.321 -0.2418 -0.1260  0.0243
  142POPC   C3A 2132   7.564   2.407   7.024 -0.0004  0.1466 -0.0369
  142POPC   C4A 2133   7.523   2.655   6.528 -0.1206  0.1872  0.1309
  142POPC   C1B 2134   7.825   3.606   7.549  0.0142  0.3230 -0.2513
  142POPC   C2B 2135   7.984   3.518   7.150  0.2109  0.2063 -0.0552
  142POPC   C3B 2136   8.401   3.798   7.070  0.3091  0.0640 -0.0750
  142POPC   C4B 2137   8.755   4.037   7.033  0.2388  0.0052  0.0212
  143POPC   NC3 2138   7.772   4.312   9.346  0.2537  0.0513  0.1011
  143POPC   PO4 2139   7.784   4.369   8.933 -0.1422  0.2971 -0.1171
  143POPC   GL1 2140   7.910   4.599   8.599  0.2104  0.1727  0.3541
  143POPC   GL2 2141   8.217   4.413   8.404  0.1193  0.0186  0.2356
  143POPC   C1A 2142   7.724   4.629   8.111 -0.0879 -0.2120  0.3037
  143POPC   D2A 2143   7.887   4.475   7.745  0.1794  0.2476  0.1730
  143POPC   C3A 2144   7.791   4.584   7.217 -0.2928 -0.0082 -0.0413
  143POPC   C4A 2145   7.938   4.527   6.807 -0.0472  0.3579  0.2099
  143POPC   C1B 2146   8.129   4.195   8.035 -0.0827 -0.1432  0.0303
  143POPC   C2B 2147   8.212   4.093   7.620 -0.0549 -0.1528 -0.0634
  143POPC   C3B 2148   8.197   4.277   7.163  0.2579 -0.0850 -0.0731
  143POPC   C4B 2149   8.384   4.165   6.737 -0.0691 -0.2847 -0.1761
  144POPC   NC3 2150   3.829   7.388   8.596 -0.3511  0.0508  0.1812
  144POPC   PO4 2151   4.301   7.239   8.636 -0.0333  0.2076 -0.0392
  144POPC   GL1 2152   4.172   7.140   8.252  0.1827  0.2043  0.0545
  144POPC   GL2 2153   4.453   7.090   8.082 -0.2425 -0.0264 -0.3322
  144POPC   C1A 2154   3.939   7.059   7.888  0.3186 -0.1034  0.1349
  144POPC   D2A 2155   3.520   7.150   7.671 -0.1046 -0.0827  0.2040
  144POPC   C3A 2156   3.631   7.357   7.339  0.0761  0.1786  0.1554
  144POPC   C4A 2157   3.737   7.122   6.998  0.0418 -0.0726  0.0988
  144POPC   C1B 2158   4.648   7.252   7.933 -0.0708  0.0139 -0.3924
  144POPC   C2B 2159   4.727   7.554   7.587  0.1371  0.0483  0.0294
  144POPC   C3B 2160   4.834   7.770   7.245  0.0525 -0.3083  0.0181
  144POPC   C4B 2161   4.811   7.645   6.838  0.1474  0.2363 -0.2775
  145POPC   NC3 2162   6.505   5.622   8.437 -0.0667 -0.0419 -0.2907
  145POPC   PO4 2163   6.649   5.226   8.693 -0.1273 -0.0801  0.1583
  145POPC   GL1 2164   6.573   5.126   8.258  0.1647 -0.2068  0.0731
  145POPC   GL2 2165   6.691   5.202   7.921  0.1731  0.1202  0.1528
  145POPC   C1A 2166   6.692   4.699   7.997  0.0178 -0.2441 -0.1972
  145POPC   D2A 2167   6.724   4.816   7.582  0.1006 -0.1685 -0.2626
  145POPC   C3A 2168   7.092   5.041   7.355 -0.2039 -0.1347 -0.1846
  145POPC   C4A 2169   7.542   5.177   7.226 -0.2184 -0.1871 -0.0908
  145POPC   C1B 2170   6.760   5.353   7.596  0.1436  0.2263 -0.1973
  145POPC   C2B 2171   6.589   5.578   7.214  0.0410 -0.2012 -0.3292
  145POPC   C3B 2172   6.658   6.069   7.040  0.0783 -0.4699 -0.0927
  145POPC   C4B 2173   6.625   6.578   7.044  0.2389  0.0543 -0.1971
  146POPC   NC3 2174   5.597   1.313   8.614 -0.2621 -0.1974  0.0244
  146POPC   PO4 2175   5.108   1.308   8.627  0.1822  0.0726 -0.4161
  146POPC   GL1 2176   5.223   1.625   8.381  0.0366 -0.1742  0.0212
  146POPC   GL2 2177   5.119   1.917   8.327 -0.3142 -0.0449 -0.1657
  146POPC   C1A 2178   5.111   1.625   7.922 -0.2308  0.1832 -0.1518
  146POPC   D2A 2179   5.180   1.930   7.674 -0.1051  0.0369 -0.1944
  146POPC   C3A 2180   5.482   1.985   7.407 -0.1342  0.0129 -0.0228
  146POPC   C4A 2181   5.660   2.040   6.998 -0.1956  0.0377  0.0807
  146POPC   C1B 2182   5.288   2.299   8.031 -0.1002 -0.0350  0.1927
  146POPC   C2B 2183   5.205   2.448   7.574 -0.3816 -0.3664 -0.2795
  146POPC   C3B 2184   5.334   2.928   7.356 -0.1506 -0.3502  0.1245
  146POPC   C4B 2185   5.133   3.125   7.003 -0.4244 -0.1271  0.2792
  147POPC   NC3 2186   7.882   8.128   9.104  0.0088  0.1881 -0.1492
  147POPC   PO4 2187   7.828   7.941   8.725 -0.1481  0.0638 -0.2774
  147POPC   GL1 2188   7.717   8.174   8.385  0.0286 -0.0400  0.1960
  147POPC   GL2 2189   7.456   8.409   8.342  0.1669 -0.0953  0.2965
  147POPC   C1A 2190   7.790   8.215   8.019 -0.1543  0.1789  0.0769
  147POPC   D2A 2191   8.040   7.996   7.786 -0.0549 -0.0515  0.0127
  147POPC   C3A 2192   7.944   7.824   7.481 -0.1074  0.1223  0.1252
  147POPC   C4A 2193   7.640   7.791   7.115  0.1431 -0.2911  0.0211
  147POPC   C1B 2194   7.279   8.448   7.824 -0.0467  0.0269  0.0981
  147POPC   C2B 2195   7.458   8.783   7.616  0.1240 -0.0548  0.2215
  147POPC   C3B 2196   7.785   9.076   7.353  0.0343 -0.1510  0.2904
  147POPC   C4B 2197   8.036   9.496   7.434  0.0682  0.0617 -0.1045
  148POPC   NC3 2198   7.383   8.344   8.825 -0.0162  0.4705  0.1753
  148POPC   PO4 2199   7.142   8.654   8.726 -0.4047 -0.1042  0.0602
  148POPC   GL1 2200   6.999   8.742   8.368 -0.1569  0.1208 -0.1605
  148POPC   GL2 2201   6.975   9.111   8.366 -0.1367  0.0193  0.0312
  148POPC   C1A 2202   6.898   8.732   7.987 -0.2159 -0.3487  0.0860
  148POPC   D2A 2203   6.779   8.552   7.547 -0.1513 -0.2118  0.1303
  148POPC   C3A 2204   7.140   8.458   7.292  0.2950  0.0968 -0.0303
  148POPC   C4A 2205   7.526   8.120   7.457  0.2463 -0.2782  0.0066
  148POPC   C1B 2206   6.888   9.345   7.965 -0.3353  0.1653 -0.3184
  148POPC   C2B 2207   6.810   9.504   7.516  0.1873  0.2049 -0.1205
  148POPC   C3B 2208   6.920   9.741   7.273 -0.0534 -0.2923 -0.0475
  148POPC   C4B 2209   7.145  10.137   6.968 -0.0779  0.2526  0.0841
  149POPC   NC3 2210   2.892   2.221   8.936 -0.5215 -0.0119 -0.4842
  149POPC   PO4 2211   2.621   2.029   8.540  0.0183 -0.2481  0.1772
  149POPC   GL1 2212   2.430   1.984   8.234  0.3263 -0.2589  0.3435
  149POPC   GL2 2213   2.317   2.276   8.051 -0.4075 -0.0204 -0.2659
  149POPC   C1A 2214   2.381   1.840   7.810  0.1957 -0.0948  0.2883
  149POPC   D2A 2215   2.583   2.052   7.488 -0.2403  0.0791  0.1828
  149POPC   C3A 2216   2.675   1.846   7.045 -0.1061  0.2062  0.0754
  149POPC   C4A 2217   2.878   1.694   6.704 -0.1233 -0.3869 -0.0762
  149POPC   C1B 2218   2.281   2.414   7.654  0.0283  0.0615 -0.1972
  149POPC   C2B 2219   2.366   2.811   7.391 -0.0849 -0.1502 -0.0934
  149POPC   C3B 2220   2.387   3.238   7.633  0.1112  0.2994  0.1738
  149POPC   C4B 2221   2.616   3.582   7.493 -0.1110 -0.2090  0.1544
  150POPC   NC3 2222   3.927   7.607   4.142 -0.5211 -0.0588  0.2626
  150POPC   PO4 2223   3.675   7.953   4.363 -0.1820 -0.1315 -0.2333
  150POPC   GL1 2224   3.945   8.003   4.667 -0.1422 -0.2542  0.1264
  150POPC   GL2 2225   4.041   7.692   4.760 -0.3000 -0.1501 -0.0492
  150POPC   C1A 2226   3.938   7.928   5.186 -0.3609  0.2457  0.1579
  150POPC   D2A 2227   4.320   7.558   5.329 -0.4078  0.1258  0.5017
  150POPC   C3A 2228   4.426   7.600   5.777  0.0300 -0.0114  0.0811
  150POPC   C4A 2229   4.258   7.535   6.160 -0.2455  0.0073 -0.1432
  150POPC   C1B 2230   3.894   7.263   4.803  0.0325 -0.3110  0.2595
  150POPC   C2B 2231   3.856   7.028   5.077  0.2096  0.0354 -0.0570
  150POPC   C3B 2232   3.717   6.990   5.565  0.0853 -0.0926 -0.2827
  150POPC   C4B 2233   3.951   6.970   6.031  0.0455  0.1365 -0.0646
  151POPC   NC3 2234   2.546   9.717   4.326  0.0233  0.1645  0.1543
  151POPC   PO4 2235   2.846   9.552   4.615  0.2174 -0.4170  0.0489
  151POPC   GL1 2236   3.151   9.338   4.992  0.0757 -0.1387  0.1381
  151POPC   GL2 2237   3.409   9.448   5.047 -0.0554  0.3927  0.0949
  151POPC   C1A 2238   3.227   9.244   5.471 -0.1554 -0.0517  0.1532
  151POPC   D2A 2239   3.579   9.023   5.777 -0.3191  0.2009 -0.0617
  151POPC   C3A 2240   3.417   9.042   6.223  0.1801  0.2055  0.0583
  151POPC   C4A 2241   3.234   9.048   6.647  0.1634  0.0506 -0.0849
  151POPC   C1B 2242   3.744   9.238   5.304 -0.0054  0.0933 -0.3838
  151POPC   C2B 2243   4.025   9.333   5.634 -0.0259 -0.1703 -0.1519
  151POPC   C3B 2244   4.318   9.292   5.857 -0.1709  0.0208 -0.0553
  151POPC   C4B 2245   4.358   8.963   6.139  0.1372  0.2581  0.1659
  152POPC   NC3 2246   3.632   3.957   4.240  0.1111  0.2231  0.3182
  152POPC   PO4 2247   3.979   4.022   4.492 -0.1866 -0.1463 -0.2392
  152POPC   GL1 2248   3.651   3.923   4.781 -0.0895 -0.0368  0.0637
  152POPC   GL2 2249   3.548   4.275   4.599 -0.2929 -0.1889 -0.3437
  152POPC   C1A 2250   3.538   3.800   5.258  0.3078 -0.1681  0.1415
  152POPC   D2A 2251   3.410   3.610   5.626 -0.1298  0.0560 -0.1882
  152POPC   C3A 2252   3.630   3.459   5.940  0.0302 -0.2068 -0.0785
  152POPC   C4A 2253   3.815   3.128   6.068 -0.1061 -0.1635  0.1263
  152POPC   C1B 2254   3.472   4.304   5.055 -0.1074  0.1353 -0.0902
  152POPC   C2B 2255   3.359   4.246   5.451 -0.1769  0.1881 -0.1165
  152POPC   C3B 2256   3.261   4.128   5.836  0.1746 -0.0087 -0.0657
  152POPC   C4B 2257   3.268   4.190   6.254  0.0572  0.1217  0.3184
  153POPC   NC3 2258   3.771   0.695   4.911 -0.1391 -0.1828 -0.3356
  153POPC   PO4 2259   3.676   1.152   4.935 -0.0558 -0.0807 -0.1987
  153POPC   GL1 2260   3.600   1.166   5.388  0.0110  0.0278  0.0875
  153POPC   GL2 2261   3.695   0.823   5.381 -0.0531 -0.2533 -0.0594
  153POPC   C1A 2262   3.765   1.188   5.783 -0.1959  0.0336  0.2121
  153POPC   D2A 2263   3.954   1.193   6.170 -0.0644 -0.1100 -0.0611
  153POPC   C3A 2264   3.867   0.879   6.588  0.1623  0.2097 -0.1047
  153POPC   C4A 2265   3.627   0.761   6.998  0.2369  0.1422  0.2161
  153POPC   C1B 2266   3.569   0.574   5.701 -0.3578 -0.0124 -0.2156
  153POPC   C2B 2267   3.861   0.304   5.919 -0.0013  0.0062 -0.0002
  153POPC   C3B 2268   4.061   0.419   6.265  0.2757  0.2236  0.1773
  153POPC   C4B 2269   4.254   0.599   6.610 -0.0344 -0.0247  0.3933
  154POPC   NC3 2270   4.778   1.637   4.051 -0.0166  0.0092  0.2423
  154POPC   PO4 2271   4.952   1.753   4.485  0.1390  0.3850  0.0763
  154POPC   GL1 2272   4.927   1.921   4.829  0.3548 -0.0605 -0.2111
  154POPC   GL2 2273   4.625   2.126   4.812 -0.2696  0.3528  0.0122
  154POPC   C1A 2274   5.227   2.020   5.292 -0.3445  0.0651  0.1888
  154POPC   D2A 2275   5.371   2.341   5.506  0.3914 -0.4349  0.0932
  154POPC   C3A 2276   5.180   2.255   5.860  0.0134 -0.2650 -0.1780
  154POPC   C4A 2277   5.103   2.184   6.300 -0.1460 -0.0658 -0.0488
  154POPC   C1B 2278   4.631   1.923   5.261 -0.0809  0.1570  0.0542
  154POPC   C2B 2279   4.311   1.798   5.494  0.2392  0.2331  0.1805
  154POPC   C3B 2280   4.253   1.496   5.848  0.1686 -0.1563 -0.1080
  154POPC   C4B 2281   4.605   1.285   6.090 -0.3415 -0.1389  0.1479
  155POPC   NC3 2282   9.331   2.911   4.609  0.0263  0.0617 -0.1183
  155POPC   PO4 2283   9.377   2.487   4.732 -0.2124 -0.0997 -0.3124
  155POPC   GL1 2284   9.481   2.552   5.155  0.0532 -0.0987  0.1284
  155POPC   GL2 2285   9.614   2.890   5.051  0.1491 -0.5054  0.0223
  155POPC   C1A 2286   9.390   2.412   5.600 -0.2400  0.1704  0.2534
  155POPC   D2A 2287   9.121   2.341   6.005 -0.0278 -0.1206  0.1871
  155POPC   C3A 2288   9.177   2.351   6.395  0.1808 -0.1433 -0.1954
  155POPC   C4A 2289   9.249   2.313   6.936 -0.1173  0.1710  0.0425
  155POPC   C1B 2290   9.697   2.954   5.446 -0.2800 -0.0791 -0.2922
  155POPC   C2B 2291   9.890   2.780   5.902  0.0315  0.1044  0.0962
  155POPC   C3B 2292  10.190   2.585   6.194 -0.2870  0.0935 -0.1687
  155POPC   C4B 2293  10.298   2.348   6.544  0.2654 -0.3595 -0.2045
  156POPC   NC3 2294   8.426   2.804   4.793 -0.2461 -0.3965 -0.2986
  156POPC   PO4 2295   8.894   2.645   4.647 -0.1095  0.1378 -0.2089
  156POPC   GL1 2296   9.016   2.573   5.094 -0.1752 -0.2025  0.2270
  156POPC   GL2 2297   9.083   2.886   5.038  0.0348 -0.0094  0.4732
  156POPC   C1A 2298   8.945   2.474   5.559  0.2233 -0.0088  0.0084
  156POPC   D2A 2299   8.891   2.817   5.900 -0.3588 -0.2218  0.2227
  156POPC   C3A 2300   8.958   2.864   6.367 -0.2759 -0.0027 -0.1255
  156POPC   C4A 2301   9.158   2.788   6.574  0.1600 -0.0991  0.1276
  156POPC   C1B 2302   9.214   2.910   5.505 -0.0490  0.0655  0.1211
  156POPC   C2B 2303   9.347   2.805   6.005  0.0634 -0.0576  0.0670
  156POPC   C3B 2304   9.619   2.829   6.304 -0.2541  0.3467  0.2464
  156POPC   C4B 2305   9.616   3.088   6.613  0.0003  0.0779 -0.0665
  157POPC   NC3 2306   3.589   8.408   4.547 -0.1633  0.0256 -0.1101
  157POPC   PO4 2307   3.710   8.808   4.692 -0.0184 -0.1309  0.1786
  157POPC   GL1 2308   3.394   8.867   5.031 -0.0930  0.1511 -0.1676
  157POPC   GL2 2309   3.243   8.647   4.841 -0.0046  0.2388  0.0717
  157POPC   C1A 2310   3.294   8.766   5.391 -0.0390  0.1179 -0.3047
  157POPC   D2A 2311   3.345   8.383   5.694  0.1362 -0.0163 -0.0556
  157POPC   C3A 2312   3.672   8.423   5.918  0.0393 -0.3441  0.4926
  157POPC   C4A 2313   3.898   8.736   6.127  0.0591  0.0362 -0.0772
  157POPC   C1B 2314   3.137   8.362   5.089  0.0334  0.0969 -0.2009
  157POPC   C2B 2315   2.891   8.303   5.461 -0.0078  0.2985  0.0861
  157POPC   C3B 2316   2.888   8.104   5.922  0.0664 -0.0156  0.4200
  157POPC   C4B 2317   2.781   8.209   6.355  0.1295 -0.2682 -0.0405
  158POPC   NC3 2318   7.720   2.415   4.511  0.0791 -0.2928 -0.1627
  158POPC   PO4 2319   7.997   2.285   4.715 -0.2121 -0.1886 -0.0369
  158POPC   GL1 2320   8.011   2.378   5.136 -0.1400  0.0577 -0.1042
  158POPC   GL2 2321   8.186   2.579   5.215  0.0783  0.2160 -0.1319
  158POPC   C1A 2322   7.962   2.210   5.563 -0.1461  0.1392  0.3132
  158POPC   D2A 2323   7.763   2.396   5.913  0.0525 -0.0111 -0.0816
  158POPC   C3A 2324   7.769   2.127   6.373  0.1780  0.1775  0.0154
  158POPC   C4A 2325   7.870   1.712   6.667  0.1367 -0.0275  0.2178
  158POPC   C1B 2326   8.365   2.442   5.608  0.0538  0.1457  0.0285
  158POPC   C2B 2327   8.499   2.380   5.951 -0.0134  0.0981 -0.0711
  158POPC   C3B 2328   8.697   2.468   6.360  0.1817 -0.0165  0.0344
  158POPC   C4B 2329   8.724   2.503   6.809 -0.2652  0.3078 -0.0815
  159POPC   NC3 2330   6.566   4.035   4.797  0.0294 -0.0431  0.2158
  159POPC   PO4 2331   6.295   4.352   4.995 -0.1988  0.0827  0.0766
  159POPC   GL1 2332   6.423   4.646   5.171 -0.0181  0.0121  0.0552
  159POPC   GL2 2333   6.290   4.988   5.191 -0.1105  0.0230 -0.2652
  159POPC   C1A 2334   6.679   4.800   5.556 -0.0495  0.0408  0.2160
  159POPC   D2A 2335   6.689   4.682   5.978  0.1492  0.0379  0.0807
  159POPC   C3A 2336   6.951   4.720   6.265 -0.0562 -0.2553 -0.0340
  159POPC   C4A 2337   6.948   4.487   6.661 -0.0286  0.0487 -0.1146
  159POPC   C1B 2338   6.217   4.639   5.608 -0.2675 -0.0712  0.2982
  159POPC   C2B 2339   5.984   4.399   5.865  0.1058  0.0222  0.2844
  159POPC   C3B 2340   5.706   4.195   6.137  0.3272 -0.0650  0.1152
  159POPC   C4B 2341   5.298   4.090   6.369 -0.1780  0.0277  0.0317
  160POPC   NC3 2342   8.338   1.069   4.651  0.0705  0.1186  0.1609
  160POPC   PO4 2343   8.395   1.488   4.742  0.3141  0.1794  0.0946
  160POPC   GL1 2344   8.372   1.484   5.197 -0.2236 -0.0665  0.1080
  160POPC   GL2 2345   8.151   1.573   5.390 -0.0801 -0.0809 -0.0853
  160POPC   C1A 2346   8.654   1.594   5.558 -0.0268  0.0458  0.0223
  160POPC   D2A 2347   8.580   1.653   6.006  0.1591  0.1026 -0.1629
  160POPC   C3A 2348   8.810   1.539   6.202 -0.0287  0.1392 -0.0567
  160POPC   C4A 2349   8.989   1.355   6.581  0.0432 -0.3425  0.0944
  160POPC   C1B 2350   8.111   1.446   5.770 -0.3744 -0.2131  0.0308
  160POPC   C2B 2351   8.365   1.155   6.126  0.1203  0.4882  0.0013
  160POPC   C3B 2352   8.574   1.104   6.475  0.1930  0.3384 -0.0487
  160POPC   C4B 2353   8.774   0.794   6.659 -0.0114 -0.1754  0.2761
  161POPC   NC3 2354   4.160   5.081   4.587 -0.1193  0.0806  0.4435
  161POPC   PO4 2355   3.968   5.463   4.554 -0.2751 -0.1247 -0.0106
  161POPC   GL1 2356   3.977   5.407   5.016  0.2694 -0.0818  0.4012
  161POPC   GL2 2357   3.900   5.041   5.021 -0.2512 -0.0312  0.0963
  161POPC   C1A 2358   3.995   5.594   5.406 -0.1044 -0.0116 -0.0306
  161POPC   D2A 2359   3.832   5.432   5.850 -0.1564  0.0689 -0.1842
  161POPC   C3A 2360   4.052   5.614   6.145 -0.2867 -0.2587 -0.2252
  161POPC   C4A 2361   4.321   5.602   6.584  0.0551 -0.1119 -0.1559
  161POPC   C1B 2362   3.832   5.086   5.479  0.1332 -0.1269  0.1540
  161POPC   C2B 2363   3.537   5.056   5.848  0.0041 -0.0198  0.1696
  161POPC   C3B 2364   3.269   5.280   6.149 -0.0725  0.1742 -0.1909
  161POPC   C4B 2365   3.158   5.418   6.577 -0.0262 -0.0606 -0.1131
  162POPC   NC3 2366   6.067   9.136   4.905  0.0503  0.1758 -0.2524
  162POPC   PO4 2367   5.689   9.165   4.659 -0.1375  0.0217  0.0544
  162POPC   GL1 2368   5.647   9.239   5.186 -0.0045 -0.2834 -0.2868
  162POPC   GL2 2369   5.464   8.983   5.317  0.1450  0.1909  0.1584
  162POPC   C1A 2370   5.555   9.470   5.510 -0.0050  0.0488 -0.3057
  162POPC   D2A 2371   5.452   9.363   5.996  0.0343  0.0242  0.0972
  162POPC   C3A 2372   5.392   9.071   6.306  0.1507  0.0234 -0.1751
  162POPC   C4A 2373   5.308   9.076   6.639  0.4554 -0.3035 -0.0398
  162POPC   C1B 2374   5.453   8.896   5.830  0.4111 -0.0983  0.3517
  162POPC   C2B 2375   5.656   8.659   6.252  0.0436  0.0796  0.3691
  162POPC   C3B 2376   5.784   8.840   6.686  0.1195 -0.1981  0.1712
  162POPC   C4B 2377   6.131   8.922   7.021 -0.0584 -0.0470  0.1343
  163POPC   NC3 2378   9.781   3.964   3.866  0.1433 -0.0581  0.2022
  163POPC   PO4 2379  10.044   4.344   3.824 -0.0732  0.1406 -0.2865
  163POPC   GL1 2380  10.105   4.297   4.233  0.1646  0.1358 -0.4724
  163POPC   GL2 2381   9.927   4.558   4.371 -0.2285  0.0581 -0.3679
  163POPC   C1A 2382  10.080   4.024   4.575  0.1686 -0.0061  0.0814
  163POPC   D2A 2383   9.902   3.836   4.959  0.0625 -0.2658  0.0374
  163POPC   C3A 2384   9.650   3.933   5.274 -0.0017  0.0478  0.0754
  163POPC   C4A 2385   9.537   4.197   5.573 -0.0385  0.2167 -0.0367
  163POPC   C1B 2386   9.959   4.439   4.786 -0.3019  0.1144 -0.0800
  163POPC   C2B 2387   9.709   4.534   5.106 -0.4303  0.2672 -0.0236
  163POPC   C3B 2388   9.948   4.913   5.297 -0.1291 -0.2060 -0.0243
  163POPC   C4B 2389   9.935   5.160   5.693  0.5520  0.0139 -0.1203
  164POPC   NC3 2390   3.178   7.824   4.214 -0.0710  0.0087  0.1356
  164POPC   PO4 2391   3.483   7.474   3.978 -0.1222 -0.1486  0.0302
  164POPC   GL1 2392   3.578   7.477   4.431  0.0592 -0.2662  0.2254
  164POPC   GL2 2393   3.482   7.553   4.691  0.2716 -0.1411  0.0511
  164POPC   C1A 2394   3.391   7.031   4.677  0.1657 -0.2537 -0.0854
  164POPC   D2A 2395   3.100   6.807   4.983  0.2347 -0.0479 -0.1336
  164POPC   C3A 2396   3.125   6.790   5.420 -0.1725  0.0157 -0.0425
  164POPC   C4A 2397   3.306   6.818   5.929  0.1143  0.0404  0.0146
  164POPC   C1B 2398   3.592   7.642   5.040  0.1577  0.5708  0.0548
  164POPC   C2B 2399   3.843   7.454   5.300 -0.0483 -0.0088  0.2701
  164POPC   C3B 2400   3.826   7.508   5.810  0.1663 -0.1992  0.2339
  164POPC   C4B 2401   3.637   7.318   6.241 -0.1899  0.0847 -0.1746
  165POPC   NC3 2402   4.710   6.390   4.521 -0.2017 -0.1907  0.1281
  165POPC   PO4 2403   5.086   6.468   4.827 -0.0963 -0.0150  0.0514
  165POPC   GL1 2404   5.261   6.464   5.119  0.2874 -0.0333 -0.1039
  165POPC   GL2 2405   5.218   6.207   5.290  0.1657  0.0689 -0.2166
  165POPC   C1A 2406   5.468   6.739   5.381 -0.0091 -0.0003 -0.2894
  165POPC   D2A 2407   5.549   7.143   5.605  0.1767 -0.1392  0.4487
  165POPC   C3A 2408   5.420   7.330   5.983 -0.0912  0.3471 -0.1404
  165POPC   C4A 2409   5.179   7.566   6.268 -0.2743 -0.0035 -0.0544
  165POPC   C1B 2410   5.145   6.431   5.673  0.2791 -0.0656  0.2740
  165POPC   C2B 2411   5.385   6.444   5.983  0.0523 -0.1735 -0.0513
  165POPC   C3B 2412   5.562   6.089   6.148 -0.0734 -0.2143 -0.2213
  165POPC   C4B 2413   5.941   5.947   6.080  0.0461  0.0035 -0.0432
  166POPC   NC3 2414   1.235   7.694   3.924  0.0191  0.0895  0.0428
  166POPC   PO4 2415   0.793   7.650   4.027  0.0316 -0.2426  0.1592
  166POPC   GL1 2416   0.952   7.270   3.872  0.0808  0.0598 -0.1340
  166POPC   GL2 2417   1.264   7.199   3.758  0.0292 -0.0783  0.0857
  166POPC   C1A 2418   1.089   6.762   3.861  0.4931  0.1650  0.0415
  166POPC   D2A 2419   1.254   6.307   4.055  0.0838  0.0152  0.0224
  166POPC   C3A 2420   0.940   6.163   4.264 -0.1020 -0.1142  0.0374
  166POPC   C4A 2421   0.940   5.918   4.736  0.0603 -0.3732 -0.1340
  166POPC   C1B 2422   1.380   7.167   4.195  0.1954 -0.2888 -0.0342
  166POPC   C2B 2423   1.348   7.133   4.629  0.4728 -0.0531  0.2164
  166POPC   C3B 2424   1.154   6.882   4.897 -0.0761  0.1057 -0.1713
  166POPC   C4B 2425   1.062   6.634   5.252 -0.0816  0.1556 -0.1187
  167POPC   NC3 2426   8.798   8.919   4.987 -0.5321 -0.0874 -0.1659
  167POPC   PO4 2427   8.324   9.185   4.948 -0.0386 -0.2338 -0.0640
  167POPC   GL1 2428   8.374   8.936   5.275 -0.0403 -0.1230  0.1150
  167POPC   GL2 2429   8.455   8.592   5.234  0.1992  0.0168  0.0813
  167POPC   C1A 2430   8.436   9.028   5.689  0.0472  0.2567  0.1828
  167POPC   D2A 2431   8.514   9.138   6.085 -0.0132 -0.0645 -0.5213
  167POPC   C3A 2432   8.559   9.571   6.227 -0.0574  0.1505 -0.1495
  167POPC   C4A 2433   8.210   9.841   6.395  0.1249 -0.1695  0.0131
  167POPC   C1B 2434   8.694   8.620   5.703 -0.2148 -0.1517  0.0308
  167POPC   C2B 2435   8.770   8.730   6.211  0.0461 -0.2812 -0.0303
  167POPC   C3B 2436   8.653   8.761   6.579 -0.2951 -0.2751 -0.2445
  167POPC   C4B 2437   8.814   8.990   6.933  0.0389 -0.0195 -0.1494
  168POPC   NC3 2438   4.071   2.036   4.799  0.0101  0.1656  0.3732
  168POPC   PO4 2439   4.220   2.303   4.517 -0.2742 -0.0388 -0.1844
  168POPC   GL1 2440   4.352   2.493   4.938  0.3378 -0.2496 -0.1408
  168POPC   GL2 2441   4.277   2.288   5.204 -0.4409  0.2514  0.4034
  168POPC   C1A 2442   4.018   2.662   5.312 -0.1090 -0.1747 -0.1361
  168POPC   D2A 2443   4.100   2.871   5.681  0.0628  0.0050 -0.2018
  168POPC   C3A 2444   4.216   2.739   6.082 -0.0196  0.1948 -0.2230
  168POPC   C4A 2445   4.057   2.772   6.393  0.1470 -0.1305  0.0635
  168POPC   C1B 2446   4.180   2.368   5.655  0.1304  0.0922 -0.1039
  168POPC   C2B 2447   4.099   2.020   5.888 -0.1334 -0.0675  0.0230
  168POPC   C3B 2448   4.327   1.744   6.240 -0.0656 -0.3376  0.0973
  168POPC   C4B 2449   4.578   1.629   6.548 -0.3551  0.0701  0.2762
  169POPC   NC3 2450   5.401   5.477   4.430 -0.1037  0.0346 -0.0926
  169POPC   PO4 2451   5.578   5.596   4.796 -0.0255  0.3781  0.3168
  169POPC   GL1 2452   5.455   5.678   5.186 -0.1195  0.0236 -0.2054
  169POPC   GL2 2453   5.685   5.705   5.485  0.0171  0.0477 -0.0975
  169POPC   C1A 2454   5.219   5.568   5.502 -0.1319  0.1287  0.1340
  169POPC   D2A 2455   4.965   5.687   5.826 -0.0012  0.0433  0.0886
  169POPC   C3A 2456   4.792   6.018   5.605  0.0011  0.1217 -0.0652
  169POPC   C4A 2457   4.341   6.161   5.650  0.0825 -0.1552 -0.0582
  169POPC   C1B 2458   5.856   5.342   5.847  0.2311 -0.1984  0.2111
  169POPC   C2B 2459   6.180   5.207   5.893  0.0725  0.1089  0.0286
  169POPC   C3B 2460   6.370   4.998   6.277  0.0611  0.0353  0.0360
  169POPC   C4B 2461   6.495   4.752   6.617 -0.0464  0.0941 -0.1175
  170POPC   NC3 2462   0.669   2.991   2.880 -0.0571 -0.0471  0.2482
  170POPC   PO4 2463   0.642   3.344   3.326  0.2278 -0.2143 -0.1063
  170POPC   GL1 2464   0.869   3.634   3.715 -0.0015 -0.0141  0.0130
  170POPC   GL2 2465   0.855   3.549   4.084  0.0474 -0.1047  0.2954
  170POPC   C1A 2466   0.795   4.002   4.038  0.0712 -0.1632  0.1732
  170POPC   D2A 2467   0.740   4.263   4.334  0.1704 -0.0212  0.0260
  170POPC   C3A 2468   0.904   4.676   4.308 -0.1574 -0.2803 -0.3745
  170POPC   C4A 2469   1.155   4.880   4.043  0.0493 -0.1683  0.2408
  170POPC   C1B 2470   0.644   3.757   4.510 -0.0057 -0.3032 -0.3040
  170POPC   C2B 2471   0.588   4.075   4.747 -0.0371 -0.0787  0.2030
  170POPC   C3B 2472   0.677   4.093   5.197  0.0333  0.1413 -0.0241
  170POPC   C4B 2473   0.890   3.844   5.565  0.0850  0.0170  0.2367
  171POPC   NC3 2474   5.681   9.653   4.905 -0.0129 -0.0404  0.2387
  171POPC   PO4 2475   5.709  10.028   5.130 -0.0570 -0.1530  0.1771
  171POPC   GL1 2476   5.738  10.122   5.451  0.1147 -0.1682 -0.0049
  171POPC   GL2 2477   5.338  10.139   5.496 -0.0028  0.4845  0.0750
  171POPC   C1A 2478   5.615   9.895   5.835 -0.1737 -0.0464 -0.1190
  171POPC   D2A 2479   5.570   9.908   6.203  0.0294  0.1044 -0.1696
  171POPC   C3A 2480   5.186  10.131   6.443 -0.0461  0.0266 -0.0057
  171POPC   C4A 2481   4.901   9.902   6.593 -0.3672 -0.2770  0.1884
  171POPC   C1B 2482   5.358  10.290   5.853 -0.1335 -0.0408  0.2621
  171POPC   C2B 2483   5.400  10.630   6.171  0.1088  0.0666  0.2436
  171POPC   C3B 2484   5.226  10.650   6.550 -0.0472 -0.1504 -0.0452
  171POPC   C4B 2485   5.048  10.291   6.867 -0.0497 -0.0196  0.3566
  172POPC   NC3 2486   7.850   4.203   4.525 -0.1323 -0.0765  0.0934
  172POPC   PO4 2487   7.987   4.499   4.748 -0.1456  0.1861  0.1107
  172POPC   GL1 2488   7.976   4.463   5.151  0.1541  0.1034  0.0779
  172POPC   GL2 2489   8.302   4.274   5.289  0.3547 -0.3403  0.2630
  172POPC   C1A 2490   8.065   4.645   5.597  0.2437 -0.0695  0.1704
  172POPC   D2A 2491   7.971   4.892   5.913 -0.2611  0.2850  0.0897
  172POPC   C3A 2492   7.792   4.715   6.220  0.4996 -0.3835  0.0872
  172POPC   C4A 2493   7.457   4.594   6.473 -0.0487 -0.1054  0.0158
  172POPC   C1B 2494   8.377   3.980   5.642 -0.0877  0.3221  0.0242
  172POPC   C2B 2495   8.458   3.737   5.924 -0.2138  0.1377 -0.3167
  172POPC   C3B 2496   8.358   3.904   6.318  0.2168  0.0834  0.0980
  172POPC   C4B 2497   8.064   3.722   6.658  0.3079 -0.0951 -0.1904
  173POPC   NC3 2498   9.336   3.551   4.145 -0.2178  0.0559 -0.0271
  173POPC   PO4 2499   9.225   3.395   4.476  0.0447 -0.1364 -0.1063
  173POPC   GL1 2500   9.419   3.351   4.915  0.3528 -0.0217  0.0780
  173POPC   GL2 2501   9.307   3.316   5.149  0.5701  0.1194 -0.1076
  173POPC   C1A 2502   9.888   3.345   5.014 -0.2798 -0.0551  0.1025
  173POPC   D2A 2503  10.192   3.085   5.312  0.1275  0.1993 -0.2087
  173POPC   C3A 2504  10.083   3.154   5.706  0.0251 -0.4175 -0.0205
  173POPC   C4A 2505  10.030   3.325   6.144 -0.0351  0.0779  0.0496
  173POPC   C1B 2506   9.596   3.440   5.444  0.0880 -0.3419 -0.0489
  173POPC   C2B 2507   9.597   3.326   5.801  0.0118  0.1068 -0.0050
  173POPC   C3B 2508   9.341   3.328   6.104 -0.0957  0.1106 -0.0800
  173POPC   C4B 2509   9.089   3.345   6.493  0.0278  0.1149 -0.0061
  174POPC   NC3 2510   3.143   8.688   4.323  0.2084  0.0242 -0.0061
  174POPC   PO4 2511   3.246   8.321   4.185 -0.0073 -0.0212  0.1599
  174POPC   GL1 2512   3.131   8.188   4.585 -0.2517 -0.0580  0.1256
  174POPC   GL2 2513   3.348   8.012   4.789 -0.1960 -0.2158  0.0309
  174POPC   C1A 2514   2.716   8.104   4.744  0.0675  0.2336  0.2329
  174POPC   D2A 2515   2.595   7.943   5.133  0.0256  0.2004 -0.0700
  174POPC   C3A 2516   2.660   7.574   5.264  0.0198  0.0316  0.0603
  174POPC   C4A 2517   2.762   7.199   5.328 -0.1029 -0.0688  0.2376
  174POPC   C1B 2518   3.086   7.900   5.134  0.2798  0.0923  0.1063
  174POPC   C2B 2519   3.214   7.696   5.408 -0.1232 -0.1288 -0.4264
  174POPC   C3B 2520   3.317   7.775   5.932  0.2346  0.3647 -0.0511
  174POPC   C4B 2521   3.331   8.123   6.158 -0.1570  0.2067 -0.1489
  175POPC   NC3 2522   4.268   6.235   3.915  0.0782  0.0117  0.0097
  175POPC   PO4 2523   4.195   6.183   4.345 -0.2544  0.1203  0.0140
  175POPC   GL1 2524   4.066   6.129   4.720 -0.1041 -0.1197 -0.2952
  175POPC   GL2 2525   3.882   5.914   4.894  0.0175 -0.0126 -0.1568
  175POPC   C1A 2526   3.729   6.363   4.896 -0.1673  0.4113  0.0189
  175POPC   D2A 2527   3.564   6.631   5.279 -0.1087 -0.1925  0.1916
  175POPC   C3A 2528   3.381   6.328   5.572 -0.4056  0.3326 -0.1508
  175POPC   C4A 2529   3.148   6.313   6.033 -0.2658  0.1475 -0.2270
  175POPC   C1B 2530   3.981   6.085   5.311  0.2221 -0.0817  0.0705
  175POPC   C2B 2531   3.844   6.037   5.761 -0.0340 -0.0470 -0.4845
  175POPC   C3B 2532   3.897   6.148   6.204 -0.0783 -0.1245  0.2446
  175POPC   C4B 2533   4.062   6.059   6.605  0.0222 -0.1286 -0.1233
  176POPC   NC3 2534   7.553   4.879   4.258  0.2102  0.0654  0.3432
  176POPC   PO4 2535   7.620   5.201   4.610 -0.3347  0.2173 -0.0437
  176POPC   GL1 2536   7.832   5.323   4.944  0.1287 -0.3275 -0.2359
  176POPC   GL2 2537   8.057   4.977   4.897 -0.0024 -0.0219 -0.2406
  176POPC   C1A 2538   7.614   5.510   5.295  0.0046  0.1875  0.1446
  176POPC   D2A 2539   7.412   5.785   5.556 -0.1132  0.0956 -0.0217
  176POPC   C3A 2540   7.425   5.711   5.957 -0.1080  0.0542 -0.0450
  176POPC   C4A 2541   7.386   5.559   6.397  0.1798 -0.0236  0.3254
  176POPC   C1B 2542   8.378   4.877   5.262 -0.1273 -0.0084  0.0289
  176POPC   C2B 2543   8.535   4.684   5.600 -0.4402 -0.2507  0.1024
  176POPC   C3B 2544   8.733   4.749   6.026 -0.3122  0.4210 -0.3743
  176POPC   C4B 2545   8.865   5.016   6.291  0.0403 -0.1541 -0.0304
  177POPC   NC3 2546   3.295   5.340   3.200 -0.2584 -0.2982 -0.0401
  177POPC   PO4 2547   2.997   5.279   3.423  0.0917  0.0009 -0.1211
  177POPC   GL1 2548   2.814   5.252   3.749 -0.1673 -0.1736 -0.1921
  177POPC   GL2 2549   2.725   5.500   3.860  0.0148  0.0046 -0.1599
  177POPC   C1A 2550   2.816   5.001   4.045 -0.0209 -0.0715 -0.0838
  177POPC   D2A 2551   3.048   4.946   4.492  0.3158 -0.1182  0.1781
  177POPC   C3A 2552   3.176   5.184   4.845  0.1864  0.0386  0.5237
  177POPC   C4A 2553   3.519   5.393   5.154 -0.1439  0.2900  0.0086
  177POPC   C1B 2554   2.638   5.736   4.220 -0.0061  0.1057  0.0534
  177POPC   C2B 2555   2.459   5.752   4.608 -0.0957  0.1182  0.2812
  177POPC   C3B 2556   2.303   5.529   4.805  0.2769  0.2069 -0.0865
  177POPC   C4B 2557   2.066   5.207   5.093 -0.4383  0.1826  0.0846
  178POPC   NC3 2558   5.928   3.067   4.716 -0.0315 -0.0913 -0.1405
  178POPC   PO4 2559   5.734   2.692   4.720 -0.1828  0.1539 -0.0443
  178POPC   GL1 2560   5.876   2.775   5.123  0.0153 -0.1671  0.3100
  178POPC   GL2 2561   6.055   2.494   5.122  0.4294 -0.0608 -0.3544
  178POPC   C1A 2562   6.034   2.984   5.432  0.2247  0.0189 -0.0317
  178POPC   D2A 2563   5.997   3.358   5.653  0.2632 -0.0984  0.4829
  178POPC   C3A 2564   6.207   3.318   5.997 -0.1638  0.1591 -0.0144
  178POPC   C4A 2565   6.319   3.033   6.261 -0.0976  0.0261  0.0231
  178POPC   C1B 2566   6.000   2.529   5.595 -0.3251  0.0418 -0.1593
  178POPC   C2B 2567   5.680   2.389   5.901 -0.1041 -0.2189 -0.2001
  178POPC   C3B 2568   5.432   2.531   6.201  0.0533 -0.3775  0.1322
  178POPC   C4B 2569   5.472   2.722   6.552  0.1365 -0.0920 -0.3129
  179POPC   NC3 2570   0.348   9.703   4.176 -0.0091  0.2881 -0.0983
  179POPC   PO4 2571   0.523   9.473   4.508  0.1536  0.4026  0.0980
  179POPC   GL1 2572   0.263   9.521   4.948 -0.3233  0.0808  0.1208
  179POPC   GL2 2573   0.506   9.491   5.135 -0.2688  0.2400  0.0147
  179POPC   C1A 2574   0.033   9.852   5.296  0.0874 -0.0970  0.0344
  179POPC   D2A 2575  -0.352   9.867   5.551 -0.2187  0.1808  0.0219
  179POPC   C3A 2576  -0.628  10.156   5.582  0.2092 -0.2434  0.2872
  179POPC   C4A 2577  -0.762  10.512   5.852  0.1077  0.0550 -0.0161
  179POPC   C1B 2578   0.707   9.138   5.244 -0.0352 -0.1972 -0.0134
  179POPC   C2B 2579   0.855   8.898   5.643 -0.1753 -0.1723  0.0674
  179POPC   C3B 2580   0.881   8.947   6.052 -0.0269  0.3466 -0.0957
  179POPC   C4B 2581   1.190   9.152   6.187 -0.1735  0.0021  0.1514
  180POPC   NC3 2582   7.228   8.907   4.678  0.0874 -0.0660 -0.0943
  180POPC   PO4 2583   6.992   9.191   4.999 -0.1744  0.0800 -0.1003
  180POPC   GL1 2584   7.174   8.891   5.358  0.1331  0.1111  0.3456
  180POPC   GL2 2585   7.057   8.615   5.303  0.1765  0.0977 -0.0789
  180POPC   C1A 2586   7.273   9.039   5.783 -0.0775  0.0922  0.0378
  180POPC   D2A 2587   7.368   9.039   6.177 -0.2227  0.0276 -0.3875
  180POPC   C3A 2588   7.492   9.312   6.523 -0.2263  0.1042 -0.2650
  180POPC   C4A 2589   7.787   9.211   6.918  0.2805  0.0743  0.2391
  180POPC   C1B 2590   7.158   8.548   5.734 -0.1668  0.1194 -0.2015
  180POPC   C2B 2591   7.041   8.549   6.201  0.1460 -0.0140  0.1117
  180POPC   C3B 2592   6.728   8.558   6.511 -0.3362  0.0575  0.2492
  180POPC   C4B 2593   6.262   8.737   6.570  0.4590 -0.2620  0.3613
  181POPC   NC3 2594   2.043   2.778   4.116  0.2037 -0.1585  0.1097
  181POPC   PO4 2595   1.572   2.851   4.140  0.0544  0.1390  0.0869
  181POPC   GL1 2596   1.453   3.000   4.554  0.1734 -0.3420 -0.1544
  181POPC   GL2 2597   1.184   2.793   4.734  0.1558 -0.0822  0.2362
  181POPC   C1A 2598   1.549   3.319   4.844 -0.1275  0.1173 -0.4932
  181POPC   D2A 2599   1.733   3.811   4.847  0.1795  0.0940 -0.0165
  181POPC   C3A 2600   1.730   4.084   4.524 -0.3098  0.1009  0.4358
  181POPC   C4A 2601   1.831   4.378   4.159 -0.1131  0.4161  0.1677
  181POPC   C1B 2602   1.439   2.851   5.017  0.0373  0.2127 -0.0838
  181POPC   C2B 2603   1.749   3.014   5.166 -0.3431 -0.0194 -0.2887
  181POPC   C3B 2604   1.722   3.446   5.306  0.0036 -0.0002  0.0946
  181POPC   C4B 2605   2.090   3.818   5.204 -0.1001  0.2411 -0.3286
  182POPC   NC3 2606   0.679   2.445   4.275 -0.0195 -0.0120 -0.1008
  182POPC   PO4 2607   0.780   1.884   4.362 -0.0449  0.1726  0.1909
  182POPC   GL1 2608   0.885   2.003   4.748  0.3048  0.3065 -0.0452
  182POPC   GL2 2609   0.945   2.254   4.652  0.1414  0.1108 -0.0145
  182POPC   C1A 2610   0.798   2.031   5.202  0.0398 -0.3489  0.1416
  182POPC   D2A 2611   0.695   2.013   5.566  0.2507  0.2661  0.0202
  182POPC   C3A 2612   0.830   2.456   5.828 -0.1385 -0.2176  0.2934
  182POPC   C4A 2613   0.919   2.819   5.962 -0.0128  0.3683  0.0777
  182POPC   C1B 2614   1.129   2.425   5.078  0.0738  0.3580 -0.0154
  182POPC   C2B 2615   1.150   2.187   5.512 -0.0718  0.2652  0.4194
  182POPC   C3B 2616   1.474   2.176   5.965  0.0153 -0.0851 -0.0007
  182POPC   C4B 2617   1.618   2.476   6.292  0.1272 -0.2310  0.0226
  183POPC   NC3 2618   9.441   7.097   4.373 -0.3104  0.0558  0.1405
  183POPC   PO4 2619   9.404   6.738   4.490 -0.1149  0.0769 -0.2339
  183POPC   GL1 2620   9.525   6.899   4.844 -0.0614  0.0547 -0.1223
  183POPC   GL2 2621   9.283   7.204   4.839 -0.0657  0.0976  0.2284
  183POPC   C1A 2622   9.320   6.913   5.240  0.0354  0.2258  0.2731
  183POPC   D2A 2623   9.198   7.075   5.681  0.0863  0.0971  0.0394
  183POPC   C3A 2624   9.007   6.704   5.993  0.3492 -0.0282 -0.0289
  183POPC   C4A 2625   8.764   6.331   6.087  0.3978 -0.0859 -0.2661
  183POPC   C1B 2626   8.984   7.283   5.267  0.1756  0.1258 -0.3393
  183POPC   C2B 2627   8.884   7.474   5.662  0.1722  0.2326 -0.3092
  183POPC   C3B 2628   9.033   7.372   6.056  0.0040  0.0884  0.0371
  183POPC   C4B 2629   9.174   7.094   6.318  0.3974  0.1422 -0.4127
  184POPC   NC3 2630   9.503   8.042   4.497 -0.0326 -0.0497  0.0866
  184POPC   PO4 2631   9.503   7.645   4.678 -0.2016  0.0230 -0.0628
  184POPC   GL1 2632   9.705   7.462   5.015  0.1503  0.1218 -0.0267
  184POPC   GL2 2633   9.954   7.562   4.938  0.2518  0.0982  0.0043
  184POPC   C1A 2634   9.533   7.359   5.395  0.0619  0.0510  0.2286
  184POPC   D2A 2635   9.348   7.619   5.718 -0.2952  0.4369 -0.2132
  184POPC   C3A 2636   9.281   7.969   5.727  0.1421 -0.1134 -0.0177
  184POPC   C4A 2637   8.996   8.301   5.896  0.1906 -0.2825  0.2331
  184POPC   C1B 2638   9.964   7.713   5.387 -0.0117 -0.0534  0.1520
  184POPC   C2B 2639   9.874   7.835   5.787  0.3876  0.2967 -0.1000
  184POPC   C3B 2640   9.616   7.803   6.120  0.1593  0.0296  0.1327
  184POPC   C4B 2641   9.528   7.545   6.396  0.0987  0.0738  0.0431
  185POPC   NC3 2642   1.542   5.689   2.906 -0.2810 -0.0195 -0.0425
  185POPC   PO4 2643   1.751   6.019   3.118 -0.0225 -0.0615 -0.3581
  185POPC   GL1 2644   1.820   5.916   3.516 -0.5376  0.2169 -0.2203
  185POPC   GL2 2645   2.071   6.217   3.614 -0.1038 -0.2204 -0.0134
  185POPC   C1A 2646   1.847   5.610   3.767 -0.0572  0.0261 -0.2730
  185POPC   D2A 2647   2.127   5.659   4.124  0.2034  0.0539  0.1853
  185POPC   C3A 2648   1.925   5.891   4.474 -0.0340  0.5779 -0.0305
  185POPC   C4A 2649   1.498   5.910   4.643  0.3757  0.1061 -0.0127
  185POPC   C1B 2650   1.802   6.135   4.030 -0.1046 -0.2473  0.1572
  185POPC   C2B 2651   1.665   6.359   4.438 -0.0733  0.1597  0.3967
  185POPC   C3B 2652   1.757   6.703   4.599  0.2636  0.2047  0.1181
  185POPC   C4B 2653   1.755   6.982   4.955 -0.1570 -0.2482  0.2051
  186POPC   NC3 2654   0.741   8.979   4.245 -0.1596  0.3287 -0.2005
  186POPC   PO4 2655   1.273   8.983   4.280  0.2202  0.2888  0.1448
  186POPC   GL1 2656   1.216   8.787   4.622  0.0237 -0.1866 -0.0922
  186POPC   GL2 2657   1.468   8.895   4.928 -0.0206  0.0300  0.2371
  186POPC   C1A 2658   1.067   8.691   5.071  0.0348  0.0326  0.1412
  186POPC   D2A 2659   1.068   8.457   5.480 -0.3663  0.0897 -0.1324
  186POPC   C3A 2660   1.112   8.440   5.954  0.0485 -0.1307  0.1416
  186POPC   C4A 2661   1.374   8.212   6.271 -0.2289 -0.3268  0.1871
  186POPC   C1B 2662   1.519   8.749   5.311 -0.2999 -0.3190  0.1071
  186POPC   C2B 2663   1.523   8.507   5.690  0.3926  0.0423  0.2721
  186POPC   C3B 2664   1.844   8.282   5.910 -0.0549  0.1268 -0.0651
  186POPC   C4B 2665   2.354   8.250   6.054 -0.0476  0.2599  0.0189
  187POPC   NC3 2666   1.194   0.465   4.700 -0.2100 -0.0409  0.0053
  187POPC   PO4 2667   0.854   0.553   4.534  0.0401 -0.4341 -0.1057
  187POPC   GL1 2668   0.678   0.350   4.944 -0.0533 -0.2264 -0.2965
  187POPC   GL2 2669   0.642   0.025   5.057  0.0366  0.1408  0.0845
  187POPC   C1A 2670   0.801   0.414   5.455  0.1985 -0.0777 -0.2945
  187POPC   D2A 2671   0.504   0.286   5.866 -0.3104 -0.1815 -0.3618
  187POPC   C3A 2672   0.563   0.595   6.233  0.2026  0.3656 -0.1788
  187POPC   C4A 2673   0.273   0.826   6.417 -0.4203 -0.2181  0.1182
  187POPC   C1B 2674   0.493  -0.120   5.454 -0.1659  0.1272  0.4355
  187POPC   C2B 2675   0.190  -0.098   5.801  0.1227 -0.0785  0.2675
  187POPC   C3B 2676   0.016  -0.154   6.233  0.1093 -0.0427 -0.2441
  187POPC   C4B 2677  -0.360  -0.083   6.419  0.2342  0.2032 -0.0738
  188POPC   NC3 2678   9.868   3.461   3.545  0.0270  0.1598 -0.1057
  188POPC   PO4 2679   9.839   3.459   3.951 -0.1472 -0.1619 -0.1231
  188POPC   GL1 2680  10.073   3.323   4.237  0.0655  0.0547 -0.1046
  188POPC   GL2 2681  10.488   3.244   4.321 -0.0947 -0.1323  0.2144
  188POPC   C1A 2682  10.189   3.466   4.630 -0.2573 -0.1355  0.2119
  188POPC   D2A 2683  10.316   3.648   4.927 -0.0005  0.3140  0.0294
  188POPC   C3A 2684  10.184   3.647   5.373  0.0047 -0.1579  0.1710
  188POPC   C4A 2685   9.908   3.675   5.750 -0.1484 -0.1163 -0.0549
  188POPC   C1B 2686  10.719   3.276   4.709  0.0128  0.1199 -0.0184
  188POPC   C2B 2687  11.100   3.247   5.085  0.2682 -0.0779  0.1486
  188POPC   C3B 2688  11.286   3.728   5.270  0.1612  0.1704 -0.0093
  188POPC   C4B 2689  11.552   3.994   5.341 -0.1066 -0.0291 -0.0635
  189POPC   NC3 2690   9.238   6.142   4.444 -0.0960  0.1021 -0.1345
  189POPC   PO4 2691   9.052   5.711   4.462 -0.0932  0.1321 -0.1352
  189POPC   GL1 2692   9.013   5.656   4.906  0.1388  0.0967  0.1912
  189POPC   GL2 2693   9.286   5.884   4.933 -0.0081 -0.0640 -0.1227
  189POPC   C1A 2694   8.835   5.847   5.282  0.0337  0.0372 -0.1307
  189POPC   D2A 2695   8.793   5.915   5.830 -0.0494  0.0102  0.3636
  189POPC   C3A 2696   9.138   5.809   5.934  0.0200 -0.1885  0.2002
  189POPC   C4A 2697   9.501   5.847   6.278 -0.1065 -0.1953 -0.0443
  189POPC   C1B 2698   9.332   5.946   5.422  0.3636  0.0488  0.0084
  189POPC   C2B 2699   9.636   6.039   5.745 -0.0532 -0.1477  0.1217
  189POPC   C3B 2700   9.593   6.467   6.022 -0.0473 -0.2972 -0.2746
  189POPC   C4B 2701   9.498   6.833   6.129  0.1753  0.0722  0.3440
  190POPC   NC3 2702   8.556   7.365   3.833  0.2936  0.0273  0.1569
  190POPC   PO4 2703   8.931   7.602   4.135  0.0535  0.0271 -0.5206
  190POPC   GL1 2704   8.962   7.612   4.616 -0.1076  0.0434  0.0004
  190POPC   GL2 2705   8.753   7.374   4.807 -0.3536  0.1702 -0.1966
  190POPC   C1A 2706   8.955   7.798   5.052 -0.1636 -0.1430  0.1457
  190POPC   D2A 2707   9.253   7.722   5.262 -0.4845  0.1604  0.1493
  190POPC   C3A 2708   9.621   8.042   5.268  0.0147 -0.1496  0.1472
  190POPC   C4A 2709   9.633   8.384   5.053 -0.1078 -0.4108  0.2546
  190POPC   C1B 2710   8.512   7.159   5.256 -0.1858 -0.0322 -0.2382
  190POPC   C2B 2711   8.215   6.997   5.569 -0.0186 -0.1230 -0.3416
  190POPC   C3B 2712   8.087   6.909   6.056  0.0056 -0.1531  0.1219
  190POPC   C4B 2713   8.001   7.011   6.537  0.1373 -0.2860 -0.0336
  191POPC   NC3 2714   6.422   6.195   4.564  0.0917  0.1156 -0.4127
  191POPC   PO4 2715   6.410   5.829   4.821  0.0488 -0.0059  0.0692
  191POPC   GL1 2716   6.351   5.922   5.193  0.2833 -0.0011  0.0619
  191POPC   GL2 2717   6.081   5.978   5.309  0.0676 -0.1490 -0.2391
  191POPC   C1A 2718   6.310   5.732   5.741  0.0608  0.1931 -0.0654
  191POPC   D2A 2719   6.366   5.545   6.191 -0.0771 -0.5557  0.2133
  191POPC   C3A 2720   6.437   5.814   6.543 -0.0269 -0.0007 -0.0016
  191POPC   C4A 2721   6.629   6.181   6.602  0.2056 -0.2125  0.0848
  191POPC   C1B 2722   6.149   6.263   5.703  0.1603 -0.0415 -0.2970
  191POPC   C2B 2723   5.990   6.429   6.081 -0.2515 -0.0029  0.1112
  191POPC   C3B 2724   6.138   6.442   6.452 -0.1994 -0.1311 -0.1843
  191POPC   C4B 2725   6.188   6.452   6.873 -0.0002  0.0320 -0.1555
  192POPC   NC3 2726   9.361   4.434   4.457 -0.3278 -0.1433 -0.0358
  192POPC   PO4 2727   9.492   4.911   4.238  0.1003 -0.3613  0.1037
  192POPC   GL1 2728   9.580   4.851   4.682 -0.1266 -0.3647  0.3805
  192POPC   GL2 2729   9.272   4.739   4.884 -0.3021 -0.4643 -0.1447
  192POPC   C1A 2730   9.566   5.125   5.046  0.3489 -0.0119  0.1879
  192POPC   D2A 2731   9.496   5.495   5.225  0.3398  0.1140  0.0190
  192POPC   C3A 2732   9.861   5.642   5.378  0.0649 -0.0134 -0.0960
  192POPC   C4A 2733  10.122   5.919   5.448 -0.0614  0.0390 -0.2176
  192POPC   C1B 2734   9.366   4.799   5.348 -0.0182 -0.0006  0.1829
  192POPC   C2B 2735   9.404   5.059   5.639 -0.0186  0.2377 -0.3067
  192POPC   C3B 2736   9.354   5.102   6.085 -0.1567  0.0264  0.1223
  192POPC   C4B 2737   9.256   5.448   6.277  0.0825  0.2151 -0.1785
  193POPC   NC3 2738   6.453   0.111   4.921 -0.0142 -0.0269 -0.0570
  193POPC   PO4 2739   6.115  -0.021   4.900  0.0692  0.0834 -0.1347
  193POPC   GL1 2740   6.143  -0.372   5.181  0.1578 -0.1482  0.2875
  193POPC   GL2 2741   6.011  -0.350   5.414  0.1740  0.2219  0.0268
  193POPC   C1A 2742   6.434  -0.390   5.574  0.0840 -0.0128  0.3654
  193POPC   D2A 2743   6.550  -0.476   5.950  0.0219  0.1169  0.0129
  193POPC   C3A 2744   6.941  -0.638   6.055  0.2658 -0.0399  0.2427
  193POPC   C4A 2745   7.269  -0.447   6.066 -0.2170 -0.1140 -0.1360
  193POPC   C1B 2746   5.915  -0.439   5.811 -0.1327 -0.1409 -0.0732
  193POPC   C2B 2747   5.991  -0.336   6.211  0.2561 -0.0688 -0.4053
  193POPC   C3B 2748   6.415  -0.100   6.197  0.4058  0.1030  0.1867
  193POPC   C4B 2749   6.677  -0.029   5.802  0.2512 -0.4319  0.5262
  194POPC   NC3 2750   2.260   8.284   4.352 -0.2255 -0.0372  0.1022
  194POPC   PO4 2751   2.221   8.762   4.481  0.2960 -0.0653 -0.1255
  194POPC   GL1 2752   2.192   8.917   4.921  0.1273  0.2391  0.1455
  194POPC   GL2 2753   1.929   8.797   5.006  0.0398 -0.0754 -0.0526
  194POPC   C1A 2754   2.329   8.962   5.334 -0.2089 -0.1559  0.1326
  194POPC   D2A 2755   2.250   9.163   5.764  0.3794 -0.3057 -0.1965
  194POPC   C3A 2756   2.535   9.026   6.111 -0.1893 -0.0938 -0.2399
  194POPC   C4A 2757   2.866   9.064   6.316  0.0303 -0.0594  0.0150
  194POPC   C1B 2758   1.990   8.591   5.463  0.0478  0.2995  0.2022
  194POPC   C2B 2759   2.317   8.692   5.753 -0.3340  0.1865  0.0910
  194POPC   C3B 2760   2.749   8.542   5.966  0.0688  0.1144 -0.1552
  194POPC   C4B 2761   3.095   8.798   5.899  0.1203 -0.2851 -0.2045
  195POPC   NC3 2762   2.139   2.095   4.194 -0.1010  0.0845 -0.0544
  195POPC   PO4 2763   2.398   2.337   4.274 -0.4336  0.2849 -0.2268
  195POPC   GL1 2764   2.286   2.275   4.744 -0.0276  0.0747  0.1702
  195POPC   GL2 2765   2.211   2.044   5.027 -0.0525  0.0471 -0.0110
  195POPC   C1A 2766   2.267   2.582   5.069 -0.0833  0.1369 -0.2791
  195POPC   D2A 2767   2.101   2.776   5.442 -0.0447 -0.0538 -0.0760
  195POPC   C3A 2768   2.217   3.104   5.518 -0.0053 -0.0078  0.2902
  195POPC   C4A 2769   2.283   3.452   5.556 -0.0187  0.1556 -0.1274
  195POPC   C1B 2770   2.124   2.171   5.533  0.3885 -0.2012 -0.0989
  195POPC   C2B 2771   1.916   2.429   5.789 -0.0487  0.0345 -0.0528
  195POPC   C3B 2772   2.018   2.717   6.099 -0.1851 -0.4019 -0.0228
  195POPC   C4B 2773   2.293   3.013   6.370 -0.0856 -0.1374 -0.0154
  196POPC   NC3 2774   7.656   5.992   4.839  0.1568  0.1068 -0.0985
  196POPC   PO4 2775   7.581   6.445   4.732 -0.1927 -0.0282 -0.3059
  196POPC   GL1 2776   7.312   6.361   5.026 -0.1839 -0.1508  0.1587
  196POPC   GL2 2777   7.444   6.183   5.243  0.0733 -0.0361  0.2337
  196POPC   C1A 2778   7.113   6.514   5.501 -0.0899 -0.2898 -0.2974
  196POPC   D2A 2779   6.899   6.787   5.702  0.0520 -0.2150  0.2176
  196POPC   C3A 2780   6.971   7.033   6.113 -0.1916  0.3212  0.2018
  196POPC   C4A 2781   6.819   7.153   6.508 -0.0159  0.2529 -0.0641
  196POPC   C1B 2782   7.481   6.274   5.645 -0.0107  0.1285 -0.0161
  196POPC   C2B 2783   7.535   6.187   6.151 -0.2042 -0.0943 -0.0092
  196POPC   C3B 2784   7.342   6.064   6.537  0.1095 -0.0415  0.3319
  196POPC   C4B 2785   7.192   5.924   6.882  0.1758 -0.1859  0.1947
  197POPC   NC3 2786   8.618   9.526   4.573 -0.0533 -0.3376 -0.1197
  197POPC   PO4 2787   8.900   9.500   4.803  0.2750  0.0688  0.1438
  197POPC   GL1 2788   9.146   9.293   5.079 -0.1279 -0.1024  0.1557
  197POPC   GL2 2789   9.337   9.520   5.214  0.2196  0.0923  0.1490
  197POPC   C1A 2790   9.059   9.168   5.501  0.1541  0.2781  0.0853
  197POPC   D2A 2791   8.954   9.318   5.964 -0.1082 -0.1316  0.1507
  197POPC   C3A 2792   9.204   9.203   6.168  0.0661  0.2628 -0.1742
  197POPC   C4A 2793   9.287   8.741   6.132  0.0427 -0.1342  0.2570
  197POPC   C1B 2794   9.776   9.399   5.187 -0.3578 -0.1631 -0.2426
  197POPC   C2B 2795  10.061   9.400   5.524  0.1225 -0.2487  0.1412
  197POPC   C3B 2796  10.518   9.380   5.680  0.0804 -0.0289  0.0318
  197POPC   C4B 2797  10.406   9.466   6.045  0.1493  0.1157 -0.1626
  198POPC   NC3 2798   3.488   1.647   4.249 -0.0219 -0.1527  0.1232
  198POPC   PO4 2799   3.276   1.258   4.559  0.3884 -0.0613  0.2750
  198POPC   GL1 2800   3.174   1.015   4.977 -0.3803  0.1996  0.0305
  198POPC   GL2 2801   3.094   1.330   5.265  0.2413 -0.0635 -0.0293
  198POPC   C1A 2802   3.156   0.886   5.441 -0.0941  0.1425 -0.2174
  198POPC   D2A 2803   3.288   0.978   5.797 -0.0563  0.0321  0.1772
  198POPC   C3A 2804   3.016   0.840   6.093 -0.1342  0.0058  0.0911
  198POPC   C4A 2805   2.889   0.538   6.381  0.0343  0.1315  0.1874
  198POPC   C1B 2806   3.245   1.565   5.507 -0.1402 -0.0272  0.4510
  198POPC   C2B 2807   3.308   1.489   5.884  0.0424  0.0494  0.2306
  198POPC   C3B 2808   3.472   1.188   6.263 -0.0467  0.0828 -0.0217
  198POPC   C4B 2809   3.338   0.851   6.516  0.0913  0.2115 -0.2944
  199POPC   NC3 2810   6.950   7.048   4.426  0.1604  0.1899 -0.3150
  199POPC   PO4 2811   6.697   6.687   4.399 -0.0668  0.0479 -0.1772
  199POPC   GL1 2812   6.947   6.582   4.748  0.0914 -0.1794 -0.4763
  199POPC   GL2 2813   6.835   6.267   4.958  0.1805 -0.1794  0.0881
  199POPC   C1A 2814   6.856   6.836   5.157  0.0509 -0.1079 -0.3239
  199POPC   D2A 2815   6.790   7.227   5.376 -0.0158  0.0163  0.2180
  199POPC   C3A 2816   6.682   7.217   5.732 -0.1345 -0.1216  0.0396
  199POPC   C4A 2817   6.543   7.338   6.116  0.3195  0.2757  0.1065
  199POPC   C1B 2818   6.992   6.007   5.211  0.2226 -0.0646  0.1730
  199POPC   C2B 2819   6.765   5.864   5.554 -0.3906  0.2349  0.7046
  199POPC   C3B 2820   6.925   5.723   5.936  0.2608 -0.1048  0.4101
  199POPC   C4B 2821   6.941   5.775   6.389  0.2928 -0.1333  0.0524
  200POPC   NC3 2822   1.788   9.757   4.803 -0.0572 -0.0746 -0.3885
  200POPC   PO4 2823   1.673  10.094   4.876  0.2699  0.2571 -0.4181
  200POPC   GL1 2824   1.819   9.887   5.257 -0.3638 -0.0063 -0.3194
  200POPC   GL2 2825   2.092   9.758   5.234  0.1415 -0.2984 -0.0173
  200POPC   C1A 2826   1.966   9.539   5.629  0.0559 -0.0092  0.2081
  200POPC   D2A 2827   1.689   9.323   5.941  0.0065  0.3494  0.2738
  200POPC   C3A 2828   1.646   9.271   6.271 -0.0763  0.1280  0.2311
  200POPC   C4A 2829   1.914   9.296   6.635  0.1105 -0.1424 -0.1806
  200POPC   C1B 2830   2.179  10.026   5.603 -0.3275 -0.1702  0.0437
  200POPC   C2B 2831   2.186  10.273   6.067  0.1399 -0.0397  0.0738
  200POPC   C3B 2832   1.781  10.249   6.225 -0.0375  0.0221  0.1378
  200POPC   C4B 2833   1.370  10.131   6.183 -0.1732  0.0879  0.1617
  201POPC   NC3 2834   4.567   3.695   4.552 -0.0755  0.0017  0.2647
  201POPC   PO4 2835   4.854   4.043   4.626 -0.1898 -0.0396  0.2106
  201POPC   GL1 2836   4.477   4.228   4.838 -0.0591  0.3294  0.1884
  201POPC   GL2 2837   4.342   4.010   4.815 -0.0178  0.0358  0.1630
  201POPC   C1A 2838   4.278   4.372   5.203  0.0039  0.0268 -0.2431
  201POPC   D2A 2839   4.325   4.061   5.602  0.0000  0.0540  0.1808
  201POPC   C3A 2840   4.217   4.373   5.940  0.0294 -0.0162  0.1148
  201POPC   C4A 2841   4.398   4.578   6.271 -0.2381 -0.0716 -0.0592
  201POPC   C1B 2842   4.017   3.928   5.148  0.1350 -0.4038 -0.2075
  201POPC   C2B 2843   3.795   4.153   5.592 -0.0479  0.3708 -0.0599
  201POPC   C3B 2844   3.712   4.006   5.834  0.3084  0.1964  0.0181
  201POPC   C4B 2845   3.827   4.138   6.209  0.1079  0.2047  0.2172
  202POPC   NC3 2846   2.827   1.310   4.851 -0.1427  0.4833  0.1062
  202POPC   PO4 2847   2.515   1.246   4.678  0.0464 -0.3910  0.0678
  202POPC   GL1 2848   2.274   1.300   5.026  0.0754  0.0389 -0.2044
  202POPC   GL2 2849   2.097   1.454   5.091 -0.0884  0.0460  0.1126
  202POPC   C1A 2850   2.241   1.252   5.520  0.1037  0.4726 -0.1692
  202POPC   D2A 2851   2.339   1.196   5.971  0.2705  0.4035  0.1987
  202POPC   C3A 2852   2.156   1.067   6.326 -0.0068  0.0813  0.1550
  202POPC   C4A 2853   1.890   0.778   6.381  0.1463  0.2999  0.2441
  202POPC   C1B 2854   1.887   1.704   5.259  0.1522 -0.0823  0.1732
  202POPC   C2B 2855   1.731   1.817   5.651  0.1287  0.2353  0.2692
  202POPC   C3B 2856   1.996   2.014   6.039  0.1598  0.0389 -0.1819
  202POPC   C4B 2857   2.306   2.328   6.169  0.3226 -0.4029  0.1213
  203POPC   NC3 2858   2.379   9.237   4.614 -0.3196 -0.2501 -0.1629
  203POPC   PO4 2859   2.122   9.401   4.927 -0.0733  0.0514  0.2182
  203POPC   GL1 2860   1.715   9.326   5.113  0.3736 -0.2530 -0.0260
  203POPC   GL2 2861   1.416   9.604   5.126 -0.0152  0.0998 -0.2584
  203POPC   C1A 2862   1.791   9.128   5.478 -0.1455  0.0353  0.1085
  203POPC   D2A 2863   1.854   8.854   5.862  0.0464 -0.1756 -0.0402
  203POPC   C3A 2864   2.097   8.906   6.190  0.1936  0.4612 -0.1285
  203POPC   C4A 2865   2.425   8.615   6.441  0.3473 -0.1735 -0.0436
  203POPC   C1B 2866   1.431   9.598   5.530 -0.2341 -0.0676  0.0051
  203POPC   C2B 2867   1.620   9.895   5.821  0.0536 -0.1839 -0.0108
  203POPC   C3B 2868   2.052   9.826   6.033  0.2105  0.0271  0.1770
  203POPC   C4B 2869   2.133   9.404   6.183  0.2275  0.0163  0.1031
  204POPC   NC3 2870   5.342   2.050   4.552 -0.0942  0.1372 -0.0776
  204POPC   PO4 2871   5.120   2.321   4.287 -0.2006  0.3388 -0.1967
  204POPC   GL1 2872   5.032   2.392   4.802  0.2000  0.3357  0.2921
  204POPC   GL2 2873   5.318   2.589   5.088  0.1180  0.2387  0.1963
  204POPC   C1A 2874   4.801   2.382   5.278 -0.1561  0.1068  0.1557
  204POPC   D2A 2875   4.716   2.163   5.700  0.0866 -0.0503 -0.2842
  204POPC   C3A 2876   4.651   2.342   6.090 -0.1913 -0.1146 -0.1548
  204POPC   C4A 2877   4.370   2.332   6.488  0.0322 -0.0149 -0.2528
  204POPC   C1B 2878   5.110   2.762   5.341  0.0729 -0.1295 -0.0330
  204POPC   C2B 2879   5.089   2.921   5.738 -0.0212 -0.3663  0.1193
  204POPC   C3B 2880   5.364   3.077   6.092 -0.0410  0.0637 -0.2146
  204POPC   C4B 2881   5.640   3.357   5.955 -0.1178 -0.3432 -0.0544
  205POPC   NC3 2882   6.969   9.607   4.681 -0.3554 -0.0901  0.0711
  205POPC   PO4 2883   7.346   9.826   4.871 -0.2370  0.0148 -0.1861
  205POPC   GL1 2884   7.212   9.906   5.308  0.1560  0.1128  0.1885
  205POPC   GL2 2885   7.368  10.125   5.410  0.3526  0.3060  0.2916
  205POPC   C1A 2886   6.967   9.597   5.608  0.1716  0.1409 -0.0264
  205POPC   D2A 2887   6.793   9.158   5.535 -0.2764 -0.0616  0.1522
  205POPC   C3A 2888   6.327   9.129   5.685 -0.0071 -0.2310 -0.0924
  205POPC   C4A 2889   5.911   9.068   5.644 -0.0133  0.0066 -0.3260
  205POPC   C1B 2890   7.269  10.005   5.901  0.1614  0.1651  0.0730
  205POPC   C2B 2891   6.893   9.796   6.204 -0.0277 -0.1570 -0.0381
  205POPC   C3B 2892   6.995   9.510   6.537 -0.2060  0.0284 -0.0235
  205POPC   C4B 2893   7.012   9.001   6.594 -0.0954 -0.1233 -0.1072
  206POPC   NC3 2894   2.863   0.549   4.187 -0.2592 -0.1627 -0.0144
  206POPC   PO4 2895   3.331   0.359   4.177 -0.0818  0.2143  0.1741
  206POPC   GL1 2896   3.135   0.342   4.619 -0.1399  0.2836  0.0717
  206POPC   GL2 2897   3.124   0.057   4.786 -0.0262 -0.0767  0.3685
  206POPC   C1A 2898   3.078   0.525   5.002 -0.0121  0.2860 -0.0733
  206POPC   D2A 2899   2.941   0.338   5.376  0.0306  0.3265 -0.2959
  206POPC   C3A 2900   2.737   0.587   5.641 -0.1902 -0.0156 -0.1375
  206POPC   C4A 2901   2.748   1.122   5.599 -0.0471  0.1477 -0.1885
  206POPC   C1B 2902   3.091  -0.134   5.179  0.0872 -0.0081  0.0050
  206POPC   C2B 2903   3.043  -0.298   5.587 -0.4873  0.1289 -0.0530
  206POPC   C3B 2904   3.136  -0.240   6.204  0.1704 -0.0926  0.0107
  206POPC   C4B 2905   3.229  -0.028   6.543  0.0446  0.0609 -0.2712
  207POPC   NC3 2906   8.396   6.018   4.873  0.0808  0.1075 -0.1054
  207POPC   PO4 2907   8.077   6.239   4.954  0.0366  0.0101  0.1698
  207POPC   GL1 2908   7.847   6.456   5.287 -0.0296  0.1970 -0.2042
  207POPC   GL2 2909   7.649   6.738   5.153 -0.1163 -0.4422 -0.3431
  207POPC   C1A 2910   7.843   6.585   5.603  0.4056  0.0758 -0.1595
  207POPC   D2A 2911   8.032   6.313   5.895  0.0363  0.0732 -0.2251
  207POPC   C3A 2912   8.021   6.461   6.307  0.2391  0.0318 -0.0080
  207POPC   C4A 2913   7.739   6.664   6.284 -0.0072  0.0219  0.0532
  207POPC   C1B 2914   7.774   7.071   5.427 -0.0917 -0.0507 -0.1155
  207POPC   C2B 2915   7.683   7.206   5.754 -0.0507  0.2276  0.2476
  207POPC   C3B 2916   7.454   7.217   6.252 -0.0234 -0.1079 -0.0877
  207POPC   C4B 2917   7.627   7.559   6.572  0.1091  0.2073 -0.1890
  208POPC   NC3 2918   5.246   0.913   4.680 -0.0318 -0.1142 -0.1257
  208POPC   PO4 2919   5.666   0.880   4.768  0.2239  0.0324  0.0935
  208POPC   GL1 2920   5.521   0.930   5.258  0.1710 -0.0995 -0.2109
  208POPC   GL2 2921   5.585   0.640   5.395 -0.0561 -0.2771  0.1171
  208POPC   C1A 2922   5.663   0.960   5.775  0.4027 -0.0072  0.0123
  208POPC   D2A 2923   5.505   1.296   6.206 -0.2427 -0.2467  0.1392
  208POPC   C3A 2924   5.101   1.547   6.236 -0.1346  0.2801 -0.0741
  208POPC   C4A 2925   4.788   1.795   6.054  0.0362 -0.2428  0.2903
  208POPC   C1B 2926   5.886   0.482   5.784 -0.1855 -0.0372 -0.0663
  208POPC   C2B 2927   5.940   0.721   6.195 -0.0155 -0.0109 -0.0042
  208POPC   C3B 2928   5.733   1.042   6.564 -0.0071 -0.1123  0.1078
  208POPC   C4B 2929   5.992   1.215   6.885 -0.1248 -0.1052  0.4323
  209POPC   NC3 2930   6.779   4.977   4.904  0.0458  0.2695 -0.0033
  209POPC   PO4 2931   6.771   4.541   4.805  0.3718 -0.2503  0.2693
  209POPC   GL1 2932   6.823   4.291   5.171  0.0124  0.0145 -0.3788
  209POPC   GL2 2933   6.626   4.143   5.311  0.3745 -0.0156 -0.1450
  209POPC   C1A 2934   6.980   4.353   5.647 -0.2862  0.1527 -0.1191
  209POPC   D2A 2935   7.156   4.385   5.961  0.2474  0.0889 -0.3232
  209POPC   C3A 2936   7.607   4.212   6.128 -0.1125  0.1349 -0.2468
  209POPC   C4A 2937   7.925   4.166   6.454 -0.0243  0.3134 -0.1357
  209POPC   C1B 2938   6.476   4.253   5.828  0.0751  0.0401  0.1406
  209POPC   C2B 2939   6.351   4.408   6.246  0.3575  0.0413 -0.1260
  209POPC   C3B 2940   6.028   4.476   6.415 -0.0232  0.1297 -0.3797
  209POPC   C4B 2941   5.859   4.389   6.817  0.1821 -0.1070  0.0797
  210POPC   NC3 2942   6.907   3.194   4.967 -0.0876  0.0525  0.0628
  210POPC   PO4 2943   6.758   3.595   4.892 -0.3915 -0.4653  0.1664
  210POPC   GL1 2944   6.936   3.693   5.204  0.2594 -0.1914  0.0570
  210POPC   GL2 2945   7.140   3.972   5.376  0.0780 -0.2159 -0.2950
  210POPC   C1A 2946   6.871   3.782   5.772 -0.1035 -0.1683  0.0114
  210POPC   D2A 2947   6.530   3.674   5.967 -0.1278 -0.2846  0.4155
  210POPC   C3A 2948   6.445   3.451   6.450 -0.1420  0.0473  0.1820
  210POPC   C4A 2949   6.072   3.512   6.706  0.0685  0.2036 -0.1244
  210POPC   C1B 2950   7.390   4.106   5.632  0.0534  0.4722  0.0962
  210POPC   C2B 2951   7.514   4.542   5.689  0.0379 -0.0225 -0.2390
  210POPC   C3B 2952   7.379   4.831   5.966  0.0851 -0.1176  0.0918
  210POPC   C4B 2953   7.206   5.156   6.218 -0.2632  0.0944  0.1041
  211POPC   NC3 2954   5.247   8.954   4.445 -0.0146  0.0552 -0.0156
  211POPC   PO4 2955   5.205   8.679   4.664  0.1852 -0.1528 -0.0715
  211POPC   GL1 2956   5.203   8.566   5.122 -0.1466  0.1182 -0.2841
  211POPC   GL2 2957   5.582   8.440   5.289  0.0981  0.0863 -0.0360
  211POPC   C1A 2958   4.917   8.806   5.323  0.1691  0.0732  0.1665
  211POPC   D2A 2959   4.679   8.782   5.761 -0.1130 -0.3940  0.2031
  211POPC   C3A 2960   4.209   8.819   5.659  0.4824  0.1237  0.0112
  211POPC   C4A 2961   3.777   8.756   5.424  0.1271  0.0153 -0.2079
  211POPC   C1B 2962   5.595   8.439   5.797 -0.2394  0.0605  0.0547
  211POPC   C2B 2963   5.972   8.294   6.220  0.1409 -0.0368  0.1103
  211POPC   C3B 2964   6.045   8.318   6.652 -0.0050  0.0661 -0.0295
  211POPC   C4B 2965   5.879   8.402   7.030  0.0029 -0.0653  0.0211
  212POPC   NC3 2966   5.247   5.236   4.987 -0.0632  0.0466 -0.0278
  212POPC   PO4 2967   4.911   4.994   4.771  0.1286 -0.2444 -0.0896
  212POPC   GL1 2968   4.826   5.032   5.258  0.1439 -0.0196 -0.0988
  212POPC   GL2 2969   4.525   4.859   5.290 -0.2347  0.1331 -0.1127
  212POPC   C1A 2970   4.892   5.202   5.706 -0.2460  0.0157  0.1446
  212POPC   D2A 2971   4.955   5.294   6.164  0.1131  0.0178 -0.2911
  212POPC   C3A 2972   4.962   5.663   6.329  0.0850  0.1944 -0.0800
  212POPC   C4A 2973   4.738   5.897   6.641 -0.1910  0.2643 -0.1475
  212POPC   C1B 2974   4.189   4.707   5.537  0.2099 -0.1366  0.0036
  212POPC   C2B 2975   4.048   4.816   5.976  0.1917  0.2731  0.3110
  212POPC   C3B 2976   3.808   4.646   6.272  0.1625 -0.1846 -0.0872
  212POPC   C4B 2977   3.715   4.451   6.563 -0.3308 -0.4088 -0.1841
  213POPC   NC3 2978   9.753   8.472   4.129  0.0463 -0.2282 -0.0239
  213POPC   PO4 2979  10.046   8.319   4.385  0.0653  0.2865  0.1632
  213POPC   GL1 2980  10.357   8.422   4.713  0.1106 -0.3001  0.0826
  213POPC   GL2 2981  10.506   8.091   4.760  0.1034  0.0219  0.2817
  213POPC   C1A 2982  10.528   8.607   5.030 -0.1368  0.1117 -0.2387
  213POPC   D2A 2983  10.491   8.459   5.451  0.1102 -0.3184 -0.0767
  213POPC   C3A 2984  10.600   8.503   5.803 -0.1561  0.0932  0.0765
  213POPC   C4A 2985  10.708   8.242   6.223 -0.0987  0.1541 -0.0665
  213POPC   C1B 2986  10.541   7.865   5.060 -0.1643  0.2722  0.0843
  213POPC   C2B 2987  10.858   7.645   5.355  0.0212 -0.0651  0.1851
  213POPC   C3B 2988  10.774   7.548   5.791  0.2776  0.0518  0.2424
  213POPC   C4B 2989  10.830   7.269   6.096 -0.0862  0.0722  0.1237
  214POPC   NC3 2990   4.103   8.994   4.326 -0.1746 -0.0922 -0.1383
  214POPC   PO4 2991   4.172   8.583   4.556  0.0666  0.1002  0.0669
  214POPC   GL1 2992   3.989   8.528   4.995  0.0864  0.0086 -0.1338
  214POPC   GL2 2993   3.778   8.325   5.001  0.0707 -0.1984  0.2559
  214POPC   C1A 2994   4.077   8.378   5.428 -0.2649  0.0906 -0.0119
  214POPC   D2A 2995   4.251   8.430   5.921  0.1029 -0.7697  0.0517
  214POPC   C3A 2996   3.994   8.227   6.248 -0.1679  0.2707  0.2780
  214POPC   C4A 2997   3.791   7.852   6.221 -0.1115 -0.4082  0.0942
  214POPC   C1B 2998   3.512   8.088   5.288  0.0230 -0.0543 -0.0873
  214POPC   C2B 2999   3.652   7.899   5.577 -0.0229  0.3384 -0.0582
  214POPC   C3B 3000   4.064   7.960   5.733 -0.0980  0.0903  0.2728
  214POPC   C4B 3001   4.383   8.015   6.058 -0.4193 -0.0226  0.3468
  215POPC   NC3 3002   5.947   0.497   4.991 -0.0420 -0.2306 -0.1567
  215POPC   PO4 3003   6.375   0.641   4.993 -0.2001  0.0799  0.0312
  215POPC   GL1 3004   6.369   0.464   5.372 -0.1958 -0.0195  0.1383
  215POPC   GL2 3005   6.197   0.131   5.341  0.0827 -0.0378 -0.1434
  215POPC   C1A 3006   6.343   0.515   5.927  0.3963  0.0822  0.3212
  215POPC   D2A 3007   6.447   0.355   6.398 -0.0690  0.1147  0.0797
  215POPC   C3A 3008   6.262   0.126   6.737 -0.0841 -0.0870 -0.0875
  215POPC   C4A 3009   6.085  -0.355   6.751 -0.0727 -0.2270 -0.1183
  215POPC   C1B 3010   6.159   0.019   5.765  0.2579  0.0022 -0.2079
  215POPC   C2B 3011   6.001   0.183   6.136  0.0207  0.1023 -0.0361
  215POPC   C3B 3012   5.769   0.323   6.452  0.0280 -0.1902  0.1199
  215POPC   C4B 3013   5.580   0.220   6.849 -0.0693 -0.1281  0.2624
  216POPC   NC3 3014   8.658   6.096   4.369  0.0594  0.3387  0.1871
  216POPC   PO4 3015   8.508   5.683   4.569 -0.0535 -0.1081 -0.1355
  216POPC   GL1 3016   8.540   5.527   4.918  0.1793  0.1181 -0.3394
  216POPC   GL2 3017   8.392   5.313   4.938 -0.1345 -0.0926  0.2024
  216POPC   C1A 3018   8.608   5.357   5.402 -0.0165  0.0313  0.0821
  216POPC   D2A 3019   8.371   5.132   5.731 -0.3730  0.1039 -0.4310
  216POPC   C3A 3020   8.239   5.345   6.041  0.1314 -0.4860  0.2284
  216POPC   C4A 3021   8.230   5.513   6.481  0.0679  0.0632 -0.2347
  216POPC   C1B 3022   8.124   5.333   5.367 -0.0726 -0.0973 -0.1024
  216POPC   C2B 3023   7.946   5.458   5.691  0.1182 -0.0087  0.2077
  216POPC   C3B 3024   7.702   5.321   5.998 -0.1887 -0.1117 -0.3397
  216POPC   C4B 3025   7.787   5.245   6.366 -0.0929 -0.0489  0.2626
  217POPC   NC3 3026   7.245   2.647   5.068  0.4463 -0.1155  0.1618
  217POPC   PO4 3027   6.902   2.670   5.021 -0.1050  0.0969  0.0083
  217POPC   GL1 3028   6.875   2.829   5.434  0.0903 -0.2234  0.2460
  217POPC   GL2 3029   6.486   2.811   5.338  0.0023  0.1861 -0.0527
  217POPC   C1A 3030   6.882   2.638   5.843 -0.1084 -0.0428  0.3172
  217POPC   D2A 3031   6.925   2.738   6.267 -0.1856 -0.1039  0.1681
  217POPC   C3A 3032   6.721   2.978   6.543  0.0624  0.1823 -0.0226
  217POPC   C4A 3033   6.357   3.081   6.843  0.0231 -0.4558 -0.1785
  217POPC   C1B 3034   6.416   2.885   5.779  0.0897 -0.1371 -0.0580
  217POPC   C2B 3035   6.701   3.103   5.934  0.1592 -0.1762  0.0900
  217POPC   C3B 3036   6.957   3.368   6.140 -0.2680  0.1704 -0.0931
  217POPC   C4B 3037   7.049   3.451   6.540 -0.0666 -0.0045  0.1426
  218POPC   NC3 3038   6.521   8.008   4.944 -0.0631 -0.0408  0.0760
  218POPC   PO4 3039   6.643   7.605   5.072  0.0038 -0.2510 -0.1070
  218POPC   GL1 3040   6.822   8.003   5.319  0.3645  0.0070 -0.5069
  218POPC   GL2 3041   7.186   8.084   5.435 -0.3067 -0.1117  0.2353
  218POPC   C1A 3042   6.725   8.240   5.704  0.0052 -0.1112 -0.1695
  218POPC   D2A 3043   6.613   8.421   6.031 -0.1522  0.0452 -0.1660
  218POPC   C3A 3044   6.397   8.151   6.383 -0.1247  0.0465  0.1266
  218POPC   C4A 3045   6.631   8.094   6.777  0.0885  0.0963 -0.1654
  218POPC   C1B 3046   7.146   8.077   5.950  0.1083 -0.3119  0.0628
  218POPC   C2B 3047   6.897   8.032   6.401 -0.1942 -0.4161 -0.1532
  218POPC   C3B 3048   6.673   7.625   6.498  0.2958 -0.2045  0.1456
  218POPC   C4B 3049   6.269   7.565   6.436  0.0782 -0.0275  0.2044
  219POPC   NC3 3050   5.936   6.829   4.784  0.0180 -0.0404  0.0938
  219POPC   PO4 3051   5.845   7.282   4.870 -0.0514  0.0242 -0.3464
  219POPC   GL1 3052   5.959   7.009   5.227  0.0829  0.1111 -0.3673
  219POPC   GL2 3053   6.243   7.319   5.291 -0.0330 -0.0318 -0.2822
  219POPC   C1A 3054   6.346   6.815   5.311 -0.1911  0.1213 -0.0228
  219POPC   D2A 3055   6.606   6.410   5.382  0.4573  0.3103 -0.1526
  219POPC   C3A 3056   6.713   6.269   5.823  0.0853  0.0014 -0.2787
  219POPC   C4A 3057   6.450   6.133   6.157 -0.0304  0.2845 -0.2356
  219POPC   C1B 3058   6.206   7.084   5.650  0.3813  0.2694 -0.2002
  219POPC   C2B 3059   6.387   6.705   5.807 -0.0645 -0.4187 -0.1936
  219POPC   C3B 3060   6.594   6.731   6.198  0.1033 -0.0154  0.2688
  219POPC   C4B 3061   6.633   6.693   6.527 -0.1616  0.0814  0.3010
  220POPC   NC3 3062   1.262   0.569   4.227  0.3341  0.0095 -0.1022
  220POPC   PO4 3063   1.702   0.438   4.527  0.1219 -0.0161 -0.3321
  220POPC   GL1 3064   1.709   0.680   4.981 -0.0929 -0.0594 -0.3445
  220POPC   GL2 3065   1.484   0.471   5.163 -0.0365  0.1924 -0.2298
  220POPC   C1A 3066   1.663   0.921   5.257  0.2066  0.2740  0.1963
  220POPC   D2A 3067   1.745   1.268   5.489  0.0870  0.0184  0.0382
  220POPC   C3A 3068   1.424   1.337   5.786  0.1380  0.0671  0.0974
  220POPC   C4A 3069   1.461   1.626   6.104  0.4545 -0.1753 -0.0583
  220POPC   C1B 3070   1.335   0.221   5.500 -0.0276  0.0087  0.1618
  220POPC   C2B 3071   1.082  -0.054   5.739  0.1750  0.1025  0.0446
  220POPC   C3B 3072   0.806  -0.075   6.067  0.1843  0.1155 -0.1651
  220POPC   C4B 3073   0.521   0.018   6.388  0.1700  0.1407  0.3688
  221POPC   NC3 3074   4.988   1.275   4.306  0.2857  0.0143 -0.2218
  221POPC   PO4 3075   4.802   0.931   4.469  0.0105  0.0602 -0.0035
  221POPC   GL1 3076   4.779   0.723   4.929  0.1014  0.0294  0.0308
  221POPC   GL2 3077   5.087   0.717   5.156  0.0666 -0.0596  0.1501
  221POPC   C1A 3078   4.578   0.654   5.288  0.3947 -0.1157 -0.0766
  221POPC   D2A 3079   4.647   0.226   5.441  0.3100 -0.0558 -0.2349
  221POPC   C3A 3080   4.332  -0.010   5.770  0.0925 -0.3844  0.0605
  221POPC   C4A 3081   3.966  -0.200   5.795  0.0743  0.0077 -0.1300
  221POPC   C1B 3082   5.005   0.512   5.539  0.0147 -0.3585  0.0636
  221POPC   C2B 3083   4.899   0.066   5.840  0.0685 -0.0449  0.0060
  221POPC   C3B 3084   5.078  -0.157   6.129 -0.3478  0.1485  0.1130
  221POPC   C4B 3085   4.921  -0.542   6.320  0.1520 -0.1718 -0.3471
  222POPC   NC3 3086   3.479   5.043   3.981 -0.0760 -0.4559  0.4144
  222POPC   PO4 3087   3.864   4.892   4.161 -0.0796 -0.0413  0.0310
  222POPC   GL1 3088   3.851   4.713   4.505  0.0769  0.0594 -0.1834
  222POPC   GL2 3089   4.001   4.405   4.794  0.1529  0.0522 -0.0252
  222POPC   C1A 3090   3.513   4.801   4.814 -0.0426 -0.2915 -0.0044
  222POPC   D2A 3091   3.410   4.885   5.155 -0.1304  0.0761 -0.1424
  222POPC   C3A 3092   3.218   4.762   5.588 -0.2497  0.0227  0.3194
  222POPC   C4A 3093   2.933   4.588   5.996 -0.0513  0.0182  0.3262
  222POPC   C1B 3094   3.871   4.597   5.153 -0.1676 -0.2053  0.1058
  222POPC   C2B 3095   3.752   4.633   5.525 -0.0044  0.1118  0.0244
  222POPC   C3B 3096   3.555   4.531   5.898  0.1884  0.1244  0.0690
  222POPC   C4B 3097   3.286   4.776   6.265 -0.0112 -0.2616 -0.2509
  223POPC   NC3 3098   7.943   7.566   4.264  0.2568  0.0436 -0.1162
  223POPC   PO4 3099   7.613   7.568   4.677  0.0320  0.1621  0.0842
  223POPC   GL1 3100   7.340   7.383   5.054 -0.1103 -0.0976  0.0016
  223POPC   GL2 3101   7.173   7.558   5.287 -0.2872  0.1386 -0.3215
  223POPC   C1A 3102   7.296   7.026   5.364 -0.0143 -0.0946  0.0323
  223POPC   D2A 3103   7.403   6.792   5.693 -0.0897 -0.1243 -0.2524
  223POPC   C3A 3104   7.248   6.590   6.018  0.2160 -0.1065  0.3595
  223POPC   C4A 3105   7.023   6.246   6.218 -0.0692 -0.3668 -0.1936
  223POPC   C1B 3106   7.182   7.302   5.815  0.1906 -0.3238 -0.0295
  223POPC   C2B 3107   7.034   7.579   6.151 -0.0334 -0.2173  0.0694
  223POPC   C3B 3108   7.181   7.662   6.556  0.0612 -0.3140  0.1760
  223POPC   C4B 3109   7.295   7.366   6.872  0.0149  0.0885  0.0378
  224POPC   NC3 3110   9.896   4.816   3.896  0.2453  0.0254  0.0110
  224POPC   PO4 3111  10.020   5.308   3.867 -0.0032  0.4243  0.1442
  224POPC   GL1 3112  10.045   5.214   4.283  0.1204 -0.2907  0.1169
  224POPC   GL2 3113   9.812   5.243   4.545 -0.2721 -0.0707 -0.0219
  224POPC   C1A 3114  10.266   4.902   4.426 -0.0297  0.0531 -0.1044
  224POPC   D2A 3115  10.451   4.571   4.653 -0.1515  0.1002  0.1347
  224POPC   C3A 3116  10.872   4.382   4.824 -0.3885 -0.2587  0.2430
  224POPC   C4A 3117  11.189   4.542   4.792  0.2419 -0.5573  0.0031
  224POPC   C1B 3118  10.067   4.970   4.859 -0.2025  0.1913 -0.2052
  224POPC   C2B 3119  10.442   4.993   4.938 -0.1151 -0.1379  0.0485
  224POPC   C3B 3120  10.827   5.363   4.918 -0.1870  0.1487 -0.0633
  224POPC   C4B 3121  10.638   5.660   5.198 -0.2514  0.3366  0.2239
  225POPC   NC3 3122   8.761   0.503   4.314 -0.1020 -0.1543  0.0285
  225POPC   PO4 3123   8.962   0.831   4.627  0.2151  0.0726 -0.0948
  225POPC   GL1 3124   8.813   0.938   5.004 -0.0720 -0.2203  0.3659
  225POPC   GL2 3125   8.761   1.190   5.277 -0.2642  0.1463 -0.0998
  225POPC   C1A 3126   8.605   0.731   5.391 -0.6201  0.1329  0.1422
  225POPC   D2A 3127   8.703   0.370   5.596  0.2258 -0.3361 -0.0938
  225POPC   C3A 3128   8.959   0.044   5.913 -0.2475 -0.1754  0.1730
  225POPC   C4A 3129   9.285  -0.205   6.050 -0.0019  0.0102 -0.1704
  225POPC   C1B 3130   8.503   1.143   5.637  0.2017  0.2225 -0.1992
  225POPC   C2B 3131   8.558   0.720   5.971  0.0355 -0.0586 -0.0067
  225POPC   C3B 3132   8.374   0.615   6.388  0.0976 -0.5462 -0.0226
  225POPC   C4B 3133   8.286   0.312   6.755  0.0054  0.2263 -0.1334
  226POPC   NC3 3134   8.371   7.739   4.751  0.0701  0.0144 -0.0501
  226POPC   PO4 3135   8.331   8.180   4.626 -0.0547 -0.1028  0.0023
  226POPC   GL1 3136   8.371   8.157   5.016  0.2211  0.0553 -0.1535
  226POPC   GL2 3137   7.978   7.960   5.041  0.3309  0.3372 -0.0891
  226POPC   C1A 3138   8.312   8.110   5.486  0.1521 -0.1398 -0.0598
  226POPC   D2A 3139   8.483   8.207   5.890  0.2172 -0.2239 -0.1926
  226POPC   C3A 3140   8.620   8.272   6.364  0.0105 -0.1303  0.1199
  226POPC   C4A 3141   9.028   8.348   6.416 -0.2840 -0.2590  0.0916
  226POPC   C1B 3142   7.763   7.991   5.471 -0.1050 -0.0123 -0.1282
  226POPC   C2B 3143   7.988   7.937   5.897 -0.0457  0.0199 -0.0877
  226POPC   C3B 3144   8.081   8.208   6.290 -0.1537 -0.0128  0.0255
  226POPC   C4B 3145   8.245   8.486   6.621  0.3318  0.0142 -0.2114
  227POPC   NC3 3146   4.379   5.698   4.631 -0.2155 -0.3791 -0.2521
  227POPC   PO4 3147   4.454   5.325   4.905  0.0101  0.2672 -0.0208
  227POPC   GL1 3148   4.481   5.437   5.322 -0.0859  0.2242  0.0554
  227POPC   GL2 3149   4.334   5.196   5.646 -0.1572 -0.0556 -0.2462
  227POPC   C1A 3150   4.438   5.655   5.730 -0.0847  0.0927  0.1505
  227POPC   D2A 3151   4.617   5.900   6.095  0.1105 -0.4767 -0.0650
  227POPC   C3A 3152   4.952   6.180   6.170 -0.0539 -0.1988  0.0657
  227POPC   C4A 3153   5.090   6.523   6.366  0.0085  0.0175 -0.0943
  227POPC   C1B 3154   4.422   5.261   6.133  0.2043 -0.3159  0.4964
  227POPC   C2B 3155   4.160   5.107   6.404  0.1380 -0.2718 -0.0583
  227POPC   C3B 3156   3.702   5.141   6.428 -0.3616 -0.2115  0.0339
  227POPC   C4B 3157   3.425   4.956   6.697  0.0414  0.1453 -0.3719
  228POPC   NC3 3158   3.155   3.290   4.387  0.0946  0.0094 -0.0610
  228POPC   PO4 3159   3.397   3.011   4.652 -0.1631 -0.4479 -0.0868
  228POPC   GL1 3160   3.418   2.738   5.061  0.0345  0.2481  0.3300
  228POPC   GL2 3161   3.241   2.522   5.105 -0.0325  0.1038  0.1828
  228POPC   C1A 3162   3.503   2.650   5.454  0.2826 -0.1058  0.2969
  228POPC   D2A 3163   3.740   2.481   5.786  0.0582 -0.1371 -0.0043
  228POPC   C3A 3164   3.697   2.637   6.114 -0.1832 -0.2396 -0.1065
  228POPC   C4A 3165   3.552   2.869   6.521  0.0182  0.0504  0.1866
  228POPC   C1B 3166   3.060   2.423   5.482 -0.0842  0.3749  0.3217
  228POPC   C2B 3167   3.160   2.481   5.905  0.0972  0.3588  0.0539
  228POPC   C3B 3168   3.030   2.451   6.408 -0.1691 -0.2865 -0.1189
  228POPC   C4B 3169   2.622   2.241   6.577  0.1045 -0.1208  0.2439
  229POPC   NC3 3170   5.163   5.960   4.836 -0.2630 -0.1038 -0.0469
  229POPC   PO4 3171   4.740   5.972   4.812  0.0748 -0.3191 -0.0926
  229POPC   GL1 3172   4.640   6.303   5.022 -0.2646 -0.0569 -0.2223
  229POPC   GL2 3173   4.391   6.407   4.979  0.0825 -0.0143 -0.1283
  229POPC   C1A 3174   4.726   6.521   5.444  0.3511  0.0781 -0.0408
  229POPC   D2A 3175   4.713   6.556   5.905  0.0494 -0.0465  0.0213
  229POPC   C3A 3176   4.507   6.292   6.389 -0.0325  0.1079  0.0483
  229POPC   C4A 3177   4.411   6.351   6.827  0.0782 -0.0717  0.1090
  229POPC   C1B 3178   4.156   6.584   5.242  0.0670 -0.1690  0.2024
  229POPC   C2B 3179   4.165   6.641   5.608  0.1939 -0.3847  0.1230
  229POPC   C3B 3180   4.261   6.486   6.025 -0.3385 -0.0078 -0.1048
  229POPC   C4B 3181   4.084   6.564   6.426  0.1688  0.1460 -0.0440
  230POPC   NC3 3182   9.804   7.691   3.729  0.2513 -0.0942  0.0350
  230POPC   PO4 3183   9.767   7.911   4.098 -0.2173  0.1825 -0.0585
  230POPC   GL1 3184   9.992   7.875   4.544  0.1044 -0.2608  0.5192
  230POPC   GL2 3185  10.226   7.756   4.530 -0.1653  0.0992  0.2844
  230POPC   C1A 3186  10.021   8.073   4.976  0.1057  0.2175  0.1274
  230POPC   D2A 3187   9.974   8.395   5.325 -0.1992  0.4222 -0.1638
  230POPC   C3A 3188  10.051   8.342   5.784 -0.0210  0.0642  0.1267
  230POPC   C4A 3189  10.264   8.472   6.135 -0.2153 -0.3631  0.2916
  230POPC   C1B 3190  10.517   7.464   4.655 -0.1183 -0.1136 -0.3862
  230POPC   C2B 3191  10.866   7.336   4.948  0.0418 -0.3070  0.0294
  230POPC   C3B 3192  10.875   7.117   5.283  0.4101 -0.0261 -0.0922
  230POPC   C4B 3193  11.025   6.890   5.684  0.0763 -0.1614 -0.0152
  231POPC   NC3 3194   5.491   8.295   4.846 -0.1516  0.2163 -0.1927
  231POPC   PO4 3195   5.898   8.253   4.858 -0.1780  0.0613 -0.0104
  231POPC   GL1 3196   5.742   7.956   5.221  0.3014  0.0999  0.2309
  231POPC   GL2 3197   5.768   7.590   5.330 -0.0376 -0.3263  0.0478
  231POPC   C1A 3198   5.947   7.983   5.668  0.2375  0.0655  0.0681
  231POPC   D2A 3199   6.216   7.859   6.022 -0.0602  0.0781 -0.2082
  231POPC   C3A 3200   6.607   7.832   5.999 -0.0466 -0.1718 -0.0437
  231POPC   C4A 3201   6.889   7.713   5.698  0.1703  0.0581  0.0620
  231POPC   C1B 3202   5.882   7.494   5.688  0.0353 -0.1110 -0.2938
  231POPC   C2B 3203   6.053   7.355   6.063  0.0002 -0.3393  0.5059
  231POPC   C3B 3204   6.152   7.093   6.447  0.2915  0.1783  0.0445
  231POPC   C4B 3205   5.961   6.916   6.883 -0.1681 -0.1593  0.1925
  232POPC   NC3 3206   0.768   0.905   4.163 -0.4089  0.2828 -0.0960
  232POPC   PO4 3207   1.142   1.038   4.220 -0.0856 -0.3187  0.1409
  232POPC   GL1 3208   1.249   1.330   4.486  0.2028  0.0590 -0.0481
  232POPC   GL2 3209   0.994   1.548   4.651  0.1968 -0.1739 -0.0533
  232POPC   C1A 3210   1.380   1.296   5.008 -0.0666 -0.1431 -0.1192
  232POPC   D2A 3211   1.146   1.128   5.403 -0.1388  0.0011 -0.2759
  232POPC   C3A 3212   1.262   0.740   5.599 -0.1262 -0.1084 -0.2170
  232POPC   C4A 3213   1.032   0.413   5.909 -0.2867 -0.2490  0.0994
  232POPC   C1B 3214   0.886   1.357   5.057  0.0405 -0.0700 -0.1045
  232POPC   C2B 3215   0.780   1.483   5.401  0.1099  0.1127  0.0902
  232POPC   C3B 3216   0.872   1.254   5.781  0.0356 -0.1596  0.1620
  232POPC   C4B 3217   1.059   0.958   6.014  0.2722  0.0282 -0.2052
  233POPC   NC3 3218   4.421   1.297   4.236 -0.1450 -0.4432  0.0028
  233POPC   PO4 3219   4.402   1.718   4.532 -0.0631  0.0347 -0.2543
  233POPC   GL1 3220   4.690   1.451   4.835  0.1546 -0.0543  0.2375
  233POPC   GL2 3221   4.519   1.443   5.097  0.0454  0.1637  0.1047
  233POPC   C1A 3222   4.988   1.581   5.131  0.0114  0.0726  0.0789
  233POPC   D2A 3223   5.239   1.306   5.274 -0.3520  0.3295 -0.0940
  233POPC   C3A 3224   5.240   1.228   5.722 -0.3271  0.1310  0.0009
  233POPC   C4A 3225   5.087   1.061   6.193  0.0370 -0.1178  0.1562
  233POPC   C1B 3226   4.716   1.175   5.391 -0.5030 -0.2166  0.0205
  233POPC   C2B 3227   4.792   0.903   5.753  0.1549  0.0176 -0.2902
  233POPC   C3B 3228   4.918   0.584   6.034 -0.1338  0.0005  0.0393
  233POPC   C4B 3229   4.596   0.223   6.285  0.2271 -0.0986 -0.0545
  234POPC   NC3 3230   5.941   3.361   4.347  0.1469 -0.0207  0.1273
  234POPC   PO4 3231   5.481   3.295   4.512 -0.0188 -0.1208  0.0658
  234POPC   GL1 3232   5.400   3.062   4.843 -0.2523 -0.3896 -0.0900
  234POPC   GL2 3233   5.164   3.195   4.967  0.0651 -0.5491 -0.1347
  234POPC   C1A 3234   5.550   3.072   5.295 -0.1675  0.2155  0.0386
  234POPC   D2A 3235   5.572   2.852   5.606 -0.0793 -0.3214  0.1706
  234POPC   C3A 3236   5.835   2.879   6.019 -0.0912 -0.2346 -0.0328
  234POPC   C4A 3237   5.807   3.089   6.427 -0.3059 -0.0931  0.2933
  234POPC   C1B 3238   4.839   3.267   5.361 -0.0997  0.0857 -0.0140
  234POPC   C2B 3239   4.530   3.308   5.679 -0.1129  0.0760 -0.2348
  234POPC   C3B 3240   4.352   3.212   6.046  0.2047  0.2944  0.3366
  234POPC   C4B 3241   4.532   2.999   6.356  0.0193 -0.1059  0.0470
  235POPC   NC3 3242   0.995   4.652   3.436 -0.2753  0.4269 -0.3561
  235POPC   PO4 3243   0.850   5.204   3.275  0.0463  0.2630 -0.1331
  235POPC   GL1 3244   0.888   5.280   3.679 -0.2108 -0.2675 -0.0390
  235POPC   GL2 3245   0.975   5.634   3.807 -0.3812 -0.2401  0.0815
  235POPC   C1A 3246   0.722   5.147   4.076 -0.3164  0.0543  0.1672
  235POPC   D2A 3247   0.692   5.190   4.484 -0.2736  0.3449  0.1514
  235POPC   C3A 3248   1.020   4.986   4.647 -0.0936 -0.1126 -0.2634
  235POPC   C4A 3249   1.443   5.038   4.447  0.3467  0.3233 -0.0317
  235POPC   C1B 3250   1.400   5.772   4.101  0.0586 -0.1632  0.2135
  235POPC   C2B 3251   1.579   5.512   4.349  0.2874 -0.3914 -0.0733
  235POPC   C3B 3252   1.796   5.584   4.834  0.3191 -0.2345  0.0116
  235POPC   C4B 3253   1.685   5.662   5.152  0.2330  0.2679 -0.1903
  236POPC   NC3 3254   6.078   2.159   4.749  0.4183 -0.1005  0.0796
  236POPC   PO4 3255   6.571   2.265   4.765  0.0877 -0.1837  0.0811
  236POPC   GL1 3256   6.492   2.322   5.195 -0.2081 -0.4165 -0.0221
  236POPC   GL2 3257   6.266   2.052   5.220 -0.0116  0.0932  0.3111
  236POPC   C1A 3258   6.538   2.357   5.648 -0.0874 -0.1838  0.1611
  236POPC   D2A 3259   6.253   2.493   6.001  0.2162 -0.3647  0.0162
  236POPC   C3A 3260   6.512   2.506   6.442 -0.0793  0.0212  0.0378
  236POPC   C4A 3261   6.429   2.576   6.871  0.0031  0.0395 -0.0796
  236POPC   C1B 3262   5.865   2.090   5.398 -0.1422 -0.1477  0.1339
  236POPC   C2B 3263   5.645   1.975   5.686  0.0776 -0.1841  0.0293
  236POPC   C3B 3264   5.369   1.713   5.811 -0.0609  0.0129  0.0917
  236POPC   C4B 3265   4.905   1.633   5.622  0.0160 -0.3221  0.1861
  237POPC   NC3 3266   3.880   3.157   4.402 -0.2456  0.3921  0.1150
  237POPC   PO4 3267   3.591   3.505   4.441  0.1737  0.1041 -0.2123
  237POPC   GL1 3268   3.290   3.497   4.813  0.2055  0.3119  0.3277
  237POPC   GL2 3269   3.548   3.356   5.105  0.0695 -0.1369  0.0265
  237POPC   C1A 3270   3.157   3.958   5.007  0.3434  0.0836 -0.3016
  237POPC   D2A 3271   2.794   4.220   5.117  0.1584 -0.0827 -0.0468
  237POPC   C3A 3272   2.387   4.327   5.158 -0.3432  0.2463  0.1039
  237POPC   C4A 3273   2.002   4.317   5.352  0.4383 -0.4687  0.2231
  237POPC   C1B 3274   3.521   3.154   5.470 -0.0103  0.2883  0.0582
  237POPC   C2B 3275   3.393   2.970   5.921  0.0083  0.1039 -0.0314
  237POPC   C3B 3276   3.367   3.303   6.324  0.2866 -0.2062  0.0856
  237POPC   C4B 3277   3.600   3.702   6.369  0.2382 -0.2164 -0.1577
  238POPC   NC3 3278   1.812   7.304   3.648  0.1887 -0.1466  0.2710
  238POPC   PO4 3279   1.745   7.676   3.636  0.4881  0.0096  0.2804
  238POPC   GL1 3280   1.727   7.573   4.017 -0.1078 -0.0600 -0.4206
  238POPC   GL2 3281   1.602   7.603   4.280 -0.2732 -0.0411 -0.2626
  238POPC   C1A 3282   1.894   7.170   4.262 -0.2630  0.0876 -0.3810
  238POPC   D2A 3283   2.091   7.216   4.692 -0.3786  0.1040 -0.2066
  238POPC   C3A 3284   2.290   7.326   5.114 -0.1548 -0.1105 -0.0719
  238POPC   C4A 3285   2.264   7.527   5.547 -0.3506  0.1564  0.1556
  238POPC   C1B 3286   1.708   7.654   4.659  0.2519  0.0644  0.0512
  238POPC   C2B 3287   1.793   7.525   5.173  0.0251  0.1634  0.1821
  238POPC   C3B 3288   1.726   7.462   5.514  0.0648  0.2033  0.1759
  238POPC   C4B 3289   1.434   7.259   5.730  0.0234 -0.0783 -0.1736
  239POPC   NC3 3290   7.786   7.057   4.786 -0.1320 -0.0525  0.0968
  239POPC   PO4 3291   8.042   7.274   4.676  0.0557  0.2059  0.0409
  239POPC   GL1 3292   8.082   7.427   5.055  0.0974 -0.1869 -0.1130
  239POPC   GL2 3293   7.853   7.475   5.091 -0.1373  0.4479  0.1357
  239POPC   C1A 3294   8.147   7.614   5.508  0.0373 -0.0865 -0.0341
  239POPC   D2A 3295   8.442   7.711   5.731  0.2436  0.0861 -0.0029
  239POPC   C3A 3296   8.378   7.824   6.187 -0.0245  0.1457 -0.3272
  239POPC   C4A 3297   8.366   8.001   6.657 -0.0209  0.0983 -0.3041
  239POPC   C1B 3298   7.626   7.558   5.423  0.0665 -0.0613  0.1474
  239POPC   C2B 3299   7.460   7.696   5.846  0.0742 -0.0133 -0.1151
  239POPC   C3B 3300   7.602   7.832   6.201  0.1979 -0.2513  0.2081
  239POPC   C4B 3301   7.440   8.098   6.495 -0.1263  0.0312  0.3410
  240POPC   NC3 3302   0.710   1.374   4.205  0.0928  0.1993  0.2684
  240POPC   PO4 3303   0.417   1.321   4.539 -0.0274 -0.1034  0.2916
  240POPC   GL1 3304   0.397   1.257   4.996 -0.2001 -0.0087  0.1428
  240POPC   GL2 3305   0.112   1.287   5.229  0.2196 -0.0174  0.0051
  240POPC   C1A 3306   0.638   0.997   5.303 -0.4934  0.2953  0.2872
  240POPC   D2A 3307   0.594   0.830   5.758  0.0830 -0.1100 -0.1976
  240POPC   C3A 3308   0.645   1.167   6.171 -0.0843 -0.2026 -0.4158
  240POPC   C4A 3309   0.801   1.287   6.579  0.1481 -0.2095 -0.0572
  240POPC   C1B 3310   0.353   1.237   5.658 -0.1421  0.1297 -0.0930
  240POPC   C2B 3311   0.201   1.331   6.043 -0.0435 -0.0116  0.1622
  240POPC   C3B 3312   0.390   1.521   6.393  0.1795 -0.0060  0.1131
  240POPC   C4B 3313   0.654   1.974   6.381 -0.1100  0.2291 -0.3483
  241POPC   NC3 3314   0.205   6.785   3.952 -0.0032 -0.1593  0.0362
  241POPC   PO4 3315   0.101   7.305   3.937  0.0801  0.1618 -0.0008
  241POPC   GL1 3316   0.072   7.080   4.317 -0.0266  0.0290 -0.2270
  241POPC   GL2 3317  -0.029   7.323   4.419 -0.1944 -0.1416  0.0077
  241POPC   C1A 3318   0.137   6.686   4.542  0.0006 -0.5064  0.0363
  241POPC   D2A 3319   0.045   6.587   4.946 -0.0884  0.3207  0.2261
  241POPC   C3A 3320  -0.117   6.842   5.281 -0.1439 -0.0112 -0.0343
  241POPC   C4A 3321  -0.264   6.798   5.633  0.1487  0.0345 -0.0582
  241POPC   C1B 3322   0.082   7.086   4.823 -0.0685 -0.1583 -0.1980
  241POPC   C2B 3323   0.187   7.269   5.261  0.0624 -0.1108  0.1670
  241POPC   C3B 3324   0.005   7.256   5.684 -0.1825  0.4710  0.1083
  241POPC   C4B 3325  -0.333   7.268   5.983  0.1010 -0.1711  0.1389
  242POPC   NC3 3326   7.706   3.215   4.835  0.0409  0.0321 -0.0527
  242POPC   PO4 3327   7.877   2.792   4.841 -0.0479  0.0950 -0.3010
  242POPC   GL1 3328   7.720   2.881   5.194  0.0161 -0.1872  0.0177
  242POPC   GL2 3329   7.623   2.611   5.356 -0.2335  0.1932  0.0539
  242POPC   C1A 3330   7.687   3.152   5.555  0.1378 -0.0258 -0.1415
  242POPC   D2A 3331   7.737   3.264   5.987 -0.0132  0.1990 -0.0860
  242POPC   C3A 3332   7.885   2.918   6.232  0.1396 -0.1087 -0.1589
  242POPC   C4A 3333   8.047   2.560   6.343 -0.0541  0.3152 -0.0892
  242POPC   C1B 3334   7.978   2.733   5.636  0.4713 -0.0226 -0.2503
  242POPC   C2B 3335   8.339   2.873   5.906  0.1425 -0.0432 -0.0617
  242POPC   C3B 3336   8.453   2.912   6.313  0.1509 -0.3981 -0.0090
  242POPC   C4B 3337   8.304   2.777   6.709  0.2834  0.2281 -0.1478
  243POPC   NC3 3338   2.662   1.966   4.405 -0.0892  0.0149 -0.3272
  243POPC   PO4 3339   3.054   2.008   4.521 -0.1076  0.1179 -0.2814
  243POPC   GL1 3340   2.813   2.001   4.876  0.1152  0.2538  0.1515
  243POPC   GL2 3341   2.588   1.726   4.906  0.0782  0.0319  0.4090
  243POPC   C1A 3342   2.660   2.249   5.198 -0.0787  0.0366 -0.2103
  243POPC   D2A 3343   2.578   2.365   5.666 -0.1976  0.1236  0.1004
  243POPC   C3A 3344   2.571   2.044   5.940 -0.3863 -0.1460  0.0642
  243POPC   C4A 3345   2.934   1.969   6.185  0.1571  0.5092  0.4033
  243POPC   C1B 3346   2.514   1.776   5.322  0.0081 -0.2140  0.3117
  243POPC   C2B 3347   2.267   1.741   5.679 -0.2155  0.0642 -0.2046
  243POPC   C3B 3348   2.354   1.641   6.084  0.2400 -0.2094  0.2949
  243POPC   C4B 3349   2.512   1.446   6.462  0.1676 -0.0856  0.4215
  244POPC   NC3 3350   3.713   1.634   4.686  0.0620 -0.1224  0.1472
  244POPC   PO4 3351   4.082   1.504   4.788  0.0407  0.0250 -0.2315
  244POPC   GL1 3352   3.999   1.665   5.119  0.0939  0.0428 -0.2374
  244POPC   GL2 3353   3.663   1.628   5.182 -0.3031  0.2417  0.1515
  244POPC   C1A 3354   4.078   1.370   5.383  0.2411 -0.2329  0.1020
  244POPC   D2A 3355   4.298   1.065   5.626  0.1297 -0.0135 -0.0238
  244POPC   C3A 3356   4.051   0.757   5.795 -0.5078  0.0972 -0.2607
  244POPC   C4A 3357   3.717   0.757   6.125 -0.2041 -0.3049  0.0940
  244POPC   C1B 3358   3.731   1.702   5.608  0.0773  0.3961 -0.0809
  244POPC   C2B 3359   3.778   1.718   6.066 -0.3575  0.1018  0.3326
  244POPC   C3B 3360   3.919   1.990   6.421  0.4276  0.2349  0.1012
  244POPC   C4B 3361   3.875   2.317   6.784 -0.0704  0.2528  0.2325
  245POPC   NC3 3362   7.624   0.725   4.627  0.0936  0.1918  0.1151
  245POPC   PO4 3363   7.988   0.724   4.726 -0.0120 -0.0745 -0.1287
  245POPC   GL1 3364   8.167   0.583   5.096  0.0317 -0.0657  0.0806
  245POPC   GL2 3365   8.148   0.879   5.158 -0.1874  0.2532 -0.2776
  245POPC   C1A 3366   8.088   0.512   5.564  0.0833 -0.1011 -0.3306
  245POPC   D2A 3367   7.673   0.301   5.734 -0.1543  0.0271 -0.0350
  245POPC   C3A 3368   7.584   0.360   6.116 -0.1365  0.1647 -0.0393
  245POPC   C4A 3369   7.536   0.785   6.329  0.1179 -0.0140  0.0992
  245POPC   C1B 3370   7.987   1.008   5.561 -0.0827 -0.3381  0.1743
  245POPC   C2B 3371   7.580   0.858   5.720 -0.1184 -0.0974  0.2253
  245POPC   C3B 3372   7.214   0.728   5.907 -0.1304 -0.1962 -0.0617
  245POPC   C4B 3373   6.913   0.896   6.128  0.4974 -0.2189  0.0747
  246POPC   NC3 3374   5.987   3.855   4.978  0.2990  0.0475 -0.3774
  246POPC   PO4 3375   6.247   3.589   4.761  0.0815  0.1086 -0.0696
  246POPC   GL1 3376   6.389   3.653   5.247 -0.1508 -0.0958  0.0283
  246POPC   GL2 3377   6.270   3.816   5.544  0.0529 -0.0019 -0.1965
  246POPC   C1A 3378   6.568   3.370   5.546 -0.1113  0.0265 -0.0702
  246POPC   D2A 3379   7.007   3.309   5.554  0.1778 -0.0321 -0.0370
  246POPC   C3A 3380   7.221   3.084   5.801  0.3422  0.0074  0.1461
  246POPC   C4A 3381   7.427   2.807   5.935  0.1170 -0.0912  0.2041
  246POPC   C1B 3382   6.024   3.874   5.998  0.0427  0.3499  0.2235
  246POPC   C2B 3383   6.170   3.986   6.453  0.1836 -0.1970 -0.1334
  246POPC   C3B 3384   6.126   3.988   6.836  0.2056  0.0149  0.0802
  246POPC   C4B 3385   5.880   3.782   7.129  0.0945 -0.1016  0.0721
  247POPC   NC3 3386   1.278   1.909   4.442  0.0970  0.0016 -0.0383
  247POPC   PO4 3387   1.699   1.757   4.466  0.0071 -0.2223 -0.4048
  247POPC   GL1 3388   1.561   1.834   4.910  0.2262  0.1513 -0.2167
  247POPC   GL2 3389   1.242   1.800   5.005 -0.2228  0.0204  0.3615
  247POPC   C1A 3390   1.715   2.171   5.262  0.0659 -0.2083  0.0403
  247POPC   D2A 3391   1.588   2.536   5.417 -0.2049 -0.2158  0.0026
  247POPC   C3A 3392   1.396   2.645   5.869  0.0460 -0.0797  0.1053
  247POPC   C4A 3393   1.419   2.948   6.246 -0.3890  0.1612 -0.2401
  247POPC   C1B 3394   1.266   1.615   5.392 -0.2156  0.0685  0.0754
  247POPC   C2B 3395   1.060   1.733   5.727 -0.0753  0.1665  0.0560
  247POPC   C3B 3396   0.994   2.027   5.989  0.2934  0.0498 -0.1449
  247POPC   C4B 3397   1.089   2.409   6.272  0.1890  0.1278 -0.3295
  248POPC   NC3 3398   9.011   2.181   4.858 -0.0015  0.1988  0.1591
  248POPC   PO4 3399   8.570   2.348   4.960  0.2829  0.0889  0.0015
  248POPC   GL1 3400   8.494   2.027   5.320 -0.3357  0.0056  0.0169
  248POPC   GL2 3401   8.789   2.060   5.292  0.0530 -0.2910 -0.1620
  248POPC   C1A 3402   8.356   1.949   5.650 -0.1106  0.0217 -0.2464
  248POPC   D2A 3403   8.128   2.052   6.004 -0.1056  0.0956 -0.1769
  248POPC   C3A 3404   8.237   1.840   6.380 -0.0181 -0.1534  0.3834
  248POPC   C4A 3405   8.303   1.491   6.544 -0.1759  0.0800  0.3116
  248POPC   C1B 3406   8.913   2.013   5.701  0.0695  0.0477  0.0164
  248POPC   C2B 3407   9.119   1.840   6.027 -0.1686 -0.0483  0.1600
  248POPC   C3B 3408   9.315   1.771   6.439  0.0840 -0.1403 -0.1234
  248POPC   C4B 3409   9.228   1.709   6.778  0.0669  0.1273 -0.0668
  249POPC   NC3 3410   6.784   1.914   4.997  0.0020 -0.4332  0.3209
  249POPC   PO4 3411   7.223   1.902   5.043 -0.0077  0.2977 -0.4552
  249POPC   GL1 3412   7.019   1.784   5.490  0.1522  0.0907  0.2814
  249POPC   GL2 3413   7.325   1.724   5.606 -0.0822  0.2398 -0.0523
  249POPC   C1A 3414   6.908   1.862   5.879  0.0475 -0.0435  0.0558
  249POPC   D2A 3415   6.534   2.060   6.099 -0.2438 -0.3191 -0.3289
  249POPC   C3A 3416   6.453   1.729   6.359 -0.5763  0.1185  0.1463
  249POPC   C4A 3417   6.686   1.459   6.458 -0.0809  0.1040 -0.0993
  249POPC   C1B 3418   7.410   1.797   6.099  0.1660 -0.0080  0.0643
  249POPC   C2B 3419   7.407   1.675   6.451  0.0343  0.1583  0.1296
  249POPC   C3B 3420   7.621   1.279   6.640  0.2910 -0.5395  0.2342
  249POPC   C4B 3421   7.620   0.951   6.801 -0.3453  0.0951 -0.2660
  250POPC   NC3 3422   5.374   7.278   4.592 -0.0577  0.2406 -0.2912
  250POPC   PO4 3423   5.002   7.071   4.644 -0.1084  0.0731 -0.2525
  250POPC   GL1 3424   4.781   7.045   4.975  0.1690  0.0363  0.2822
  250POPC   GL2 3425   4.723   7.414   5.101 -0.4226 -0.0435  0.1834
  250POPC   C1A 3426   4.389   7.001   5.162  0.0128  0.0988  0.1198
  250POPC   D2A 3427   4.180   7.181   5.566 -0.1700  0.1677  0.2249
  250POPC   C3A 3428   4.461   7.068   5.915  0.1757 -0.3053  0.3486
  250POPC   C4A 3429   4.498   6.951   6.252 -0.4614  0.1875  0.1522
  250POPC   C1B 3430   4.690   7.286   5.523  0.0403  0.4378  0.0317
  250POPC   C2B 3431   4.890   7.377   5.860  0.3183 -0.2256 -0.0213
  250POPC   C3B 3432   4.728   7.408   6.234 -0.1509 -0.0599 -0.1658
  250POPC   C4B 3433   4.546   7.315   6.599 -0.2801 -0.1728 -0.0212
  251POPC   NC3 3434   0.544   8.114   4.245 -0.1192  0.2747 -0.0605
  251POPC   PO4 3435   0.788   8.465   4.366 -0.1887 -0.0127 -0.0799
  251POPC   GL1 3436   1.004   8.330   4.755 -0.0138  0.0305  0.0803
  251POPC   GL2 3437   1.338   8.366   4.729 -0.0660  0.0495 -0.1499
  251POPC   C1A 3438   1.015   8.168   5.123 -0.3837  0.3089  0.5303
  251POPC   D2A 3439   0.872   8.034   5.593  0.0797  0.0530  0.0921
  251POPC   C3A 3440   0.448   7.938   5.615 -0.1452 -0.1961  0.0524
  251POPC   C4A 3441   0.407   7.906   6.018  0.0715 -0.0458  0.0971
  251POPC   C1B 3442   1.633   8.318   5.062  0.1776 -0.0998 -0.3714
  251POPC   C2B 3443   1.778   8.073   5.442  0.1856 -0.0134  0.1175
  251POPC   C3B 3444   2.012   7.807   5.831  0.0042 -0.1013  0.3293
  251POPC   C4B 3445   1.953   7.453   6.101 -0.2067 -0.2868  0.0554
  252POPC   NC3 3446   7.423   1.400   4.821  0.1468  0.1862 -0.2045
  252POPC   PO4 3447   7.309   0.963   4.901 -0.0014 -0.2036  0.2094
  252POPC   GL1 3448   7.383   1.246   5.343  0.0283 -0.3298 -0.1552
  252POPC   GL2 3449   7.684   1.461   5.429  0.1338  0.0062 -0.3337
  252POPC   C1A 3450   7.106   1.291   5.664  0.2046 -0.1038 -0.1825
  252POPC   D2A 3451   6.874   1.374   5.934 -0.0562  0.1294 -0.2471
  252POPC   C3A 3452   6.431   1.429   5.959  0.0909 -0.2149 -0.1019
  252POPC   C4A 3453   6.065   1.328   6.199 -0.2187  0.2657 -0.0968
  252POPC   C1B 3454   7.526   1.363   5.858 -0.3504  0.0230  0.0177
  252POPC   C2B 3455   7.312   1.286   6.241 -0.0821  0.0886  0.0102
  252POPC   C3B 3456   7.144   1.065   6.587  0.0743 -0.1490 -0.0807
  252POPC   C4B 3457   6.893   1.038   6.961  0.1709 -0.2354 -0.0780
  253POPC   NC3 3458   6.031   4.045   4.523 -0.1024  0.0300 -0.0254
  253POPC   PO4 3459   5.750   3.776   4.578  0.0176  0.0663  0.0464
  253POPC   GL1 3460   5.522   3.610   4.963 -0.0094  0.0933  0.1137
  253POPC   GL2 3461   5.781   3.406   5.083 -0.2298  0.0959 -0.0446
  253POPC   C1A 3462   5.107   3.653   5.295  0.0134 -0.0241 -0.0238
  253POPC   D2A 3463   4.706   3.742   5.547 -0.0143 -0.3928 -0.1242
  253POPC   C3A 3464   4.570   3.755   5.956  0.1832  0.2541  0.2744
  253POPC   C4A 3465   4.544   4.077   6.255  0.3094 -0.1484  0.0097
  253POPC   C1B 3466   5.509   3.539   5.468  0.1664 -0.3095  0.2353
  253POPC   C2B 3467   5.128   3.476   5.757  0.2274 -0.0249  0.2279
  253POPC   C3B 3468   4.848   3.333   6.058 -0.0285 -0.0415  0.0527
  253POPC   C4B 3469   4.635   3.476   6.410 -0.5388 -0.0808  0.2351
  254POPC   NC3 3470   3.861   0.218   4.253 -0.0134  0.3307 -0.0190
  254POPC   PO4 3471   3.604   0.161   4.609 -0.0591  0.1382  0.2247
  254POPC   GL1 3472   3.535   0.170   5.016  0.0024  0.0538  0.3489
  254POPC   GL2 3473   3.823   0.295   5.186 -0.3768  0.0219 -0.2507
  254POPC   C1A 3474   3.415   0.253   5.386  0.1300  0.0712  0.2044
  254POPC   D2A 3475   3.138   0.370   5.836  0.2114 -0.0854  0.1813
  254POPC   C3A 3476   3.362   0.399   6.166  0.1245  0.2808  0.1845
  254POPC   C4A 3477   3.625   0.411   6.573 -0.1476 -0.0196  0.0717
  254POPC   C1B 3478   4.150   0.303   5.494 -0.2658  0.0936  0.1732
  254POPC   C2B 3479   4.441   0.485   5.881  0.1000 -0.2695 -0.0851
  254POPC   C3B 3480   4.509   0.787   6.207 -0.2337 -0.0211  0.1394
  254POPC   C4B 3481   4.696   0.816   6.631 -0.1286  0.1151  0.1767
  255POPC   NC3 3482   8.099   5.336   4.497  0.1179  0.0864  0.0099
  255POPC   PO4 3483   8.046   5.725   4.743  0.0015  0.1974  0.0203
  255POPC   GL1 3484   8.079   5.797   5.222  0.1915  0.3108  0.1276
  255POPC   GL2 3485   8.333   5.776   5.311 -0.2057  0.1225  0.0559
  255POPC   C1A 3486   7.903   6.014   5.544  0.0549 -0.1530  0.3054
  255POPC   D2A 3487   7.912   5.837   6.015  0.0115  0.5669  0.0724
  255POPC   C3A 3488   7.900   5.939   6.413 -0.0336 -0.0055 -0.1792
  255POPC   C4A 3489   7.845   5.898   6.836 -0.0732  0.0014  0.0473
  255POPC   C1B 3490   8.363   5.782   5.679 -0.1412  0.3939 -0.2591
  255POPC   C2B 3491   8.390   5.905   6.139 -0.1997  0.0610 -0.0745
  255POPC   C3B 3492   8.412   6.206   6.458  0.2578 -0.2901 -0.1824
  255POPC   C4B 3493   8.241   6.409   6.778 -0.2637 -0.1700 -0.1287
  256POPC   NC3 3494   8.282   9.750   4.864  0.3388 -0.0917 -0.0712
  256POPC   PO4 3495   8.631  10.044   4.593  0.2127 -0.0047 -0.0696
  256POPC   GL1 3496   8.554  10.142   5.034 -0.0068 -0.0713  0.1759
  256POPC   GL2 3497   8.794  10.365   5.058  0.1882 -0.5100 -0.0211
  256POPC   C1A 3498   8.612   9.895   5.458  0.1509  0.1605  0.1671
  256POPC   D2A 3499   8.610   9.609   5.743 -0.0559  0.3013 -0.3371
  256POPC   C3A 3500   8.205   9.526   5.880 -0.0058  0.1277  0.0720
  256POPC   C4A 3501   7.788   9.281   5.984 -0.0562  0.1013  0.0095
  256POPC   C1B 3502   9.097  10.488   5.325  0.1011 -0.3517  0.0261
  256POPC   C2B 3503   9.191  10.920   5.518 -0.1383 -0.1847  0.1648
  256POPC   C3B 3504   9.349  10.970   5.808 -0.1827  0.0866 -0.1784
  256POPC   C4B 3505   9.312  11.308   6.143  0.2823 -0.1170 -0.0519
  257POPC   NC3 3506   8.664   4.023   4.658 -0.3284  0.0273 -0.1219
  257POPC   PO4 3507   8.455   3.628   4.690 -0.2514  0.4685 -0.1879
  257POPC   GL1 3508   8.587   3.854   5.108  0.2694 -0.1135  0.1399
  257POPC   GL2 3509   8.759   4.133   5.124  0.0699  0.1062 -0.0030
  257POPC   C1A 3510   8.630   3.610   5.367  0.1847 -0.4245 -0.1835
  257POPC   D2A 3511   8.886   3.275   5.599 -0.1082 -0.1650  0.0875
  257POPC   C3A 3512   8.742   3.334   6.039 -0.0507  0.3317  0.0826
  257POPC   C4A 3513   8.597   3.408   6.395 -0.1050 -0.2004  0.1062
  257POPC   C1B 3514   8.883   4.036   5.554  0.0243  0.0224 -0.2247
  257POPC   C2B 3515   8.683   4.253   5.976 -0.0244 -0.0074 -0.1539
  257POPC   C3B 3516   8.815   4.390   6.425  0.2696  0.1178 -0.1974
  257POPC   C4B 3517   9.077   4.295   6.664 -0.1113 -0.0949 -0.2739
  258POPC   NC3 3518   9.498   0.325   4.313 -0.1603  0.1368  0.1183
  258POPC   PO4 3519   9.662  -0.060   4.308  0.2558  0.0971 -0.2685
  258POPC   GL1 3520   9.657  -0.020   4.779 -0.1018 -0.1499  0.0036
  258POPC   GL2 3521   9.333  -0.034   4.957  0.2394 -0.2673  0.1359
  258POPC   C1A 3522   9.607   0.350   5.089 -0.0741 -0.0566 -0.0202
  258POPC   D2A 3523   9.629   0.605   5.474  0.3306  0.0402 -0.0057
  258POPC   C3A 3524   9.689   0.965   5.453  0.0475  0.3444  0.1123
  258POPC   C4A 3525   9.800   1.234   5.753  0.1796 -0.0488 -0.1764
  258POPC   C1B 3526   9.060   0.042   5.226 -0.1594  0.1371  0.0522
  258POPC   C2B 3527   9.097  -0.253   5.577 -0.2365 -0.0544 -0.0760
  258POPC   C3B 3528   9.509  -0.553   5.698  0.4512 -0.0114 -0.2090
  258POPC   C4B 3529   9.931  -0.619   6.018 -0.4500 -0.0223  0.3816
  259POPC   NC3 3530   0.910   3.794   3.246  0.3088 -0.3440 -0.0384
  259POPC   PO4 3531   1.181   4.177   3.466 -0.1879 -0.1775  0.0412
  259POPC   GL1 3532   1.204   4.314   3.931 -0.0169  0.0196 -0.1212
  259POPC   GL2 3533   1.427   4.068   4.133  0.0071  0.3814 -0.0219
  259POPC   C1A 3534   1.371   4.510   4.326  0.2318  0.1113  0.0359
  259POPC   D2A 3535   1.800   4.616   4.545  0.0250 -0.0544 -0.0443
  259POPC   C3A 3536   1.628   4.863   4.850 -0.0398  0.2644  0.1751
  259POPC   C4A 3537   1.790   4.798   5.234 -0.0548  0.1406 -0.1505
  259POPC   C1B 3538   1.175   4.046   4.445  0.0256 -0.1327  0.0317
  259POPC   C2B 3539   1.254   4.094   4.851 -0.1848  0.1286 -0.2801
  259POPC   C3B 3540   1.159   4.268   5.214 -0.2179  0.2035 -0.2498
  259POPC   C4B 3541   1.517   4.466   5.486 -0.0341  0.2322 -0.2546
  260POPC   NC3 3542   9.747   2.197   4.389 -0.0185 -0.3659 -0.0086
  260POPC   PO4 3543   9.980   2.277   4.763  0.1479  0.1652 -0.2555
  260POPC   GL1 3544   9.922   2.053   5.070 -0.0411  0.1622  0.1511
  260POPC   GL2 3545   9.823   1.729   5.083  0.1365 -0.0012 -0.1669
  260POPC   C1A 3546   9.754   2.182   5.417  0.0578  0.1098  0.0044
  260POPC   D2A 3547   9.865   2.198   5.884 -0.2271 -0.1112  0.2662
  260POPC   C3A 3548   9.656   2.309   6.269  0.0831  0.2980 -0.1109
  260POPC   C4A 3549   9.658   2.067   6.591 -0.2421 -0.2762  0.1202
  260POPC   C1B 3550   9.906   1.696   5.515  0.0207 -0.0779 -0.0359
  260POPC   C2B 3551  10.147   1.773   5.823 -0.3421 -0.0408  0.0205
  260POPC   C3B 3552  10.567   1.649   5.933  0.2934 -0.0701  0.0089
  260POPC   C4B 3553  10.953   1.525   6.196 -0.1559 -0.0553 -0.1485
  261POPC   NC3 3554   7.906   3.541   4.305 -0.3832  0.0498  0.1751
  261POPC   PO4 3555   7.897   3.655   4.677 -0.1200 -0.0873 -0.1451
  261POPC   GL1 3556   8.114   3.605   5.076  0.1166 -0.0479 -0.3169
  261POPC   GL2 3557   8.118   3.276   5.075  0.1633  0.3895  0.0457
  261POPC   C1A 3558   7.947   3.580   5.599 -0.1510  0.0355 -0.1353
  261POPC   D2A 3559   7.942   3.723   6.003  0.0528 -0.1708 -0.0091
  261POPC   C3A 3560   7.641   3.601   6.352  0.2648 -0.1643 -0.1384
  261POPC   C4A 3561   7.482   3.695   6.770 -0.0257 -0.0058 -0.0426
  261POPC   C1B 3562   8.303   3.190   5.528  0.2989 -0.4587  0.1212
  261POPC   C2B 3563   8.258   3.304   6.028  0.2595 -0.1182  0.3275
  261POPC   C3B 3564   8.111   3.316   6.401  0.7750  0.0013 -0.0109
  261POPC   C4B 3565   8.292   3.353   6.829  0.0756 -0.1423  0.1158
  262POPC   NC3 3566   5.335   4.046   4.739  0.0062 -0.5786  0.3596
  262POPC   PO4 3567   5.640   4.314   4.886 -0.3662  0.2746  0.0221
  262POPC   GL1 3568   5.843   4.198   5.394  0.4271  0.1690  0.0367
  262POPC   GL2 3569   5.741   3.940   5.558  0.3182  0.1675 -0.0869
  262POPC   C1A 3570   5.481   4.367   5.632 -0.0353 -0.0668 -0.1190
  262POPC   D2A 3571   5.227   4.628   5.909  0.0384  0.1226 -0.0727
  262POPC   C3A 3572   5.041   4.595   6.226  0.2413 -0.3527 -0.3126
  262POPC   C4A 3573   4.856   4.337   6.467 -0.1375  0.0256  0.2361
  262POPC   C1B 3574   5.438   3.891   5.783 -0.2118 -0.1008  0.3184
  262POPC   C2B 3575   5.090   4.019   5.783  0.1026 -0.0131  0.1105
  262POPC   C3B 3576   4.776   4.386   5.823 -0.0226  0.0670 -0.3087
  262POPC   C4B 3577   4.566   4.818   5.895 -0.0604 -0.1738  0.1290
  263POPC   NC3 3578   6.849   0.843   5.002  0.5068 -0.1312 -0.2621
  263POPC   PO4 3579   6.477   1.264   4.894  0.1554 -0.0246  0.2175
  263POPC   GL1 3580   6.496   1.510   5.263  0.2119 -0.2389 -0.0351
  263POPC   GL2 3581   6.684   1.362   5.521 -0.0490 -0.1080  0.2946
  263POPC   C1A 3582   6.316   1.776   5.608 -0.1050 -0.0258 -0.0941
  263POPC   D2A 3583   6.123   2.043   5.876  0.3735 -0.3403 -0.1118
  263POPC   C3A 3584   6.135   2.147   6.344 -0.2779  0.1472 -0.2100
  263POPC   C4A 3585   6.389   2.080   6.712  0.1620  0.0004  0.1654
  263POPC   C1B 3586   6.778   0.865   5.637  0.0759 -0.0851  0.2708
  263POPC   C2B 3587   6.783   0.482   5.773  0.0179  0.0163 -0.0762
  263POPC   C3B 3588   6.872   0.350   6.157 -0.0295  0.2321  0.2406
  263POPC   C4B 3589   7.229   0.222   6.493 -0.5054  0.1527 -0.0369
  264POPC   NC3 3590   7.063   7.799   4.865 -0.0967  0.1767 -0.0781
  264POPC   PO4 3591   6.948   8.257   4.923 -0.1302 -0.0340  0.1428
  264POPC   GL1 3592   6.525   8.491   5.159  0.0618  0.0531 -0.0469
  264POPC   GL2 3593   6.332   8.296   5.245  0.3491  0.1377 -0.3672
  264POPC   C1A 3594   6.588   8.702   5.534 -0.0310  0.3646 -0.2008
  264POPC   D2A 3595   6.681   8.915   5.964  0.0639  0.2315  0.1549
  264POPC   C3A 3596   6.471   9.052   6.243 -0.3163 -0.0473 -0.4011
  264POPC   C4A 3597   6.386   9.385   6.484 -0.1299  0.4338 -0.1388
  264POPC   C1B 3598   6.188   8.448   5.774 -0.0408  0.1658  0.1713
  264POPC   C2B 3599   6.110   8.779   6.044 -0.1955  0.1667  0.0378
  264POPC   C3B 3600   5.993   9.054   6.252  0.2367 -0.2357 -0.3187
  264POPC   C4B 3601   5.726   9.320   6.527 -0.0585  0.0644 -0.2528
  265POPC   NC3 3602   5.306   8.301   4.332  0.1650 -0.0197 -0.2208
  265POPC   PO4 3603   4.993   8.203   4.714  0.2402 -0.0780  0.2126
  265POPC   GL1 3604   4.981   7.994   5.137 -0.3187  0.2376 -0.1445
  265POPC   GL2 3605   5.251   7.981   5.160  0.0099  0.0570  0.0646
  265POPC   C1A 3606   4.844   7.805   5.558 -0.2780  0.1059  0.4196
  265POPC   D2A 3607   4.876   7.857   5.934 -0.2290  0.0528 -0.3087
  265POPC   C3A 3608   5.264   8.189   6.166  0.0736  0.0596 -0.1104
  265POPC   C4A 3609   5.528   8.243   6.637 -0.0035  0.1461  0.1081
  265POPC   C1B 3610   5.225   8.223   5.590  0.3382 -0.2444 -0.3349
  265POPC   C2B 3611   5.072   8.527   5.835  0.0996 -0.3070 -0.1221
  265POPC   C3B 3612   4.695   8.517   6.145 -0.2027 -0.3950  0.0103
  265POPC   C4B 3613   4.433   8.426   6.502 -0.0774 -0.2578 -0.1747
  266POPC   NC3 3614   8.264   6.713   4.963 -0.1556  0.0557 -0.2349
  266POPC   PO4 3615   8.467   6.460   4.686 -0.0173 -0.2548 -0.2737
  266POPC   GL1 3616   8.574   6.339   5.191 -0.0631  0.1928  0.1108
  266POPC   GL2 3617   8.319   6.299   5.453  0.1813  0.1096 -0.1315
  266POPC   C1A 3618   8.811   6.368   5.540 -0.4362  0.3208  0.4754
  266POPC   D2A 3619   9.182   6.299   5.800  0.0788  0.0774  0.2820
  266POPC   C3A 3620   9.214   6.313   6.266 -0.1355  0.1524  0.2457
  266POPC   C4A 3621   8.953   5.982   6.414 -0.0037 -0.1374 -0.3284
  266POPC   C1B 3622   8.425   6.585   5.848  0.0775  0.0411  0.1538
  266POPC   C2B 3623   8.526   6.713   6.303 -0.1782 -0.0429 -0.4555
  266POPC   C3B 3624   8.507   7.143   6.391 -0.1993 -0.0907 -0.0477
  266POPC   C4B 3625   8.275   7.437   6.538 -0.0854 -0.3056  0.3961
  267POPC   NC3 3626   4.660   9.947   4.056  0.0625  0.0496  0.0246
  267POPC   PO4 3627   4.355  10.023   4.398  0.0161  0.0838  0.0777
  267POPC   GL1 3628   4.096   9.793   4.819  0.0745 -0.0355  0.4019
  267POPC   GL2 3629   4.281   9.544   4.973  0.1412  0.2494 -0.2344
  267POPC   C1A 3630   3.896   9.733   5.292  0.1093 -0.0691  0.1656
  267POPC   D2A 3631   3.519   9.626   5.513 -0.0083  0.1423  0.2441
  267POPC   C3A 3632   3.466   9.945   5.810  0.1873 -0.1253  0.2526
  267POPC   C4A 3633   3.638   9.906   6.258 -0.1415 -0.2836 -0.4515
  267POPC   C1B 3634   4.411   9.616   5.390 -0.1305  0.1006  0.1545
  267POPC   C2B 3635   4.691   9.599   5.757  0.0176 -0.2903 -0.1560
  267POPC   C3B 3636   4.524   9.674   6.126  0.1920 -0.1963 -0.1478
  267POPC   C4B 3637   4.434   9.375   6.429 -0.1030  0.0613  0.3159
  268POPC   NC3 3638   3.337   5.846   3.934 -0.1997  0.3744  0.0631
  268POPC   PO4 3639   3.358   5.432   3.699 -0.1022  0.0490 -0.0798
  268POPC   GL1 3640   3.147   5.373   4.144 -0.1916  0.0887 -0.1124
  268POPC   GL2 3641   3.328   5.606   4.364  0.1960  0.2543 -0.1366
  268POPC   C1A 3642   2.913   5.561   4.616  0.0263 -0.1082  0.4071
  268POPC   D2A 3643   3.012   5.597   5.087 -0.0371  0.2652  0.0161
  268POPC   C3A 3644   3.091   5.200   5.315  0.1077  0.2360 -0.3534
  268POPC   C4A 3645   2.834   4.783   5.194 -0.3208 -0.2484  0.0875
  268POPC   C1B 3646   3.383   5.743   4.711  0.1429 -0.3773 -0.2820
  268POPC   C2B 3647   3.405   5.912   5.093 -0.0336 -0.0346  0.0411
  268POPC   C3B 3648   3.518   5.836   5.466  0.2846  0.2008  0.1814
  268POPC   C4B 3649   3.361   5.529   5.681  0.2497  0.0994  0.1424
  269POPC   NC3 3650   2.830   7.533   3.952 -0.0174 -0.2230  0.0021
  269POPC   PO4 3651   2.571   7.902   4.203 -0.1164  0.2685  0.0115
  269POPC   GL1 3652   2.734   7.583   4.521 -0.0161 -0.1525  0.2493
  269POPC   GL2 3653   2.974   7.660   4.631 -0.0449  0.1756 -0.0504
  269POPC   C1A 3654   2.632   7.305   4.794  0.3724 -0.0144 -0.1029
  269POPC   D2A 3655   2.624   6.923   4.927 -0.0895 -0.2854 -0.0581
  269POPC   C3A 3656   2.217   6.708   4.959  0.2290  0.0568  0.2146
  269POPC   C4A 3657   1.813   6.488   5.026 -0.1797  0.0750  0.1383
  269POPC   C1B 3658   3.084   7.374   4.997 -0.1501  0.2255 -0.3024
  269POPC   C2B 3659   3.405   7.230   5.278  0.1094  0.2619 -0.0448
  269POPC   C3B 3660   3.318   7.269   5.724  0.0322 -0.0201  0.1981
  269POPC   C4B 3661   3.077   7.213   6.176  0.2722 -0.1854 -0.2616
  270POPC   NC3 3662   8.163   1.821   4.439 -0.0343 -0.1312  0.4094
  270POPC   PO4 3663   7.713   1.825   4.721  0.2068  0.2200 -0.1284
  270POPC   GL1 3664   7.714   1.894   5.232  0.2092  0.0682  0.0775
  270POPC   GL2 3665   7.472   2.161   5.413  0.1550 -0.1130 -0.2317
  270POPC   C1A 3666   7.791   1.838   5.792  0.0510  0.1234  0.2096
  270POPC   D2A 3667   7.871   1.611   6.143 -0.0931  0.0896 -0.3153
  270POPC   C3A 3668   7.849   1.197   6.155  0.0558 -0.0776  0.2642
  270POPC   C4A 3669   8.044   1.039   6.500 -0.0023  0.0613 -0.3442
  270POPC   C1B 3670   7.238   2.227   5.770 -0.6219 -0.2778 -0.1267
  270POPC   C2B 3671   7.106   2.246   6.186  0.0767  0.1194 -0.1691
  270POPC   C3B 3672   6.847   2.027   6.451  0.2768 -0.0623  0.1656
  270POPC   C4B 3673   6.828   1.782   6.813 -0.2793 -0.3029 -0.1069
  271POPC   NC3 3674   8.653   5.222   4.495 -0.3327 -0.0787  0.1788
  271POPC   PO4 3675   8.444   4.868   4.596 -0.1737  0.0292 -0.3259
  271POPC   GL1 3676   8.785   4.929   4.913  0.3051  0.0109 -0.2567
  271POPC   GL2 3677   8.877   4.708   5.225 -0.0466 -0.1358  0.0319
  271POPC   C1A 3678   9.089   5.198   5.191 -0.1481 -0.0021  0.0051
  271POPC   D2A 3679   9.095   5.495   5.528 -0.0797 -0.0096 -0.2899
  271POPC   C3A 3680   9.511   5.516   5.734 -0.1214 -0.2331  0.0714
  271POPC   C4A 3681   9.968   5.643   5.879 -0.1697  0.1351 -0.1575
  271POPC   C1B 3682   8.880   5.019   5.606  0.1759  0.1188  0.1674
  271POPC   C2B 3683   8.775   5.335   5.930 -0.0371  0.0722  0.2447
  271POPC   C3B 3684   8.758   5.488   6.277 -0.1726 -0.3860  0.2573
  271POPC   C4B 3685   8.805   5.639   6.747  0.2590 -0.3031 -0.2080
  272POPC   NC3 3686   1.438   9.447   4.484 -0.0098 -0.1688 -0.0747
  272POPC   PO4 3687   1.269   9.866   4.684  0.2123 -0.0186  0.3095
  272POPC   GL1 3688   0.966   9.594   4.895  0.0366 -0.0379 -0.0511
  272POPC   GL2 3689   1.064   9.250   4.889 -0.1882 -0.1348  0.0838
  272POPC   C1A 3690   0.951   9.596   5.373  0.2955  0.3415  0.1749
  272POPC   D2A 3691   1.038   9.374   5.761 -0.1056  0.2933 -0.0394
  272POPC   C3A 3692   1.224   9.608   6.186 -0.1187 -0.2736  0.0320
  272POPC   C4A 3693   1.191   9.626   6.638 -0.0702 -0.0005  0.0134
  272POPC   C1B 3694   1.189   9.097   5.300 -0.1911 -0.3550 -0.3011
  272POPC   C2B 3695   1.339   8.969   5.721 -0.2072 -0.1456 -0.0716
  272POPC   C3B 3696   1.472   8.773   6.123 -0.3215 -0.0521 -0.4421
  272POPC   C4B 3697   1.713   8.797   6.441  0.0526 -0.0026 -0.1053
  273POPC   NC3 3698   5.598   9.582   4.378 -0.0862 -0.0674 -0.0654
  273POPC   PO4 3699   5.194   9.461   4.450 -0.0578 -0.4485 -0.0573
  273POPC   GL1 3700   4.823   9.429   4.764 -0.0036  0.2233 -0.1570
  273POPC   GL2 3701   4.777   9.690   5.019  0.0886  0.2172 -0.2275
  273POPC   C1A 3702   4.599   9.122   5.046  0.0246 -0.1146  0.3402
  273POPC   D2A 3703   4.406   8.774   5.239 -0.0226 -0.1229 -0.0724
  273POPC   C3A 3704   4.647   8.412   5.387  0.2883  0.1732 -0.0197
  273POPC   C4A 3705   4.510   8.117   5.551 -0.0925 -0.1537 -0.1213
  273POPC   C1B 3706   4.977   9.401   5.339  0.0695 -0.2681  0.0043
  273POPC   C2B 3707   4.979   9.154   5.718  0.2054 -0.3568  0.0770
  273POPC   C3B 3708   4.990   8.963   6.104  0.1386  0.2634  0.1565
  273POPC   C4B 3709   4.768   8.978   6.478  0.3466 -0.0623  0.4487
  274POPC   NC3 3710   8.398   6.507   4.187 -0.3235 -0.0054  0.2175
  274POPC   PO4 3711   8.898   6.532   4.273  0.0683  0.1719  0.2100
  274POPC   GL1 3712   8.977   6.578   4.686 -0.0493 -0.0428 -0.2489
  274POPC   GL2 3713   8.858   6.846   5.000 -0.1709  0.3639  0.2438
  274POPC   C1A 3714   9.167   6.417   5.075  0.0590 -0.1677  0.0078
  274POPC   D2A 3715   9.535   6.445   5.335 -0.1277 -0.0390  0.0293
  274POPC   C3A 3716   9.772   6.111   5.143  0.1800 -0.2517 -0.1048
  274POPC   C4A 3717   9.963   5.865   4.905 -0.1941  0.0775 -0.1461
  274POPC   C1B 3718   8.789   6.818   5.392 -0.2244 -0.0599  0.1002
  274POPC   C2B 3719   8.711   7.032   5.874  0.0837 -0.3139 -0.1308
  274POPC   C3B 3720   8.441   7.306   5.944 -0.0442  0.4314  0.1079
  274POPC   C4B 3721   8.032   7.433   6.045  0.1204  0.1007 -0.1750
  275POPC   NC3 3722   2.894   3.949   3.878 -0.1422  0.0820  0.0527
  275POPC   PO4 3723   3.290   4.222   3.951 -0.2274  0.0946  0.0594
  275POPC   GL1 3724   3.123   4.133   4.295  0.1579  0.1370  0.2078
  275POPC   GL2 3725   3.108   3.814   4.416  0.1717  0.0919  0.2512
  275POPC   C1A 3726   2.760   4.185   4.612 -0.1141  0.1171  0.0829
  275POPC   D2A 3727   2.392   4.023   4.805  0.0864 -0.1082  0.2443
  275POPC   C3A 3728   2.065   4.265   4.766 -0.1731  0.2165  0.1529
  275POPC   C4A 3729   1.656   4.342   4.964  0.3029  0.3869  0.3036
  275POPC   C1B 3730   2.756   3.703   4.788 -0.1558 -0.0044 -0.1034
  275POPC   C2B 3731   2.632   3.771   5.188 -0.2172 -0.0909 -0.2965
  275POPC   C3B 3732   2.458   3.999   5.501 -0.2994 -0.1971 -0.1419
  275POPC   C4B 3733   2.221   4.041   5.780  0.1580 -0.0713 -0.0709
  276POPC   NC3 3734   7.185   6.066   4.584  0.0120  0.0657  0.3030
  276POPC   PO4 3735   6.829   5.806   4.597  0.1472 -0.5066  0.0271
  276POPC   GL1 3736   6.820   5.555   4.942  0.0193 -0.2449 -0.0676
  276POPC   GL2 3737   6.539   5.466   5.191  0.2855  0.3125  0.1339
  276POPC   C1A 3738   7.018   5.489   5.367  0.0520 -0.0275 -0.1461
  276POPC   D2A 3739   7.126   5.359   5.714 -0.3141  0.0837  0.0731
  276POPC   C3A 3740   7.428   5.087   5.543  0.1406  0.2478 -0.0401
  276POPC   C4A 3741   7.808   5.016   5.374  0.1504 -0.0980 -0.2838
  276POPC   C1B 3742   6.570   5.286   5.649  0.0009 -0.0114  0.1996
  276POPC   C2B 3743   6.758   5.216   6.043  0.2180  0.1018 -0.0141
  276POPC   C3B 3744   6.758   5.260   6.464 -0.0337 -0.0179 -0.1559
  276POPC   C4B 3745   6.473   5.276   6.822 -0.1293 -0.2447  0.2641
  277POPC   NC3 3746   1.354   8.445   4.239 -0.1966 -0.4928 -0.0169
  277POPC   PO4 3747   1.051   8.229   3.910  0.2318  0.0457 -0.0044
  277POPC   GL1 3748   1.073   8.054   4.307 -0.4600  0.5239  0.0049
  277POPC   GL2 3749   1.306   7.962   4.439 -0.2518 -0.1374 -0.0369
  277POPC   C1A 3750   0.914   7.827   4.659  0.0578 -0.0990 -0.2218
  277POPC   D2A 3751   1.089   7.502   4.432  0.0078  0.1437  0.0804
  277POPC   C3A 3752   0.910   7.127   4.441  0.0613  0.2098 -0.2150
  277POPC   C4A 3753   0.592   6.986   4.794  0.1105 -0.2560  0.0639
  277POPC   C1B 3754   1.348   7.775   4.945  0.2157  0.1338  0.1318
  277POPC   C2B 3755   1.351   7.878   5.382 -0.0504 -0.0784  0.1722
  277POPC   C3B 3756   1.503   7.837   5.756 -0.0920 -0.1290 -0.1095
  277POPC   C4B 3757   1.702   7.869   6.150  0.0280 -0.0363  0.0952
  278POPC   NC3 3758   2.104   0.364   4.747  0.0665  0.0782  0.0257
  278POPC   PO4 3759   2.290  -0.102   4.757  0.0356 -0.1900 -0.1974
  278POPC   GL1 3760   2.627  -0.196   5.021  0.0546 -0.0335 -0.3165
  278POPC   GL2 3761   2.667  -0.541   5.133 -0.0228  0.1925 -0.0533
  278POPC   C1A 3762   2.620  -0.069   5.382  0.0100 -0.2429 -0.1105
  278POPC   D2A 3763   2.640   0.109   5.812  0.0290 -0.0222 -0.0355
  278POPC   C3A 3764   2.727   0.057   6.343 -0.2051  0.0388  0.0483
  278POPC   C4A 3765   2.767   0.103   6.769  0.2751  0.1115 -0.2982
  278POPC   C1B 3766   2.568  -0.511   5.545  0.2228  0.1940 -0.2218
  278POPC   C2B 3767   2.550  -0.460   5.908  0.0555  0.1100  0.2035
  278POPC   C3B 3768   2.609  -0.471   6.362  0.1756  0.1296  0.1951
  278POPC   C4B 3769   2.926  -0.466   6.617 -0.0554 -0.0110  0.1011
  279POPC   NC3 3770   5.916   4.768   5.028  0.0734  0.3999  0.2213
  279POPC   PO4 3771   5.732   5.141   5.105 -0.2974 -0.0367  0.0623
  279POPC   GL1 3772   5.525   5.085   5.452  0.0366 -0.1945 -0.0763
  279POPC   GL2 3773   5.751   4.897   5.583  0.1624 -0.0869  0.2474
  279POPC   C1A 3774   5.416   5.149   5.866  0.1672  0.0983 -0.0681
  279POPC   D2A 3775   5.346   5.011   6.334  0.1556 -0.0753  0.0881
  279POPC   C3A 3776   5.474   4.536   6.488 -0.1657  0.1511  0.2401
  279POPC   C4A 3777   5.280   4.309   6.808  0.0334 -0.1667  0.0209
  279POPC   C1B 3778   5.690   4.745   5.986 -0.0691 -0.1727 -0.6959
  279POPC   C2B 3779   5.843   4.973   6.514 -0.1223  0.0006  0.0846
  279POPC   C3B 3780   6.092   4.883   6.841 -0.0935 -0.1187 -0.0076
  279POPC   C4B 3781   6.356   4.987   7.238 -0.0076 -0.2610 -0.1784
  280POPC   NC3 3782   1.858   3.761   3.855 -0.0678 -0.2778 -0.1387
  280POPC   PO4 3783   2.062   3.837   3.433  0.1209 -0.2732 -0.1116
  280POPC   GL1 3784   2.135   4.198   3.737 -0.1815 -0.1198 -0.0299
  280POPC   GL2 3785   2.398   3.920   3.829 -0.2815 -0.1004 -0.0612
  280POPC   C1A 3786   2.205   4.579   3.910 -0.3318 -0.0959 -0.3252
  280POPC   D2A 3787   1.944   4.851   4.144  0.0571 -0.1029 -0.3809
  280POPC   C3A 3788   1.845   5.225   4.046 -0.3092 -0.1161  0.1538
  280POPC   C4A 3789   1.529   5.241   3.854 -0.0047 -0.0963 -0.0807
  280POPC   C1B 3790   2.266   4.144   4.285 -0.1399 -0.0127 -0.2481
  280POPC   C2B 3791   2.340   4.497   4.446 -0.1914 -0.2778  0.2611
  280POPC   C3B 3792   2.669   4.643   4.760  0.2944 -0.4769 -0.0651
  280POPC   C4B 3793   3.111   4.522   4.785 -0.1387 -0.0724  0.1069
  281POPC   NC3 3794   9.899   6.210   3.383  0.0339 -0.4102 -0.3187
  281POPC   PO4 3795   9.930   6.317   3.860 -0.2261  0.1030  0.1444
  281POPC   GL1 3796  10.173   6.332   4.175 -0.1930  0.2393  0.0766
  281POPC   GL2 3797  10.446   6.402   4.100 -0.0370  0.1324 -0.1106
  281POPC   C1A 3798  10.432   6.024   4.457 -0.2967 -0.1815 -0.2832
  281POPC   D2A 3799  10.667   5.653   4.225 -0.0383 -0.2265  0.1407
  281POPC   C3A 3800  11.059   5.510   4.433  0.1664  0.2220  0.0926
  281POPC   C4A 3801  11.291   5.380   4.774  0.0258  0.0249 -0.0317
  281POPC   C1B 3802  10.645   6.539   4.467  0.0106 -0.2204  0.4031
  281POPC   C2B 3803  10.788   6.499   4.816  0.5384  0.3877  0.0986
  281POPC   C3B 3804  10.452   6.685   5.181 -0.0861  0.1582  0.0874
  281POPC   C4B 3805  10.210   6.383   5.337  0.0613 -0.0477  0.0901
  282POPC   NC3 3806   2.033   0.884   4.625  0.0399 -0.1769 -0.0892
  282POPC   PO4 3807   2.384   0.777   4.786 -0.2332 -0.0308  0.4042
  282POPC   GL1 3808   2.179   0.795   5.212  0.0478  0.4164  0.1824
  282POPC   GL2 3809   2.045   0.427   5.290  0.1469 -0.0397 -0.0517
  282POPC   C1A 3810   2.151   0.752   5.686 -0.2391 -0.1384 -0.3807
  282POPC   D2A 3811   1.846   1.017   5.914  0.0224  0.3302 -0.1086
  282POPC   C3A 3812   1.921   1.446   5.914  0.2160 -0.0437 -0.1619
  282POPC   C4A 3813   1.994   1.528   6.392 -0.0807 -0.1539  0.0193
  282POPC   C1B 3814   1.770   0.519   5.620  0.1280 -0.1582  0.2830
  282POPC   C2B 3815   1.515   0.644   6.030 -0.1358 -0.0018  0.0647
  282POPC   C3B 3816   1.447   0.543   6.501  0.1005 -0.3024 -0.0624
  282POPC   C4B 3817   1.760   0.413   6.684  0.1415 -0.1319 -0.0198
  283POPC   NC3 3818   5.641   6.088   5.009 -0.1215  0.1229 -0.2015
  283POPC   PO4 3819   5.976   6.308   4.930 -0.0023  0.0176 -0.1537
  283POPC   GL1 3820   5.920   6.484   5.326  0.5613  0.0308  0.0858
  283POPC   GL2 3821   5.664   6.273   5.558 -0.2299 -0.0818 -0.0680
  283POPC   C1A 3822   5.871   6.757   5.677 -0.1745 -0.1609  0.1264
  283POPC   D2A 3823   5.636   6.861   5.990 -0.1250  0.4872 -0.1461
  283POPC   C3A 3824   5.668   6.798   6.420  0.2573  0.2556  0.0684
  283POPC   C4A 3825   5.471   6.918   6.704 -0.0718  0.0166 -0.0901
  283POPC   C1B 3826   5.389   6.009   5.712  0.0858 -0.1970 -0.0539
  283POPC   C2B 3827   5.494   5.625   5.979  0.0469 -0.4205  0.0786
  283POPC   C3B 3828   5.599   5.437   6.265  0.1154  0.0446 -0.1377
  283POPC   C4B 3829   6.049   5.495   6.549  0.1895  0.0395 -0.0745
  284POPC   NC3 3830   4.540   7.813   4.846 -0.2754 -0.1937  0.1864
  284POPC   PO4 3831   5.079   7.662   4.825 -0.1622  0.2399  0.0823
  284POPC   GL1 3832   5.264   7.473   5.107  0.1277 -0.3523  0.1220
  284POPC   GL2 3833   5.407   7.240   5.124  0.0440  0.1014  0.1029
  284POPC   C1A 3834   5.272   7.545   5.464  0.1240  0.3647 -0.3092
  284POPC   D2A 3835   5.439   7.826   5.778  0.1102  0.0268 -0.0607
  284POPC   C3A 3836   5.668   7.786   6.173  0.1247 -0.0475  0.2564
  284POPC   C4A 3837   5.802   7.869   6.498  0.1578  0.2171  0.0107
  284POPC   C1B 3838   5.132   7.098   5.317 -0.1360  0.1472  0.1077
  284POPC   C2B 3839   5.079   6.926   5.746  0.2141  0.1743 -0.3103
  284POPC   C3B 3840   5.155   7.007   6.221  0.2280  0.1508 -0.2288
  284POPC   C4B 3841   5.057   7.240   6.674  0.0428 -0.2043  0.0613
  285POPC   NC3 3842   3.088   7.415   3.308  0.0957 -0.0094  0.2810
  285POPC   PO4 3843   2.789   7.207   3.528 -0.3816 -0.0578  0.2862
  285POPC   GL1 3844   2.777   7.016   3.962 -0.4106 -0.0485 -0.2430
  285POPC   GL2 3845   2.961   6.713   4.141  0.2119  0.1351  0.2577
  285POPC   C1A 3846   2.512   7.153   4.332  0.3990 -0.0136 -0.0386
  285POPC   D2A 3847   2.295   7.513   4.360 -0.2635  0.1752 -0.0771
  285POPC   C3A 3848   2.213   7.769   4.776  0.1605 -0.1634  0.1259
  285POPC   C4A 3849   2.117   7.885   5.210 -0.0220  0.1682  0.0609
  285POPC   C1B 3850   2.850   6.814   4.511  0.0127  0.3597  0.2026
  285POPC   C2B 3851   2.703   6.483   4.686 -0.1003 -0.2309 -0.0135
  285POPC   C3B 3852   2.668   6.160   4.950  0.3333 -0.0705 -0.2199
  285POPC   C4B 3853   2.688   5.965   5.236  0.0968 -0.1669  0.0463
  286POPC   NC3 3854   8.890   1.314   4.626  0.0909  0.0630  0.0296
  286POPC   PO4 3855   9.289   1.535   4.849  0.0232 -0.1117 -0.2399
  286POPC   GL1 3856   9.331   1.639   5.307  0.5551  0.3144 -0.2700
  286POPC   GL2 3857   9.404   1.950   5.269 -0.0881 -0.1592 -0.0460
  286POPC   C1A 3858   9.087   1.508   5.712  0.3674  0.1434 -0.1330
  286POPC   D2A 3859   8.902   1.225   5.881 -0.0597  0.3934  0.0355
  286POPC   C3A 3860   8.985   1.009   6.251  0.2715 -0.2292  0.1428
  286POPC   C4A 3861   9.216   0.747   6.374  0.1636  0.1659 -0.0184
  286POPC   C1B 3862   9.490   1.905   5.736 -0.0271 -0.1435  0.1097
  286POPC   C2B 3863   9.694   1.694   5.978  0.1903  0.0493  0.0358
  286POPC   C3B 3864   9.844   1.649   6.442  0.1777  0.0275  0.0492
  286POPC   C4B 3865  10.102   1.826   6.717  0.0790  0.0294 -0.0625
  287POPC   NC3 3866   0.947   3.107   3.693  0.1387  0.0235 -0.1991
  287POPC   PO4 3867   1.358   3.216   3.849 -0.2281 -0.1609 -0.2691
  287POPC   GL1 3868   1.379   3.540   4.239  0.0022  0.0421  0.1472
  287POPC   GL2 3869   1.647   3.638   4.361  0.0566 -0.4457 -0.0608
  287POPC   C1A 3870   1.134   3.587   4.566 -0.3047 -0.0391  0.0479
  287POPC   D2A 3871   0.861   3.700   4.958 -0.2136 -0.2059  0.1083
  287POPC   C3A 3872   0.659   3.365   5.190 -0.0484  0.0801 -0.1749
  287POPC   C4A 3873   0.649   3.086   5.585 -0.1919 -0.1548  0.0543
  287POPC   C1B 3874   2.124   3.718   4.523 -0.0791 -0.1048  0.0535
  287POPC   C2B 3875   2.338   3.459   4.840  0.2055  0.2744 -0.0888
  287POPC   C3B 3876   2.182   3.104   4.979 -0.2045  0.0105  0.0640
  287POPC   C4B 3877   1.873   2.705   4.782 -0.4094  0.0698 -0.0203
  288POPC   NC3 3878   0.078   2.925   3.917  0.2413 -0.2776  0.0210
  288POPC   PO4 3879   0.217   2.668   4.352 -0.0249 -0.3017 -0.0696
  288POPC   GL1 3880   0.569   2.789   4.617  0.0924  0.0316  0.0581
  288POPC   GL2 3881   0.358   2.879   4.845 -0.3752  0.0369  0.0544
  288POPC   C1A 3882   0.778   2.891   5.034  0.0371 -0.1366  0.0107
  288POPC   D2A 3883   0.611   2.528   5.337  0.0492  0.1756 -0.1107
  288POPC   C3A 3884   0.365   2.757   5.740 -0.2557  0.2998 -0.3701
  288POPC   C4A 3885   0.485   2.986   6.065 -0.1779 -0.3837 -0.1425
  288POPC   C1B 3886   0.061   2.623   5.332 -0.2309  0.2711 -0.0527
  288POPC   C2B 3887   0.283   2.209   5.579 -0.1589 -0.1450 -0.0778
  288POPC   C3B 3888   0.451   2.191   5.956 -0.2067 -0.0890 -0.0946
  288POPC   C4B 3889   0.111   2.005   6.282  0.1413 -0.3286 -0.0647
  289POPC   NC3 3890   7.120   4.081   4.800  0.0409  0.1938 -0.4559
  289POPC   PO4 3891   7.330   4.264   4.816 -0.0208  0.1806  0.1735
  289POPC   GL1 3892   7.526   3.928   5.060  0.0436 -0.2350  0.1613
  289POPC   GL2 3893   7.726   4.058   5.207 -0.2947  0.2089  0.0120
  289POPC   C1A 3894   7.468   3.634   5.443 -0.1107  0.2505  0.0244
  289POPC   D2A 3895   7.388   3.570   5.851 -0.0125 -0.2425  0.1906
  289POPC   C3A 3896   7.251   3.862   6.054  0.1000  0.2157 -0.1621
  289POPC   C4A 3897   7.229   4.015   6.472  0.1129  0.0960  0.1389
  289POPC   C1B 3898   7.871   4.152   5.536  0.1907 -0.2233 -0.0282
  289POPC   C2B 3899   8.108   4.216   5.974 -0.1587 -0.2164  0.0294
  289POPC   C3B 3900   8.245   4.482   6.417  0.1538  0.0743  0.0994
  289POPC   C4B 3901   8.180   4.933   6.509  0.2610 -0.2725  0.0495
  290POPC   NC3 3902   5.888   1.283   4.583 -0.1232  0.1138 -0.0080
  290POPC   PO4 3903   5.673   1.701   4.612 -0.0983 -0.0184 -0.2034
  290POPC   GL1 3904   5.705   1.470   5.024  0.0072  0.0546  0.0788
  290POPC   GL2 3905   6.064   1.628   5.132  0.1771 -0.2146 -0.0022
  290POPC   C1A 3906   5.682   1.378   5.446  0.0632 -0.0886 -0.2225
  290POPC   D2A 3907   5.814   1.519   5.826  0.1981 -0.1474  0.1843
  290POPC   C3A 3908   5.615   1.851   6.224  0.1285 -0.0354  0.4560
  290POPC   C4A 3909   5.667   2.184   6.450  0.2353 -0.0215 -0.1962
  290POPC   C1B 3910   6.134   1.278   5.515  0.0546 -0.0628 -0.0465
  290POPC   C2B 3911   6.220   0.935   5.785 -0.0716  0.0761  0.1209
  290POPC   C3B 3912   6.416   0.931   6.213 -0.1506  0.0295 -0.0662
  290POPC   C4B 3913   6.412   1.102   6.574  0.2390 -0.1055  0.1956
  291POPC   NC3 3914   0.405   0.730   4.689 -0.2828 -0.1400  0.1914
  291POPC   PO4 3915   0.016   0.932   4.701 -0.1016  0.1292  0.0097
  291POPC   GL1 3916   0.007   0.722   5.053  0.1524  0.0937  0.0278
  291POPC   GL2 3917   0.198   0.354   5.025 -0.2130  0.2878  0.1188
  291POPC   C1A 3918   0.223   0.820   5.438  0.1332  0.1859  0.0615
  291POPC   D2A 3919   0.139   0.776   5.900  0.1097 -0.0179  0.0705
  291POPC   C3A 3920  -0.252   0.713   6.102  0.0182 -0.2989  0.0643
  291POPC   C4A 3921  -0.258   0.708   6.504  0.0984 -0.1525 -0.1816
  291POPC   C1B 3922   0.195   0.320   5.396 -0.1070  0.4712  0.0407
  291POPC   C2B 3923  -0.000   0.333   5.720 -0.0943 -0.2573 -0.1604
  291POPC   C3B 3924  -0.321   0.167   5.979  0.1386  0.0872  0.0166
  291POPC   C4B 3925  -0.563   0.316   6.246  0.2508  0.0556  0.2045
  292POPC   NC3 3926   7.405   8.511   4.872  0.1331  0.0786  0.1851
  292POPC   PO4 3927   7.811   8.379   4.816 -0.1000  0.1289 -0.2637
  292POPC   GL1 3928   7.841   8.517   5.201 -0.2259 -0.2932  0.2812
  292POPC   GL2 3929   7.499   8.475   5.383 -0.0452  0.0117 -0.0210
  292POPC   C1A 3930   8.127   8.565   5.577 -0.1687 -0.2255 -0.4371
  292POPC   D2A 3931   8.268   8.683   6.077  0.0803  0.2065 -0.2762
  292POPC   C3A 3932   7.973   8.850   6.413 -0.1429  0.1436 -0.1663
  292POPC   C4A 3933   8.007   8.763   6.929  0.1243  0.0259  0.1072
  292POPC   C1B 3934   7.675   8.510   5.829  0.1527  0.0360 -0.0249
  292POPC   C2B 3935   7.596   8.519   6.313 -0.1347  0.1721 -0.0261
  292POPC   C3B 3936   7.576   8.852   6.666 -0.2110  0.0778 -0.0141
  292POPC   C4B 3937   7.425   8.836   7.123  0.2747  0.4697 -0.1345
  293POPC   NC3 3938   3.034   2.978   3.995 -0.1869 -0.1839 -0.1878
  293POPC   PO4 3939   2.928   2.817   4.404 -0.0322  0.0991  0.1493
  293POPC   GL1 3940   2.915   2.898   4.891 -0.0069 -0.0534  0.0230
  293POPC   GL2 3941   2.651   2.846   5.093 -0.0689 -0.2499  0.0065
  293POPC   C1A 3942   3.103   2.948   5.300  0.4108  0.0884 -0.1599
  293POPC   D2A 3943   2.909   2.972   5.652 -0.0309 -0.3306  0.0627
  293POPC   C3A 3944   3.062   3.347   5.903  0.1065  0.2124  0.0663
  293POPC   C4A 3945   3.116   3.728   6.114  0.0677  0.0114 -0.0903
  293POPC   C1B 3946   2.635   3.273   5.193  0.1852 -0.2182  0.4299
  293POPC   C2B 3947   3.038   3.481   5.260  0.1424  0.0565 -0.1060
  293POPC   C3B 3948   2.989   3.825   5.561  0.1308 -0.1476  0.0662
  293POPC   C4B 3949   2.921   4.323   5.599  0.0035 -0.2226  0.0867
  294POPC   NC3 3950   3.331   9.664   4.556 -0.1074 -0.0837  0.2268
  294POPC   PO4 3951   3.298   9.130   4.491  0.4103  0.1062 -0.2114
  294POPC   GL1 3952   2.924   9.031   4.727 -0.1569  0.0193  0.1332
  294POPC   GL2 3953   2.693   8.754   4.729  0.0592 -0.0086  0.0376
  294POPC   C1A 3954   2.837   8.951   5.189 -0.0787 -0.2213 -0.1211
  294POPC   D2A 3955   2.728   8.990   5.666 -0.1501 -0.2944  0.2512
  294POPC   C3A 3956   3.035   9.327   5.942  0.0224 -0.2494 -0.0412
  294POPC   C4A 3957   3.519   9.519   5.974 -0.3417  0.1053 -0.2047
  294POPC   C1B 3958   2.500   8.470   5.085 -0.2569 -0.3795  0.0727
  294POPC   C2B 3959   2.362   8.260   5.495 -0.2815  0.1473  0.2920
  294POPC   C3B 3960   2.505   7.935   5.707  0.4535 -0.2072  0.2116
  294POPC   C4B 3961   2.412   7.672   6.051 -0.1147  0.1358  0.1038
  295POPC   NC3 3962   7.757   0.312   4.814  0.0940  0.1932 -0.1399
  295POPC   PO4 3963   8.149   0.223   4.680 -0.2248  0.2737 -0.0658
  295POPC   GL1 3964   8.074   0.073   5.139  0.3831 -0.2543  0.0074
  295POPC   GL2 3965   7.732  -0.105   5.214  0.0117 -0.1752 -0.1322
  295POPC   C1A 3966   8.154  -0.003   5.578  0.0911 -0.1433  0.2205
  295POPC   D2A 3967   8.152   0.232   5.971  0.2351  0.0112 -0.0005
  295POPC   C3A 3968   8.520   0.157   6.153  0.0844 -0.3414  0.0436
  295POPC   C4A 3969   8.851   0.441   6.280  0.0242 -0.0061 -0.1248
  295POPC   C1B 3970   7.642  -0.214   5.684 -0.0696  0.0555 -0.1895
  295POPC   C2B 3971   7.727  -0.127   6.187 -0.3034  0.2006  0.0033
  295POPC   C3B 3972   7.712   0.072   6.569  0.1517  0.0114  0.0444
  295POPC   C4B 3973   7.659   0.239   6.900  0.2757  0.0087  0.0863
  296POPC   NC3 3974   8.275   8.677   4.738 -0.3783  0.0499 -0.3390
  296POPC   PO4 3975   8.754   8.454   4.797  0.0493 -0.0098  0.0182
  296POPC   GL1 3976   8.830   8.275   5.181 -0.2804  0.2028  0.0922
  296POPC   GL2 3977   9.048   8.515   5.258  0.0728 -0.0498 -0.2772
  296POPC   C1A 3978   8.799   7.974   5.552  0.0220  0.4159  0.4120
  296POPC   D2A 3979   8.881   7.845   6.069  0.2133 -0.0367  0.1744
  296POPC   C3A 3980   9.140   7.845   6.241 -0.0416  0.1282  0.0492
  296POPC   C4A 3981   9.572   8.096   6.582 -0.1383  0.2535  0.3760
  296POPC   C1B 3982   9.337   8.463   5.545 -0.2216  0.0063 -0.0043
  296POPC   C2B 3983   9.531   8.335   5.992 -0.1592 -0.1114  0.0607
  296POPC   C3B 3984   9.936   8.144   6.290 -0.0073  0.0674 -0.0164
  296POPC   C4B 3985  10.037   7.697   6.385 -0.1778 -0.3042  0.1517
  297POPC   NC3 3986   4.924   3.066   4.463  0.1228 -0.2653  0.1929
  297POPC   PO4 3987   4.673   3.236   4.782 -0.1159  0.0960  0.1210
  297POPC   GL1 3988   4.317   3.053   5.163  0.0843  0.0750  0.2138
  297POPC   GL2 3989   4.465   2.844   5.350 -0.0695  0.0049 -0.1633
  297POPC   C1A 3990   4.049   3.274   5.289  0.0667 -0.2276  0.0593
  297POPC   D2A 3991   3.950   3.669   5.600  0.1155 -0.0569 -0.1022
  297POPC   C3A 3992   4.088   3.795   5.989  0.1015  0.1934 -0.1584
  297POPC   C4A 3993   4.158   3.605   6.295  0.0595  0.0908 -0.3058
  297POPC   C1B 3994   4.666   2.689   5.705  0.0679 -0.0663 -0.0980
  297POPC   C2B 3995   4.950   2.737   6.155 -0.1093  0.0443 -0.2352
  297POPC   C3B 3996   4.803   2.554   6.539 -0.0148 -0.0889  0.0541
  297POPC   C4B 3997   5.041   2.642   6.974 -0.1439 -0.1299 -0.2277
  298POPC   NC3 3998   8.836   3.634   4.348 -0.0291 -0.0979  0.2520
  298POPC   PO4 3999   9.146   3.941   4.461  0.0202 -0.2549  0.0301
  298POPC   GL1 4000   9.164   4.091   4.835 -0.1546 -0.3440  0.0556
  298POPC   GL2 4001   9.431   3.890   4.867 -0.0128 -0.1811  0.1744
  298POPC   C1A 4002   9.227   4.309   5.223 -0.2498  0.1316  0.0685
  298POPC   D2A 4003   9.119   4.494   5.647 -0.0030 -0.3616  0.0710
  298POPC   C3A 4004   9.439   4.652   5.909 -0.0321  0.1631 -0.2873
  298POPC   C4A 4005   9.849   4.911   6.096 -0.1717 -0.1954  0.0208
  298POPC   C1B 4006   9.177   3.801   5.244 -0.3245  0.1039 -0.3989
  298POPC   C2B 4007   9.222   3.735   5.667  0.1662 -0.1466  0.1667
  298POPC   C3B 4008   9.065   3.702   6.085 -0.2091 -0.3022 -0.2348
  298POPC   C4B 4009   8.875   3.862   6.390 -0.2721 -0.3461  0.1421
  299POPC   NC3 4010   9.514   9.331   4.211 -0.3615  0.1221  0.2291
  299POPC   PO4 4011   9.768   8.983   4.043  0.2729  0.0163 -0.1115
  299POPC   GL1 4012   9.849   8.803   4.519  0.0861 -0.1931  0.0291
  299POPC   GL2 4013   9.591   9.001   4.765 -0.0249  0.3107 -0.1434
  299POPC   C1A 4014  10.031   8.758   4.993 -0.0916 -0.0697 -0.1249
  299POPC   D2A 4015   9.939   8.843   5.452  0.0482  0.1997 -0.0669
  299POPC   C3A 4016  10.296   8.987   5.576  0.1139 -0.0718 -0.0321
  299POPC   C4A 4017  10.338   9.007   5.993  0.1316  0.0948 -0.2255
  299POPC   C1B 4018   9.471   8.921   5.231  0.0156 -0.0471 -0.0677
  299POPC   C2B 4019   9.490   8.914   5.736 -0.2253  0.1926  0.1836
  299POPC   C3B 4020   9.772   8.846   5.956  0.0738 -0.1186  0.0285
  299POPC   C4B 4021   9.728   8.574   6.354 -0.1439  0.1090 -0.1590
  300POPC   NC3 4022   3.209   6.360   3.476  0.2465  0.3469 -0.1245
  300POPC   PO4 4023   3.548   6.488   3.677 -0.0348 -0.1627  0.0305
  300POPC   GL1 4024   3.299   6.347   3.997  0.2077  0.2141 -0.2683
  300POPC   GL2 4025   3.263   6.139   4.342 -0.1406  0.2471 -0.0474
  300POPC   C1A 4026   2.766   6.223   4.117 -0.1743 -0.0720 -0.0768
  300POPC   D2A 4027   2.367   6.192   4.048  0.1900 -0.1149  0.0066
  300POPC   C3A 4028   2.010   6.564   4.019 -0.1291 -0.1677  0.2717
  300POPC   C4A 4029   1.632   6.728   3.991 -0.1241  0.2678  0.1548
  300POPC   C1B 4030   3.180   6.265   4.820  0.1059 -0.3378 -0.1244
  300POPC   C2B 4031   3.034   6.330   5.242  0.0230 -0.1217  0.1843
  300POPC   C3B 4032   2.702   6.482   5.351 -0.2518  0.2188  0.1765
  300POPC   C4B 4033   2.513   6.822   5.468  0.3563 -0.1074 -0.4991
  301POPC   NC3 4034   3.373   2.506   4.498  0.0149 -0.0465  0.1591
  301POPC   PO4 4035   3.589   2.066   4.578 -0.0636  0.0721 -0.3109
  301POPC   GL1 4036   3.501   2.125   5.008 -0.0985  0.2840  0.1017
  301POPC   GL2 4037   3.685   2.189   5.311 -0.0864 -0.3640  0.0966
  301POPC   C1A 4038   3.145   1.945   5.238  0.0847  0.0464 -0.2344
  301POPC   D2A 4039   2.920   1.954   5.518 -0.3194  0.0134 -0.0323
  301POPC   C3A 4040   2.805   1.614   5.725  0.1210  0.1852 -0.0596
  301POPC   C4A 4041   2.793   1.328   6.072 -0.1992  0.0877  0.0166
  301POPC   C1B 4042   3.433   2.083   5.628  0.2051  0.1082 -0.0730
  301POPC   C2B 4043   3.507   2.138   6.100 -0.0092  0.1404 -0.0839
  301POPC   C3B 4044   3.481   2.250   6.561 -0.0536 -0.2389  0.1600
  301POPC   C4B 4045   3.439   2.515   6.897  0.0727 -0.0770  0.0349
  302W        W 4046   9.443   4.118  11.932 -0.2363 -0.5995 -0.0995
  303W        W 4047   8.987   1.932   1.514 -0.2138  0.1211 -0.0281
  304W        W 4048   5.194   7.926   3.364 -0.1799  0.7519  0.0612
  305W        W 4049   5.121   3.179   9.946  0.1881  0.1564 -0.3269
  306W        W 4050   3.954   4.997  12.106  0.1563 -0.0500 -0.0604
  307W        W 4051   4.971   8.467  12.421 -0.0115 -0.1268 -0.1812
  308W        W 4052   8.344   9.805  12.216  0.2610  0.0202 -0.0518
  309W        W 4053   5.013   9.256   9.012  0.0775  0.1666  0.0616
  310W        W 4054   4.014   4.294   3.510  0.4224  0.1500  0.1221
  311W        W 4055   0.259   3.877   4.032 -0.2456 -0.0886 -0.1154
  312W        W 4056   0.929   1.245   3.754 -0.1428  0.0002  0.1917
  313W        W 4057   0.939   2.580   1.982  0.0766  0.1370  0.2472
  314W        W 4058   4.303   7.758   8.761 -0.2645 -0.1851 -0.0509
  315W        W 4059   9.440   7.577  12.655 -0.1959 -0.3941  0.1637
  316W        W 4060   0.304   0.868   9.611  0.0865 -0.1130 -0.0209
  317W        W 4061   6.315   5.236  12.255  0.3433 -0.0170 -0.0757
  318W        W 4062   2.360   0.850   1.780  0.3855  0.2084  0.1101
  319W        W 4063   7.355   9.091   9.550 -0.1379 -0.0722 -0.0045
  320W        W 4064   6.895   5.513   9.596 -0.1661  0.1674  0.0352
  321W        W 4065   4.528   4.104  10.012 -0.1727 -0.1931 -0.2362
  322W        W 4066   6.516   4.104  10.617 -0.1745 -0.1513 -0.1413
  323W        W 4067   3.411   2.547   8.787 -0.3848  0.1056 -0.0155
  324W        W 4068   5.666   6.371   9.174  0.2264 -0.2110 -0.1207
  325W        W 4069   3.966   4.641   0.340  0.4586  0.0320 -0.0985
  326W        W 4070   8.232   7.336   8.606 -0.0629 -0.1369  0.2357
  327W        W 4071   7.988   4.652   2.669 -0.3618  0.0743 -0.0827
  328W        W 4072   4.122   8.852  12.606  0.2301  0.1704  0.0323
  329W        W 4073   7.519   7.145  11.882  0.0968  0.2281 -0.2875
  330W        W 4074   9.222   2.268  11.172  0.0431 -0.0168  0.2411
  331W        W 4075   2.816   6.877   2.060 -0.2668  0.1208  0.2822
  332W        W 4076   1.240   0.804   3.296  0.3607 -0.0306 -0.0801
  333W        W 4077   8.440   3.378   4.240 -0.3719 -0.1107 -0.1611
  334W        W 4078   4.665   4.583   1.642 -0.1161 -0.0206  0.1541
  335W        W 4079   6.817   5.712  11.770  0.3389 -0.0424  0.2916
  336W        W 4080   7.321   1.310   2.289 -0.0100  0.3378  0.0790
  337W        W 4081   1.577   9.591   0.038 -0.2728  0.0623  0.0530
  338W        W 4082   0.746   9.082  11.128  0.2309  0.1180 -0.0459
  339W        W 4083   4.346   1.720  10.563 -0.0460 -0.0547  0.1290
  340W        W 4084   6.119   5.804   1.196 -0.3164 -0.2793  0.1981
  341W        W 4085   8.155   7.795  10.325  0.0942  0.2767  0.0948
  342W        W 4086   5.234   8.050  12.277 -0.3996  0.0726  0.4878
  343W        W 4087   6.369   8.308   2.761  0.0041  0.1874 -0.0172
  344W        W 4088   8.371   6.709  11.071  0.4179  0.2918  0.1179
  345W        W 4089   7.858   3.874   9.119 -0.2256  0.1274 -0.0847
  346W        W 4090   8.636   7.464   0.370  0.0374  0.1238 -0.1126
  347W        W 4091   9.035   1.810   4.482 -0.1361  0.3751  0.0416
  348W        W 4092   4.059   4.430  10.622  0.2616  0.1001 -0.1949
  349W        W 4093   4.792   4.993   9.870  0.0398 -0.2250  0.0692
  350W        W 4094   5.039   6.020   3.150 -0.0973  0.2849  0.1854
  351W        W 4095   1.676   0.964  12.301  0.0900 -0.0216 -0.1213
  352W        W 4096   8.569   7.089  10.037  0.0977 -0.0193  0.0098
  353W        W 4097   2.197   5.197  11.577  0.1649  0.0896 -0.1875
  354W        W 4098   4.184   5.618   3.535 -0.1448 -0.2621 -0.2968
  355W        W 4099   9.813   1.432   3.699 -0.3915  0.2305  0.0812
  356W        W 4100   7.184   6.049   2.576  0.1770  0.0769  0.1302
  357W        W 4101   6.907   7.674  12.515 -0.0566  0.3403  0.1643
  358W        W 4102   4.295   3.986   2.762  0.0124 -0.0832 -0.0878
  359W        W 4103   8.364   3.453  10.159 -0.0643 -0.2161  0.1078
  360W        W 4104   1.113   4.798   2.988  0.1414  0.1424  0.0473
  361W        W 4105   8.965   3.333  12.172 -0.1693 -0.0289  0.0589
  362W        W 4106   0.918   6.233   1.619  0.0056  0.0820  0.0063
  363W        W 4107   9.237   0.611   0.039 -0.1484 -0.1414 -0.0160
  364W        W 4108   5.341   4.660  11.528 -0.0997  0.0702  0.5335
  365W        W 4109   5.940   4.395   2.701 -0.0326  0.2324 -0.0739
  366W        W 4110   9.242   9.650  11.881  0.2855 -0.0824 -0.0224
  367W        W 4111   8.270   4.164   3.953 -0.0747  0.0368  0.0736
  368W        W 4112   2.298   6.939  11.956  0.0042 -0.1946 -0.0107
  369W        W 4113   2.787   8.670  12.517 -0.3052  0.2526  0.1956
  370W        W 4114   6.618   5.992   4.104  0.1917  0.0578 -0.0108
  371W        W 4115   1.247   7.153   9.114  0.0616  0.1496  0.2941
  372W        W 4116   8.388   1.126   1.117 -0.3175  0.0756 -0.0150
  373W        W 4117   4.768   5.114   3.038  0.0232  0.0483 -0.0429
  374W        W 4118   1.749   6.817   0.462  0.0412  0.1054  0.0994
  375W        W 4119   7.810   7.662   9.354  0.0998 -0.1188 -0.0179
  376W        W 4120   2.552   1.606  12.774  0.1918 -0.0954 -0.1683
  377W        W 4121   0.721   2.827   0.218  0.3269  0.0416  0.0982
  378W        W 4122   8.992   3.250   8.934  0.0423 -0.0915  0.3068
  379W        W 4123   3.363   6.877  11.767  0.1250 -0.0265 -0.1235
  380W        W 4124   1.647   5.488   1.813  0.2338  0.2123 -0.1815
  381W        W 4125   3.183   0.208   9.767 -0.2843  0.0640 -0.2244
  382W        W 4126   3.011   8.614   1.136 -0.0663  0.0641  0.3024
  383W        W 4127   3.585   5.914   2.873 -0.0738 -0.1140  0.0777
  384W        W 4128   8.902   4.467   4.691  0.1282  0.2214  0.0172
  385W        W 4129   1.474   6.147   2.680 -0.1253 -0.0014 -0.1279
  386W        W 4130   0.502   0.632  11.639 -0.0495 -0.0020  0.1393
  387W        W 4131   5.309   2.627  10.195 -0.0011 -0.1623  0.1689
  388W        W 4132   9.360   0.586   9.663  0.0869 -0.1442  0.1966
  389W        W 4133   9.313   0.508   8.317 -0.0097  0.1182 -0.1938
  390W        W 4134   7.428   2.458   3.812 -0.5581  0.1725 -0.0221
  391W        W 4135   6.637   8.298   4.074  0.1865 -0.0057  0.2010
  392W        W 4136   2.873   1.528   4.374  0.0902  0.0763 -0.0765
  393W        W 4137   8.295   5.659   1.677  0.3088  0.0139 -0.2867
  394W        W 4138   9.157   9.243   9.839 -0.1263 -0.0890  0.0054
  395W        W 4139   8.595   7.854  10.065 -0.1866 -0.0237  0.2929
  396W        W 4140   2.050   7.948   4.044  0.0255 -0.3861 -0.3031
  397W        W 4141   1.406   7.683   1.566  0.2532 -0.1366 -0.0309
  398W        W 4142   8.682   7.375   8.014 -0.0574  0.0037 -0.0310
  399W        W 4143   6.854   3.275   4.493 -0.0944  0.2200 -0.1695
  400W        W 4144   1.212   3.062  10.669  0.1044  0.0568 -0.0703
  401W        W 4145   4.326   6.916   2.831  0.0313 -0.0981  0.2846
  402W        W 4146   5.612   8.510   9.058  0.1687  0.2006  0.0171
  403W        W 4147   1.083   4.399   2.568 -0.1966 -0.3482  0.1987
  404W        W 4148   7.714   3.019   4.372  0.1079 -0.2116 -0.0340
  405W        W 4149   2.678   8.768   1.419  0.1618 -0.1518 -0.0225
  406W        W 4150   7.717   2.738   9.296 -0.0452  0.0531  0.2257
  407W        W 4151   8.769   1.168   3.805  0.1196  0.1241 -0.0595
  408W        W 4152   9.004   8.455   2.518 -0.2065  0.0085  0.2947
  409W        W 4153   5.264   0.741  11.399  0.2555  0.1600  0.0689
  410W        W 4154   6.197   0.975   9.183 -0.0882  0.2960  0.2660
  411W        W 4155   2.160   2.308   8.527 -0.1672  0.0734  0.0837
  412W        W 4156   8.865   1.166   1.142 -0.1613 -0.1637 -0.1946
  413W        W 4157   6.059   1.867  10.190 -0.1375  0.2779  0.2745
  414W        W 4158   5.121   2.352  11.133  0.4684 -0.0368 -0.2763
  415W        W 4159   0.208   3.386   2.512 -0.0837 -0.1999  0.1625
  416W        W 4160   3.197   2.670   0.606 -0.3740  0.1781 -0.3750
  417W        W 4161   7.005   9.400   2.519  0.1562 -0.1766 -0.0829
  418W        W 4162   9.281   1.837   0.581  0.0066 -0.2697 -0.0191
  419W        W 4163   6.842   3.469  10.498  0.1251 -0.2387  0.0419
  420W        W 4164   9.867   4.758   0.532 -0.0581  0.1265 -0.1288
  421W        W 4165   4.062   8.433   0.098  0.2403  0.0473 -0.0398
  422W        W 4166   8.904   6.757   2.687 -0.0101  0.4048  0.0327
  423W        W 4167   0.222   4.025   1.528  0.0616 -0.0147  0.1850
  424W        W 4168   5.354   6.919   1.227 -0.0482 -0.2802 -0.0553
  425W        W 4169   6.611   0.181  12.667 -0.3930  0.1727  0.1268
  426W        W 4170   4.437   8.467  12.570  0.0235 -0.0827  0.0180
  427W        W 4171   7.580   2.075   1.647  0.0230  0.0457  0.1010
  428W        W 4172   6.742   2.831   3.132 -0.1196  0.0649 -0.1459
  429W        W 4173   6.071   0.766  10.916 -0.0804 -0.1198  0.2278
  430W        W 4174   2.070   8.624   3.650  0.1361  0.0217  0.0094
  431W        W 4175   3.143   9.444   9.122 -0.0530  0.0396  0.2615
  432W        W 4176   7.701   9.011  12.569 -0.0035  0.3996  0.0061
  433W        W 4177   4.647   1.104   1.841  0.2071 -0.0873  0.0499
  434W        W 4178   3.925   3.477   2.873 -0.3204 -0.2595  0.0468
  435W        W 4179   7.610   4.954   0.680 -0.1278  0.0895 -0.2072
  436W        W 4180   9.724   7.079   9.954 -0.1076 -0.5286 -0.1137
  437W        W 4181   9.639   0.108  12.765 -0.0935 -0.1512  0.1087
  438W        W 4182   1.110   9.800   2.440 -0.1897 -0.0715  0.1266
  439W        W 4183   0.233   5.896   2.135 -0.1382 -0.1614  0.0899
  440W        W 4184   1.892   7.017  10.380 -0.4646  0.2129  0.2536
  441W        W 4185   1.679   0.049   1.683  0.2333 -0.0821  0.4381
  442W        W 4186   0.974   1.401   2.687 -0.1276  0.0218 -0.2977
  443W        W 4187   8.649   2.843   1.326  0.0560  0.2710 -0.0065
  444W        W 4188   9.496   8.967   0.792  0.1892  0.0519 -0.1241
  445W        W 4189   9.038   3.794  11.988 -0.0206 -0.0143 -0.4015
  446W        W 4190   5.666   0.422   9.972 -0.1611 -0.4008 -0.2447
  447W        W 4191   3.402   9.749  10.522 -0.2193  0.0908  0.1432
  448W        W 4192   7.825   5.852   0.322  0.0763  0.1912 -0.2622
  449W        W 4193   9.880   0.618  10.934  0.0983 -0.2006 -0.2237
  450W        W 4194   6.468   0.106   3.546  0.2620 -0.2459 -0.0320
  451W        W 4195   8.749   0.931   0.654  0.2230 -0.0277 -0.1039
  452W        W 4196   3.334   4.236  11.100 -0.0107 -0.1614  0.2375
  453W        W 4197   1.176   4.579  11.665  0.1996  0.1409 -0.2068
  454W        W 4198   7.526   9.013   0.988 -0.0485  0.0143 -0.3425
  455W        W 4199   5.698   2.935   4.188  0.1525 -0.4446  0.0158
  456W        W 4200   5.230   3.473  12.679  0.2438  0.3023 -0.0384
  457W        W 4201   7.045   8.487   4.411  0.2960  0.3957 -0.3610
  458W        W 4202   8.498   9.849   0.838 -0.3784  0.1652  0.1585
  459W        W 4203   9.867   5.207   2.940  0.0782 -0.0993  0.0604
  460W        W 4204   3.366   5.659  11.804  0.2502 -0.3195  0.0202
  461W        W 4205   1.114   5.444   1.730  0.1324 -0.0778 -0.2113
  462W        W 4206   1.613   1.870  11.868  0.0372 -0.2160  0.0729
  463W        W 4207   2.903   4.026  11.271 -0.2205 -0.0328  0.1676
  464W        W 4208   9.708   5.080  10.189 -0.2025  0.0026  0.0842
  465W        W 4209   7.383   6.309   9.942 -0.1208 -0.0955 -0.1114
  466W        W 4210   4.243   9.933   3.732  0.1450 -0.2338  0.1777
  467W        W 4211   3.571   7.484  12.582  0.2280  0.1216  0.1131
  468W        W 4212   2.738   0.314   3.165 -0.1038 -0.2820  0.1736
  469W        W 4213   0.908   2.935   4.321 -0.1207  0.0545  0.0672
  470W        W 4214   0.653   7.677  12.015  0.1067 -0.0268  0.2272
  471W        W 4215   5.615   5.353   2.769  0.1707  0.1808 -0.0873
  472W        W 4216   8.299   6.641  11.640  0.1099 -0.0530  0.1107
  473W        W 4217   2.459   8.577   0.239 -0.0809 -0.1248 -0.1411
  474W        W 4218   5.583   9.581   3.842 -0.3126 -0.2056 -0.0595
  475W        W 4219   8.933   5.158  10.819  0.0697  0.0831 -0.2618
  476W        W 4220   7.696   9.311   2.322  0.1206 -0.0240 -0.1219
  477W        W 4221   4.118   6.437  11.648 -0.2075 -0.1982  0.0819
  478W        W 4222   1.616   3.309   0.165 -0.0732 -0.0239  0.2425
  479W        W 4223   7.792   9.375   8.616  0.1626 -0.1144  0.3224
  480W        W 4224   9.786   0.514   2.349  0.1952  0.2152 -0.0354
  481W        W 4225   3.527   3.315  10.313 -0.0242  0.2789 -0.3255
  482W        W 4226   9.494   4.009   0.879  0.2191  0.1303  0.0172
  483W        W 4227   3.045   7.862  11.856 -0.1525  0.0176 -0.1683
  484W        W 4228   0.765   0.489  11.217  0.0689 -0.0538 -0.1778
  485W        W 4229   6.680   1.936   9.962  0.2750  0.2096 -0.0314
  486W        W 4230   4.290   1.923   2.008  0.0586  0.1039 -0.0042
  487W        W 4231   1.695   0.059  11.958 -0.0207  0.1948 -0.1433
  488W        W 4232   6.789   6.415  12.369  0.1223  0.2676 -0.1304
  489W        W 4233   3.133   6.398   2.187 -0.0451 -0.0091  0.0405
  490W        W 4234   9.836   9.894   9.426 -0.1517  0.1949  0.2463
  491W        W 4235   9.693   5.671   1.430  0.0192  0.0514 -0.0206
  492W        W 4236   3.534   8.305   9.172  0.1506 -0.1028 -0.1919
  493W        W 4237   5.520   5.242  12.450 -0.2603  0.0726 -0.4260
  494W        W 4238   9.600   3.763  11.597 -0.1156 -0.1474 -0.0605
  495W        W 4239   2.950   1.192  10.906 -0.3078  0.0310  0.3111
  496W        W 4240   4.468   4.237   1.913  0.1127  0.0086  0.0096
  497W        W 4241   7.849   2.031  12.075  0.1691 -0.0534 -0.2789
  498W        W 4242   1.627   7.973  10.516 -0.2225 -0.0803 -0.2290
  499W        W 4243   7.207   5.368   1.622 -0.0531 -0.0743 -0.0935
  500W        W 4244   7.401   5.645  11.111 -0.2635  0.0735 -0.0473
  501W        W 4245   8.079   5.507   1.215  0.0390 -0.2946  0.1126
  502W        W 4246   3.737   9.629  10.851  0.0249 -0.1494  0.1271
  503W        W 4247   7.290   0.024   0.236  0.0718  0.0224 -0.3174
  504W        W 4248   1.344   1.454   8.499  0.2604 -0.1386  0.3119
  505W        W 4249   2.523   0.087   8.645 -0.0665 -0.0910 -0.1012
  506W        W 4250   0.780   3.088  12.553  0.4502  0.1827 -0.1711
  507W        W 4251   1.517   4.114  12.487  0.0513  0.2126 -0.0842
  508W        W 4252   8.201   2.372  12.435  0.0431 -0.0597 -0.2865
  509W        W 4253   6.111   7.975  12.626 -0.3491  0.1797  0.1618
  510W        W 4254   6.169   8.968   9.460 -0.3808 -0.2623  0.2107
  511W        W 4255   6.106   7.155  11.981 -0.0613 -0.1425 -0.0786
  512W        W 4256   1.910   3.044   9.026 -0.0065  0.0830  0.1430
  513W        W 4257   6.426   1.791   0.084  0.0269 -0.2463  0.0096
  514W        W 4258   1.595   8.868   2.945 -0.0429  0.1043  0.1211
  515W        W 4259   2.260   2.375   0.650  0.0061  0.2319 -0.3408
  516W        W 4260   7.812   2.698  10.047 -0.0387 -0.2263 -0.0730
  517W        W 4261   1.640   1.881   8.493 -0.1019 -0.2155 -0.2005
  518W        W 4262   2.137   8.044  12.242 -0.0954 -0.2825 -0.1467
  519W        W 4263   2.095   4.858   9.844 -0.0389  0.3169  0.3121
  520W        W 4264   0.071   1.296   0.366 -0.0510 -0.1002  0.1035
  521W        W 4265   4.394   6.828   2.246  0.0750  0.0835 -0.2780
  522W        W 4266   1.287   4.519   0.879 -0.2026  0.1347  0.1726
  523W        W 4267   4.231   5.447   2.696  0.0694  0.1502 -0.4608
  524W        W 4268   7.642   0.438   9.876 -0.1207  0.0010 -0.2156
  525W        W 4269   6.873   4.241  11.713 -0.1001  0.0429 -0.0020
  526W        W 4270   4.065   0.288   9.994  0.2191 -0.1900 -0.1082
  527W        W 4271   8.926   3.186   4.060  0.0651  0.0478  0.0282
  528W        W 4272   0.667   0.498   9.564 -0.3483 -0.3495  0.0049
  529W        W 4273   9.477   9.422   9.029 -0.3548  0.0240 -0.0072
  530W        W 4274   6.465   6.654   2.601  0.0893  0.1467 -0.2016
  531W        W 4275   5.966   2.555   3.867  0.0618  0.0561 -0.0282
  532W        W 4276   5.188   3.704   3.732 -0.1885 -0.0310  0.1443
  533W        W 4277   2.772   9.092   3.791  0.1041 -0.5033  0.1930
  534W        W 4278   7.421   3.621   0.987 -0.0411  0.1831  0.2333
  535W        W 4279   5.980   9.462   9.519 -0.0127  0.1402 -0.1948
  536W        W 4280   1.362   7.342   0.276 -0.1812  0.1263 -0.3229
  537W        W 4281   7.808   8.887   3.515  0.2560  0.0307  0.2136
  538W        W 4282   6.901   4.304   1.683 -0.0636  0.0170 -0.1116
  539W        W 4283   2.960   8.576   9.482  0.0787  0.1781  0.0623
  540W        W 4284   0.537   7.442   3.042  0.0985  0.0737 -0.0400
  541W        W 4285   0.485   1.180   1.720 -0.0315 -0.0348  0.2081
  542W        W 4286   2.968   4.268   1.723  0.1388 -0.1144  0.1339
  543W        W 4287   3.811   1.968   0.169  0.0815 -0.1690  0.0542
  544W        W 4288   0.025   6.844   8.480 -0.1885 -0.0416  0.0166
  545W        W 4289   7.089   2.376   0.413  0.0086  0.2811  0.0579
  546W        W 4290   0.791   5.927  11.238 -0.0575 -0.1404 -0.2661
  547W        W 4291   3.686   4.841  11.698  0.5011  0.2339 -0.0499
  548W        W 4292   6.159   5.839   0.171 -0.0358  0.3638  0.0355
  549W        W 4293   9.395   8.318   2.816  0.0438  0.1484  0.0162
  550W        W 4294   5.882   1.125   2.179  0.1155  0.2554  0.2649
  551W        W 4295   4.260   8.727   9.100 -0.0836  0.0577 -0.0520
  552W        W 4296   2.245   4.715  11.552 -0.1035 -0.1336  0.0046
  553W        W 4297   6.212   6.977   9.034  0.0585 -0.3877  0.1894
  554W        W 4298   3.771   8.613   3.326 -0.0345  0.0727 -0.1479
  555W        W 4299   7.639   5.315   8.813 -0.3297  0.1767  0.0695
  556W        W 4300   3.778   5.939  10.796  0.2404 -0.0036 -0.1238
  557W        W 4301   2.903   0.664   0.284 -0.1641 -0.0717  0.0274
  558W        W 4302   3.781   5.527   1.617 -0.0392 -0.0436  0.2621
  559W        W 4303   5.824   3.905   4.074  0.1394 -0.1908  0.0557
  560W        W 4304   6.097   6.915   0.126 -0.1568 -0.0442  0.0455
  561W        W 4305   5.937   3.040  10.210  0.1204 -0.1487 -0.0626
  562W        W 4306   9.206   7.741   3.690 -0.0742 -0.0183 -0.1304
  563W        W 4307   4.872   2.990  10.919 -0.0430  0.0782 -0.0110
  564W        W 4308   9.770   8.025   0.656  0.2007  0.0782 -0.0039
  565W        W 4309   9.358   1.365   9.666  0.1639 -0.3406 -0.1719
  566W        W 4310   4.589   9.347   9.861 -0.1444  0.2101 -0.0888
  567W        W 4311   7.800   9.781   4.656 -0.4347 -0.0916  0.2491
  568W        W 4312   6.980   9.398  12.381  0.1259  0.0872  0.1767
  569W        W 4313   6.289   6.402   3.987 -0.2212  0.2483 -0.1907
  570W        W 4314   5.921   0.922   0.461  0.1479 -0.0530 -0.1923
  571W        W 4315   1.357   9.857   9.491 -0.1904 -0.2352 -0.1503
  572W        W 4316   3.510   0.656   0.022 -0.1371 -0.4575  0.1077
  573W        W 4317   6.691   6.638   9.310 -0.0975 -0.2383  0.0307
  574W        W 4318   3.458   1.115   3.542  0.0385 -0.2453 -0.0858
  575W        W 4319   0.183   2.902   8.779 -0.0104  0.1041 -0.1980
  576W        W 4320   2.085   8.187   8.421  0.2183 -0.2135  0.0458
  577W        W 4321   5.309   8.832   2.892 -0.2341 -0.2623  0.1311
  578W        W 4322   5.632   9.486   0.314  0.1577 -0.2015  0.1947
  579W        W 4323   8.782   4.186   1.799 -0.0580  0.0772 -0.2626
  580W        W 4324   7.800   5.560   1.659 -0.1083 -0.3106  0.1516
  581W        W 4325   0.378   2.103   2.665 -0.0435  0.0235  0.0127
  582W        W 4326   8.898   2.348   1.262  0.1384  0.1526  0.0096
  583W        W 4327   3.015   1.741   8.748 -0.0386  0.0483  0.0738
  584W        W 4328   3.801   6.521   9.577  0.3150 -0.1367 -0.1403
  585W        W 4329   2.847   0.796   8.713  0.3805 -0.0386 -0.2038
  586W        W 4330   9.345   5.431   9.433 -0.1439  0.1869  0.2659
  587W        W 4331   1.332   4.194   9.952  0.0129 -0.1272 -0.0339
  588W        W 4332   7.497   8.491  12.225  0.1090 -0.0742  0.0344
  589W        W 4333   4.572   0.459   4.597  0.3771 -0.1778 -0.2163
  590W        W 4334   1.937   4.938  11.969 -0.3639  0.1506  0.2684
  591W        W 4335   4.524   4.414   3.669 -0.0126 -0.1726 -0.0197
  592W        W 4336   3.790   7.558  10.710 -0.3838 -0.1347  0.1494
  593W        W 4337   2.616   6.753   3.280  0.0034 -0.2225 -0.0061
  594W        W 4338   6.266   3.155   2.218  0.1158 -0.2685 -0.1317
  595W        W 4339   2.321   7.221   1.244 -0.1098 -0.2175 -0.3069
  596W        W 4340   0.587   9.681   0.109  0.0839 -0.1489  0.0460
  597W        W 4341   0.586   3.636   9.435 -0.0773  0.2396  0.5010
  598W        W 4342   3.527   2.674   1.029  0.0409  0.0354 -0.0132
  599W        W 4343   2.015   2.052  11.553 -0.3191  0.0699 -0.2441
  600W        W 4344   6.871   0.254   0.295  0.0643  0.3280  0.0731
  601W        W 4345   3.027   9.323  12.641  0.0731 -0.1236 -0.2688
  602W        W 4346   8.987   7.054   0.785 -0.1726 -0.3241  0.1000
  603W        W 4347   0.017   3.970   1.104  0.0273 -0.0297  0.2093
  604W        W 4348   8.689   3.124   8.554  0.0636  0.0476 -0.0858
  605W        W 4349   7.582   4.649  11.844 -0.0662  0.1179 -0.0458
  606W        W 4350   4.744   7.873   3.061 -0.1545  0.1215  0.1161
  607W        W 4351   2.714   8.705   8.541  0.1355 -0.0904  0.0904
  608W        W 4352   4.033   7.617   3.660  0.3477  0.1376  0.1373
  609W        W 4353   6.578   7.386  11.045 -0.0772 -0.1438 -0.0348
  610W        W 4354   7.347   5.254  10.261 -0.4793  0.2877  0.2516
  611W        W 4355   1.017   3.842   2.209 -0.1247 -0.0517 -0.0943
  612W        W 4356   0.034   2.204   0.387 -0.4696 -0.1273 -0.1943
  613W        W 4357   8.039   8.258   0.806  0.0426 -0.1562  0.1067
  614W        W 4358   1.167   2.008   8.484 -0.2664 -0.0943 -0.1308
  615W        W 4359   5.593   4.808   8.965  0.0566 -0.0675 -0.2234
  616W        W 4360   9.925   8.053   0.103  0.1347 -0.1796 -0.4179
  617W        W 4361   1.799   7.182   1.175 -0.0880  0.0527 -0.0981
  618W        W 4362   3.974   5.406   9.573  0.0288 -0.1875  0.1894
  619W        W 4363   9.482   9.477  10.334 -0.1853  0.3438  0.2397
  620W        W 4364   4.766   3.511  11.968 -0.0219 -0.0753  0.0808
  621W        W 4365   1.792   2.949  11.684 -0.2525 -0.3974 -0.0212
  622W        W 4366   7.530   1.994   3.475 -0.3115  0.1567  0.1943
  623W        W 4367   2.508   7.977   2.012 -0.0178 -0.0708  0.1475
  624W        W 4368   9.711   5.749  11.995 -0.0506 -0.2448  0.0626
  625W        W 4369   9.315   7.072   2.703 -0.0021  0.1398  0.1067
  626W        W 4370   6.295   1.609  10.863 -0.0596 -0.1401 -0.0669
  627W        W 4371   9.911   5.040  11.033 -0.1869 -0.1276 -0.3761
  628W        W 4372   9.294   3.111  11.332  0.0434 -0.1579 -0.0482
  629W        W 4373   6.653   8.743   4.278 -0.1863 -0.3293 -0.2679
  630W        W 4374   9.603   1.542   1.425  0.0097  0.0185 -0.0711
  631W        W 4375   8.630   1.489   0.827 -0.1743  0.2577  0.0640
  632W        W 4376   0.925   8.262  10.868 -0.0836  0.3543 -0.1317
  633W        W 4377   7.886   4.038  10.053  0.1479 -0.0341  0.2686
  634W        W 4378   7.510   7.880   9.057  0.1703  0.0851 -0.2569
  635W        W 4379   8.697   0.052  11.826  0.1966  0.0109  0.1137
  636W        W 4380   4.893   1.331  12.322 -0.1119  0.2314 -0.1505
  637W        W 4381   4.749   1.313   1.376  0.3364 -0.0412  0.0422
  638W        W 4382   2.053   5.331  11.124  0.1030 -0.0608 -0.0447
  639W        W 4383   0.807   1.187   9.575  0.0263  0.1713  0.0972
  640W        W 4384   6.103   7.564  10.365  0.1262 -0.1402 -0.0716
  641W        W 4385   6.524   5.660   3.766 -0.1222 -0.0491 -0.0435
  642W        W 4386   3.959   2.086   8.969 -0.0510 -0.0819  0.0007
  643W        W 4387   7.997   1.956   1.287 -0.2073 -0.2147 -0.1514
  644W        W 4388   7.521   1.546   3.809  0.2392 -0.1251  0.1192
  645W        W 4389   3.276   8.980   0.460  0.0452 -0.0997  0.1196
  646W        W 4390   8.578   2.145   7.977  0.0274  0.1303  0.4575
  647W        W 4391   1.107   9.193   3.778 -0.0222 -0.2157  0.0199
  648W        W 4392   0.765   5.909  11.780 -0.1764  0.0779 -0.2452
  649W        W 4393   7.403   2.305  12.171  0.3143 -0.1059  0.1920
  650W        W 4394   6.514   7.376   0.966  0.1767 -0.0489 -0.2985
  651W        W 4395   2.136   0.131  11.846  0.1642 -0.1254  0.2418
  652W        W 4396   7.925   5.743  11.035 -0.2433 -0.2030  0.1832
  653W        W 4397   6.633   2.281   1.286 -0.0408  0.1831  0.2131
  654W        W 4398   3.882   5.346  12.485  0.1754  0.0600 -0.1327
  655W        W 4399   5.321   5.478   3.651 -0.2511 -0.1803 -0.1959
  656W        W 4400   6.848   8.319   1.970 -0.1941 -0.3873  0.1588
  657W        W 4401   0.522   4.880   1.325 -0.1592  0.1090  0.1140
  658W        W 4402   1.327   6.513  10.070 -0.0063 -0.1530 -0.0597
  659W        W 4403   1.228   1.963   9.758 -0.2463 -0.1870  0.0316
  660W        W 4404   2.865   5.206   2.960  0.2071  0.4765  0.2576
  661W        W 4405   5.735   3.612   3.036  0.1189 -0.2089  0.2202
  662W        W 4406   3.992   0.694   4.398  0.2013 -0.0947 -0.2224
  663W        W 4407   4.886   4.330   3.120 -0.2527 -0.2152 -0.2689
  664W        W 4408   3.378   1.642   9.150  0.0298 -0.0493  0.1712
  665W        W 4409   2.569   8.671   3.465 -0.2767  0.0161  0.0215
  666W        W 4410   5.470   1.952   2.577  0.1501 -0.1744  0.1674
  667W        W 4411   6.426   2.651   9.409  0.1556  0.1360 -0.1409
  668W        W 4412   4.882   7.310   0.446  0.2146 -0.1103 -0.0428
  669W        W 4413   7.180   6.880   4.000  0.2642 -0.2023  0.0520
  670W        W 4414   6.141   4.792   3.585  0.3365  0.2878  0.1169
  671W        W 4415   5.813   3.628   9.609 -0.0696  0.0880  0.4107
  672W        W 4416   6.846   0.733   0.074  0.0057 -0.1678  0.0446
  673W        W 4417   9.517   5.810   3.276  0.1818 -0.2604  0.2035
  674W        W 4418   5.268   1.433   4.687  0.0534 -0.1902  0.0173
  675W        W 4419   5.379   3.413   3.406 -0.0603  0.1660  0.3964
  676W        W 4420   0.963   5.226   0.653  0.0958 -0.1141 -0.2493
  677W        W 4421   2.026   9.150   2.696 -0.2325 -0.2229  0.1581
  678W        W 4422   2.329   3.765   0.241  0.0638 -0.0546 -0.0111
  679W        W 4423   4.056   2.566  10.834 -0.2175 -0.0369  0.3377
  680W        W 4424   0.464   7.969  10.768 -0.0495 -0.0267 -0.0888
  681W        W 4425   1.425   1.322  11.084  0.2070 -0.3878  0.0412
  682W        W 4426   9.265   0.436   2.242 -0.1058  0.1624  0.0491
  683W        W 4427   6.725   5.229   1.491  0.1974 -0.1478  0.1284
  684W        W 4428   6.937   6.106   9.533 -0.0233 -0.0963  0.0499
  685W        W 4429   2.133   6.808   9.976  0.1904 -0.0237  0.3981
  686W        W 4430   6.390   7.089   4.364  0.0082  0.1095 -0.0653
  687W        W 4431   1.148   1.830  11.945 -0.2100  0.1381 -0.0506
  688W        W 4432   4.376   0.340   3.168 -0.1759 -0.5109 -0.3289
  689W        W 4433   9.828   3.461   0.783  0.1829 -0.1688  0.2196
  690W        W 4434   2.911   4.977  11.318  0.4891 -0.0094 -0.1112
  691W        W 4435   2.903   7.602   1.492 -0.1707  0.0759 -0.0044
  692W        W 4436   1.428   9.098   2.042 -0.1192  0.1900 -0.2077
  693W        W 4437   3.648   5.198   1.262 -0.0868 -0.0569  0.2524
  694W        W 4438   7.405   4.474   1.498  0.0465 -0.2902  0.1347
  695W        W 4439   3.357   2.379  11.264  0.0191 -0.2251 -0.3586
  696W        W 4440   7.701   9.529   0.193  0.1769  0.0843  0.1864
  697W        W 4441   8.151   9.619   1.080 -0.1353  0.3056 -0.0285
  698W        W 4442   2.252   7.753  12.606 -0.0532 -0.0483 -0.0705
  699W        W 4443   9.900   1.424   2.916 -0.0225  0.2238 -0.1263
  700W        W 4444   5.378   6.193   0.908  0.3911  0.0989  0.0722
  701W        W 4445   1.597   0.529   1.696 -0.2222 -0.1756 -0.0993
  702W        W 4446   1.127   9.717   0.124  0.0157  0.1905 -0.2847
  703W        W 4447   6.922   1.399  11.635 -0.1070  0.2384  0.1923
  704W        W 4448   5.541   7.907   9.859  0.1130 -0.1627 -0.0435
  705W        W 4449   6.708   4.893   4.377 -0.1716  0.0936 -0.2231
  706W        W 4450   5.393   3.343   9.548  0.1712 -0.0944 -0.0015
  707W        W 4451   4.066   1.368   9.617  0.1145 -0.1852  0.3698
  708W        W 4452   5.567   0.221  10.544  0.1108  0.1400  0.2309
  709W        W 4453   0.222   1.177  12.110 -0.1211  0.0052 -0.3972
  710W        W 4454   7.133   8.103   3.989 -0.1437 -0.1120 -0.1839
  711W        W 4455   9.233   4.426   1.682  0.5508 -0.0132 -0.0970
  712W        W 4456   5.316   8.841   1.078  0.3081  0.1061  0.1350
  713W        W 4457   2.643   6.761  10.224 -0.1329 -0.1192  0.0950
  714W        W 4458   8.978   8.792   0.245  0.1626 -0.0823  0.0787
  715W        W 4459   9.768   9.009   9.366  0.0183  0.0543 -0.0083
  716W        W 4460   7.134   7.243   0.933  0.0738 -0.0656  0.1570
  717W        W 4461   3.189   0.208   3.283  0.1222 -0.0730 -0.1827
  718W        W 4462   5.631   9.776   9.709  0.1042  0.0484 -0.2455
  719W        W 4463   1.282   2.305  10.246  0.3414  0.1536 -0.1556
  720W        W 4464   8.782   7.575   2.809  0.0973 -0.3115  0.5392
  721W        W 4465   7.139   4.265  12.561  0.5021 -0.4296  0.0698
  722W        W 4466   7.730   8.982   9.939 -0.1979 -0.0160 -0.2178
  723W        W 4467   4.574   0.700   9.289  0.1712  0.1179 -0.0926
  724W        W 4468   1.958   8.632  11.407  0.1695 -0.2542  0.0566
  725W        W 4469   5.315   7.467   0.241 -0.0459  0.0541 -0.0599
  726W        W 4470   0.655   4.912  10.291  0.0963 -0.2357 -0.4909
  727W        W 4471   8.309   2.142   0.631  0.0044  0.0897 -0.3403
  728W        W 4472   9.501   5.339  11.050  0.0790  0.1172  0.0455
  729W        W 4473   4.252   2.299  10.486  0.1290  0.3986  0.3050
  730W        W 4474   4.587   3.796   3.805  0.0955  0.2151  0.2569
  731W        W 4475   3.810   1.139   4.484  0.2053  0.2404  0.1781
  732W        W 4476   9.818   7.900  12.398  0.2971  0.0409  0.1622
  733W        W 4477   9.173   2.911  10.265  0.0166 -0.0073  0.2451
  734W        W 4478   2.476   4.977   2.382  0.1194 -0.0158  0.0291
  735W        W 4479   0.184   9.022  11.000  0.0114  0.0481  0.0410
  736W        W 4480   1.507   6.829   0.024  0.1043  0.0531  0.0732
  737W        W 4481   8.352   3.935  10.503  0.3061  0.3571  0.0503
  738W        W 4482   6.432   5.474   0.703  0.2639  0.1570  0.5231
  739W        W 4483   5.612   3.359   3.836  0.1567  0.2338  0.0266
  740W        W 4484   1.753   5.351   0.037 -0.1810  0.2092 -0.2011
  741W        W 4485   7.250   6.810  11.569  0.2847  0.3083  0.0749
  742W        W 4486   8.190   1.151   9.784  0.1180 -0.3178  0.0619
  743W        W 4487   3.117   9.482   4.139 -0.1367  0.1627  0.1774
  744W        W 4488   3.368   4.756  10.377  0.0779 -0.0587  0.1525
  745W        W 4489   2.987   6.803  12.105 -0.2517  0.0516 -0.0106
  746W        W 4490   8.778   7.474   3.287 -0.0108 -0.2814 -0.1365
  747W        W 4491   9.510   8.496  12.098  0.0020  0.2426  0.0125
  748W        W 4492   3.542   6.041   1.943 -0.2056  0.5038 -0.0850
  749W        W 4493   2.256   6.790   1.730  0.1509  0.3407  0.3482
  750W        W 4494   7.308   2.093   9.952 -0.3157  0.0087  0.0129
  751W        W 4495   9.161   8.476  11.390 -0.2292  0.1026  0.3146
  752W        W 4496   1.204   9.251   1.566 -0.2306 -0.1586  0.1431
  753W        W 4497   6.619   2.225   3.758 -0.1423  0.1436  0.1807
  754W        W 4498   7.570   3.150   1.990 -0.0993  0.2717 -0.1051
  755W        W 4499   6.102   5.489   9.422 -0.0450 -0.2137  0.3141
  756W        W 4500   1.723   7.468  10.398  0.2360  0.2303 -0.0987
  757W        W 4501   6.898   6.993  10.183 -0.0440  0.2851  0.0290
  758W        W 4502   5.279   0.149  12.409  0.0166  0.0892 -0.1730
  759W        W 4503   4.520   4.275  11.603  0.1614 -0.0905 -0.1507
  760W        W 4504   3.125   5.282  10.479  0.1740 -0.0131 -0.0711
  761W        W 4505   0.088   6.562  10.685 -0.2333 -0.0340 -0.2053
  762W        W 4506   7.341   7.968   2.700 -0.0629  0.2028  0.2032
  763W        W 4507   7.662   5.348  10.671 -0.0349 -0.3329  0.0160
  764W        W 4508   3.360   3.219  10.834 -0.1021  0.0668 -0.2194
  765W        W 4509   7.939   2.521   0.882  0.0281  0.0056 -0.1448
  766W        W 4510   6.276   0.946  10.436  0.3865 -0.3589  0.2523
  767W        W 4511   4.494   5.227   3.614  0.0230  0.1439  0.2310
  768W        W 4512   0.021   0.235  11.710 -0.5521 -0.1244  0.0824
  769W        W 4513   0.165   3.082  10.253  0.3409 -0.1572 -0.0826
  770W        W 4514   0.407   8.786   0.714 -0.2634 -0.2446 -0.2009
  771W        W 4515   7.188   6.711  12.486  0.0468 -0.0014  0.0792
  772W        W 4516   8.190   1.057  10.683 -0.0936  0.1318 -0.0584
  773W        W 4517   6.047   2.764   9.781  0.2316 -0.0498  0.1606
  774W        W 4518   6.850   2.665   4.491  0.2095  0.0099 -0.1886
  775W        W 4519   8.658   2.241  11.487 -0.2060 -0.2050 -0.0028
  776W        W 4520   2.505   9.847   2.002 -0.1620 -0.1319  0.0673
  777W        W 4521   2.628   8.242  12.002 -0.1999  0.1171 -0.5389
  778W        W 4522   8.212   7.241   0.926  0.1254  0.3993  0.1222
  779W        W 4523   3.719   6.024   8.854 -0.2812 -0.3158 -0.0010
  780W        W 4524   6.839   4.118  11.065  0.1800 -0.2494 -0.2995
  781W        W 4525   7.375   6.723  10.232 -0.0497  0.1379  0.3994
  782W        W 4526   3.967   3.407  11.945 -0.1151 -0.0906  0.1346
  783W        W 4527   6.625   8.189  12.507 -0.1867  0.1052 -0.1249
  784W        W 4528   9.845   3.883  12.251 -0.0582 -0.1758  0.1236
  785W        W 4529   6.243   7.478   3.183 -0.0929  0.1857 -0.3675
  786W        W 4530   6.112   3.541   3.907 -0.0333  0.1948  0.0877
  787W        W 4531   4.722   4.242  12.473 -0.0136 -0.1372 -0.1296
  788W        W 4532   2.150   3.000   9.456  0.0441 -0.1196 -0.0506
  789W        W 4533   3.632   5.511   2.090  0.1315 -0.0741  0.1711
  790W        W 4534   1.030   8.970  12.065  0.0704 -0.4519 -0.0729
  791W        W 4535   7.551   6.800   9.272  0.2121  0.0547  0.0739
  792W        W 4536   0.898   2.723   1.160 -0.7106 -0.0762  0.0813
  793W        W 4537   2.185   9.649   9.566  0.2485  0.0030  0.0190
  794W        W 4538   7.323   4.369   3.800  0.1074 -0.1328 -0.3687
  795W        W 4539   2.768   9.870   9.778  0.1264 -0.1667  0.2012
  796W        W 4540   5.447   9.404   9.999  0.0307  0.0239 -0.0125
  797W        W 4541   9.329   0.927   5.020 -0.0482 -0.1951 -0.0570
  798W        W 4542   7.280   0.196   8.769  0.3716  0.0182  0.0587
  799W        W 4543   6.130   9.048  10.623  0.2677 -0.2275 -0.3185
  800W        W 4544   4.435   9.332  12.688  0.4241  0.1366  0.0959
  801W        W 4545   1.630   4.524   1.618  0.1600  0.1610  0.0756
  802W        W 4546   7.207   4.273   2.046  0.1949 -0.0633 -0.1417
  803W        W 4547   6.437   3.307   3.597  0.2202  0.0975  0.2749
  804W        W 4548   9.760   3.746   1.791  0.1117 -0.2096  0.0834
  805W        W 4549   1.915   5.823   9.773  0.0797 -0.4892 -0.1411
  806W        W 4550   6.638   1.805   3.451 -0.1387 -0.1617 -0.3095
  807W        W 4551   3.170   6.311   1.656  0.0685  0.2521 -0.2061
  808W        W 4552   2.074   6.011  11.182  0.1072 -0.2967  0.2305
  809W        W 4553   8.730   1.989  11.908  0.2267 -0.0622 -0.1668
  810W        W 4554   9.695   8.291  11.652  0.0139  0.2196  0.2652
  811W        W 4555   3.900   2.290  11.231  0.1038 -0.0979 -0.1091
  812W        W 4556   6.486   4.733   8.577 -0.0458  0.3877 -0.0380
  813W        W 4557   2.421   6.483   2.845 -0.2585 -0.1874  0.0212
  814W        W 4558   1.378   3.607   1.283  0.0450 -0.0885 -0.0435
  815W        W 4559   2.393   0.711  11.273 -0.1272  0.0846 -0.3579
  816W        W 4560   1.073   1.546  10.032 -0.1514 -0.2106 -0.0459
  817W        W 4561   8.448   1.039   2.084 -0.1093  0.3242 -0.1309
  818W        W 4562   2.092   4.719  12.571 -0.0812 -0.4152  0.0863
  819W        W 4563   5.622   2.935   2.323  0.0620  0.2364 -0.1604
  820W        W 4564   3.923   3.715  11.539  0.4099  0.1090 -0.1781
  821W        W 4565   8.353   0.538   2.045  0.1756  0.1050 -0.1005
  822W        W 4566   5.553   6.375  11.951 -0.0911 -0.3177  0.1888
  823W        W 4567   2.788   3.647  10.911  0.3455  0.0924  0.0251
  824W        W 4568   9.156   2.264   0.311 -0.2313 -0.0435 -0.0297
  825W        W 4569   0.277   9.792  11.940 -0.1371 -0.4782 -0.1223
  826W        W 4570   5.501   7.787  11.921  0.1129  0.2459 -0.2984
  827W        W 4571   4.497   3.066   1.385  0.1099 -0.1884 -0.2367
  828W        W 4572   1.389   1.273  10.529  0.1219  0.2391  0.0858
  829W        W 4573   5.640   2.254  10.421 -0.0672  0.1808  0.0158
  830W        W 4574   7.541   8.391  10.736 -0.0161  0.0961  0.1654
  831W        W 4575   8.712   5.380  11.504 -0.0141 -0.1668 -0.0142
  832W        W 4576   4.482   6.387   1.285  0.1456  0.0115  0.1833
  833W        W 4577   9.505   4.838   0.929 -0.1709 -0.0541 -0.2423
  834W        W 4578   8.017   3.175   3.969 -0.2540 -0.0629 -0.0024
  835W        W 4579   9.833   8.013   1.764 -0.4951 -0.0415 -0.2342
  836W        W 4580   8.163   1.978   3.720  0.1418  0.0287  0.0903
  837W        W 4581   8.892   8.421   1.906 -0.2023  0.1105 -0.2255
  838W        W 4582   4.941   3.986   9.073  0.0487 -0.4075  0.0916
  839W        W 4583   7.146   5.451  12.137 -0.0275 -0.0978  0.0727
  840W        W 4584   7.053   9.823  12.617  0.3298 -0.0049 -0.1349
  841W        W 4585   6.805   9.914  11.643 -0.0495 -0.1112  0.0352
  842W        W 4586   7.211   7.669  10.026 -0.1558 -0.0777  0.1186
  843W        W 4587   7.687   7.657   2.378  0.0066 -0.2002 -0.0010
  844W        W 4588   2.700   4.101   0.489  0.0866  0.2456 -0.0835
  845W        W 4589   0.591   7.217  11.099 -0.2693 -0.2719 -0.1392
  846W        W 4590   0.173   5.793   4.189 -0.0548 -0.2644  0.1969
  847W        W 4591   6.449   7.645   9.631  0.0451  0.3107 -0.0617
  848W        W 4592   1.775   3.401   3.534  0.0577  0.1402 -0.1440
  849W        W 4593   2.226   0.564   0.276 -0.1467 -0.0467  0.1947
  850W        W 4594   6.184   4.853   0.493 -0.1608  0.0850 -0.1971
  851W        W 4595   7.931   4.571  10.947  0.0599 -0.3274  0.0826
  852W        W 4596   8.589   0.001   2.882  0.0550  0.1738  0.4066
  853W        W 4597   0.695   0.853   9.901 -0.2153  0.1038  0.1122
  854W        W 4598   7.805   2.039   0.798 -0.4176 -0.0387 -0.0198
  855W        W 4599   1.140   8.196   0.746 -0.0497  0.1320 -0.0085
  856W        W 4600   5.688   8.703   4.393 -0.0509 -0.3538  0.0137
  857W        W 4601   8.904   2.824   0.916 -0.0507  0.1364  0.0842
  858W        W 4602   6.196   9.357   1.414  0.3750 -0.1642  0.0109
  859W        W 4603   8.687   3.001  10.471  0.1172  0.0868  0.2414
  860W        W 4604   4.948   5.982   1.110  0.1860 -0.1259  0.0864
  861W        W 4605   4.008   5.480  10.609 -0.0112 -0.2041 -0.1189
  862W        W 4606   4.556   9.507  11.545  0.2698  0.1809 -0.0625
  863W        W 4607   1.607   8.042   1.944 -0.5716 -0.1127  0.1316
  864W        W 4608   9.808   1.167   2.467 -0.2477  0.3819  0.0578
  865W        W 4609   6.400   3.606   1.137  0.0938  0.2195  0.0902
  866W        W 4610   7.125   8.944  12.714  0.1386 -0.0259  0.2017
  867W        W 4611   4.537   4.680   1.096  0.0584  0.3784  0.0620
  868W        W 4612   8.875   5.143   3.824  0.0336  0.0797  0.1425
  869W        W 4613   2.139   5.471  10.406  0.1452 -0.0906  0.2323
  870W        W 4614   3.569   0.218   2.887 -0.2211  0.1933  0.1562
  871W        W 4615   6.652   5.304  10.932  0.0250 -0.0164  0.0641
  872W        W 4616   6.705   8.142   3.599 -0.0312 -0.2875 -0.0684
  873W        W 4617   4.228   4.361   1.423 -0.1109 -0.2629  0.0488
  874W        W 4618   0.868   6.453   2.842 -0.1003 -0.1466  0.2994
  875W        W 4619   1.671   3.956  12.032 -0.3186  0.2658 -0.1167
  876W        W 4620   7.723   3.957   4.063  0.1259 -0.0471  0.1431
  877W        W 4621   1.713   2.090   9.457 -0.1021  0.0321 -0.3219
  878W        W 4622   9.350   6.923  11.331  0.1272  0.2154  0.2422
  879W        W 4623   7.030   5.601   8.551  0.1294  0.1416 -0.0386
  880W        W 4624   2.570   9.010  10.300 -0.1162  0.1839  0.1178
  881W        W 4625   1.934   6.502   0.045  0.2053  0.0154 -0.3532
  882W        W 4626   9.228   4.030   2.623 -0.2679  0.0924 -0.0533
  883W        W 4627   0.298   2.078   4.410  0.3037  0.0335  0.0315
  884W        W 4628   9.852   5.685  11.152 -0.0232 -0.0916 -0.0586
  885W        W 4629   7.866   0.069   0.267  0.2017  0.3713 -0.0175
  886W        W 4630   3.333   0.658  11.026 -0.1576 -0.1407 -0.1852
  887W        W 4631   7.446   0.191   9.269  0.1362  0.1590  0.3594
  888W        W 4632   2.427   3.450   9.204 -0.0897  0.1912  0.0157
  889W        W 4633   3.723   7.941  12.497  0.1964 -0.0472 -0.0740
  890W        W 4634   0.927   7.502   1.663  0.2815 -0.0139  0.2857
  891W        W 4635   4.461   0.128  12.312  0.2987 -0.0949 -0.0095
  892W        W 4636   1.174   4.490   1.466  0.1925  0.0350 -0.2426
  893W        W 4637   5.327   3.160   8.649  0.4552 -0.1025  0.0223
  894W        W 4638   5.546   6.084   2.897 -0.1841 -0.1019 -0.2068
  895W        W 4639   0.905   7.068   1.977  0.1415 -0.3495  0.2626
  896W        W 4640   5.449   0.858   9.765  0.0228 -0.1915 -0.0899
  897W        W 4641   6.846   9.063   9.613 -0.0655  0.1046 -0.3312
  898W        W 4642   1.020   3.512   1.567 -0.0981  0.1480  0.0535
  899W        W 4643   3.969   5.893   2.484 -0.0946 -0.1472  0.3857
  900W        W 4644   9.727   0.780   4.273 -0.1032 -0.2464 -0.1316
  901W        W 4645   2.302   4.590  12.050 -0.1918  0.1544  0.2624
  902W        W 4646   3.582   9.335  10.063 -0.4188  0.2295  0.0367
  903W        W 4647   5.903   8.396   1.669 -0.2424  0.1665 -0.0614
  904W        W 4648   9.801   8.423   2.570  0.1328 -0.1609 -0.1260
  905W        W 4649   2.491   7.364   8.978  0.0204  0.0850 -0.0023
  906W        W 4650   4.063   7.286  10.159  0.0075  0.0522  0.0066
  907W        W 4651   5.299   2.129   2.076  0.1341 -0.1254  0.2076
  908W        W 4652   0.910   0.562  12.008  0.1959 -0.3368  0.0788
  909W        W 4653   2.628   7.391   9.505 -0.1140  0.3710  0.0783
  910W        W 4654   5.713   6.615   1.065  0.2782  0.1579 -0.0509
  911W        W 4655   7.381   9.131  10.231  0.0507 -0.0573  0.0698
  912W        W 4656   2.211   7.202   9.643  0.1764  0.0342 -0.3259
  913W        W 4657   1.037   1.878   1.245 -0.0228  0.0568  0.3774
  914W        W 4658   3.465   0.270   1.920  0.1542 -0.0302  0.4484
  915W        W 4659   6.089   3.656   2.268  0.0969  0.3336 -0.0588
  916W        W 4660   5.383   8.146  11.654  0.0920 -0.2107 -0.0872
  917W        W 4661   9.946   1.808   1.088  0.1333  0.1314  0.1325
  918W        W 4662   8.040   3.729   1.790 -0.0524 -0.2903 -0.3044
  919W        W 4663   0.868   3.695  11.882  0.0646 -0.0365 -0.0051
  920W        W 4664   4.243   6.634   4.181 -0.1226  0.0657  0.2057
  921W        W 4665   5.051   2.500   9.823 -0.1634 -0.0700 -0.0803
  922W        W 4666   3.766   0.149   0.870  0.0420  0.1141  0.2304
  923W        W 4667   0.590   1.606   9.221 -0.1361 -0.3142 -0.0440
  924W        W 4668   7.385   8.747   1.617 -0.1279 -0.0748  0.1763
  925W        W 4669   9.469   8.751   2.356 -0.0816 -0.0143 -0.2024
  926W        W 4670   1.958   3.793  10.483  0.0243 -0.1318  0.0470
  927W        W 4671   5.721   1.138   0.914  0.1541  0.2503 -0.0930
  928W        W 4672   5.531   5.039   4.645  0.2020 -0.3211 -0.2829
  929W        W 4673   2.479   7.260   0.523  0.0347  0.0780 -0.0113
  930W        W 4674   1.067   8.629   2.916  0.5613  0.0635  0.1654
  931W        W 4675   1.596   8.662  10.292 -0.4479 -0.0094 -0.2510
  932W        W 4676   7.803   2.267   9.676 -0.3589  0.2780  0.1908
  933W        W 4677   5.727   4.012   1.467 -0.0220 -0.0042 -0.1112
  934W        W 4678   4.245   5.394   1.639 -0.0385  0.1131 -0.0155
  935W        W 4679   6.558   8.953  10.403  0.1098 -0.0937 -0.4008
  936W        W 4680   3.537   7.080   0.985 -0.1054  0.0206 -0.2421
  937W        W 4681   6.074   2.994  12.458 -0.1636 -0.2196  0.0382
  938W        W 4682   4.074   6.354   2.263  0.0814 -0.0638  0.2105
  939W        W 4683   2.871   2.916   1.208 -0.2532 -0.0104  0.2173
  940W        W 4684   5.145   1.679   0.258  0.3310 -0.4608  0.2976
  941W        W 4685   1.602   6.331   2.203  0.0186 -0.0454 -0.1540
  942W        W 4686   8.599   5.889   2.852  0.0069 -0.0402 -0.1241
  943W        W 4687   0.871   1.112   0.295  0.0990 -0.0143 -0.2103
  944W        W 4688   9.511   5.652  10.250 -0.2502  0.1428 -0.0522
  945W        W 4689   8.965   4.939   3.428  0.1377  0.0786 -0.1902
  946W        W 4690   9.509   4.460   2.652  0.1235 -0.1057 -0.0061
  947W        W 4691   7.855   3.204  10.182  0.1201  0.0290  0.3011
  948W        W 4692   2.007   2.326   1.904 -0.1035  0.0788  0.1588
  949W        W 4693   7.347   8.696   9.882 -0.2172  0.2744 -0.3064
  950W        W 4694   2.473   2.706   9.895 -0.1525  0.4914 -0.3035
  951W        W 4695   8.225   3.237   1.428  0.0814  0.2337 -0.0781
  952W        W 4696   1.412   6.988  10.388 -0.1996 -0.3269 -0.2453
  953W        W 4697   7.834   8.413   1.741 -0.2407  0.0548  0.1670
  954W        W 4698   4.027   1.682   2.859  0.1057  0.2257  0.2122
  955W        W 4699   9.771   3.670   2.595  0.0691 -0.0104 -0.0793
  956W        W 4700   7.757   8.058  12.679 -0.2356  0.1467  0.0772
  957W        W 4701   3.834   1.469  11.172 -0.0489 -0.2605  0.0800
  958W        W 4702   7.853   1.331   7.955 -0.1986 -0.1187  0.1224
  959W        W 4703   7.098   6.492   0.116  0.0322 -0.0026 -0.1739
  960W        W 4704   8.835   7.041  10.490 -0.0442  0.1789  0.1663
  961W        W 4705   6.268   3.906  12.333 -0.2024 -0.1586  0.3516
  962W        W 4706   4.609   3.616   8.930  0.3306 -0.1496  0.1177
  963W        W 4707   7.809   3.858   0.074  0.0217  0.1864  0.1389
  964W        W 4708   4.155   5.521  11.250 -0.0322  0.1208 -0.1030
  965W        W 4709   6.229   5.683   4.315 -0.4481  0.2174  0.1009
  966W        W 4710   6.432   0.396   1.387  0.2013 -0.1268  0.0239
  967W        W 4711   9.138   6.569   1.059  0.1049 -0.0128  0.1822
  968W        W 4712   3.634   0.708   9.276  0.0013 -0.0819  0.0638
  969W        W 4713   6.143   2.637   0.432  0.4019  0.0770 -0.0915
  970W        W 4714   4.452   1.417   9.287  0.0128  0.1371 -0.0193
  971W        W 4715   8.687   0.077   1.935 -0.2994  0.0039  0.2711
  972W        W 4716   1.047   4.566  10.808 -0.2831  0.1204  0.2171
  973W        W 4717   4.791   6.377   9.710  0.1246 -0.2399  0.2884
  974W        W 4718   7.746   7.318   8.411 -0.1723 -0.0758  0.0599
  975W        W 4719   8.400   5.102   2.861  0.3900 -0.1002  0.2959
  976W        W 4720   3.873   2.050   3.748  0.2904 -0.2038  0.0374
  977W        W 4721   0.472   2.708  12.574  0.0455  0.0140 -0.0851
  978W        W 4722   7.280   4.949   0.195  0.5448  0.0308 -0.2522
  979W        W 4723   3.450   8.638   2.073  0.1464  0.0107  0.0294
  980W        W 4724   9.128   4.184  12.744  0.1167 -0.3261 -0.1320
  981W        W 4725   3.063   0.238   8.861  0.0207 -0.0226 -0.1091
  982W        W 4726   4.933   3.921  10.320  0.2909  0.2141  0.0155
  983W        W 4727   6.981   5.892  12.191  0.2002 -0.0823 -0.2763
  984W        W 4728   2.103   8.560  10.922 -0.0303  0.4126 -0.2019
  985W        W 4729   5.778   5.748   2.502  0.4528 -0.1799  0.1402
  986W        W 4730   1.727   8.860  11.877  0.1312  0.3849  0.1488
  987W        W 4731   0.032   3.481  11.411 -0.0455  0.2765 -0.1761
  988W        W 4732   7.061   1.717   2.086  0.0311  0.1993 -0.1043
  989W        W 4733   9.018   4.886   4.406 -0.1231  0.0278  0.0020
  990W        W 4734   8.990   1.396  11.385  0.0889  0.0858  0.1036
  991W        W 4735   2.762   9.812   0.599  0.1254  0.3038  0.2598
  992W        W 4736   3.062   8.548  11.160  0.1276  0.1981  0.0977
  993W        W 4737   8.758   7.481   9.582 -0.0392  0.4235  0.0497
  994W        W 4738   2.215   9.370  10.543  0.0728  0.1527  0.1047
  995W        W 4739   7.518   8.471   3.528 -0.0487  0.0913 -0.0735
  996W        W 4740   6.093   7.765   4.930  0.1604  0.0161  0.0499
  997W        W 4741   9.185   0.119  11.639  0.3994 -0.0549  0.3073
  998W        W 4742   4.786   1.146   9.009  0.1650  0.1080 -0.3070
  999W        W 4743   4.582   8.838   9.908 -0.3987 -0.0641  0.0572
 1000W        W 4744   1.206   1.084   2.339  0.0355 -0.1059  0.0375
 1001W        W 4745   5.224   4.834  10.126  0.3718  0.3661  0.0885
 1002W        W 4746   2.587   1.461   3.995  0.1445 -0.4624  0.3166
 1003W        W 4747   0.861   0.440  12.483  0.0827  0.0673 -0.0116
 1004W        W 4748   1.350   6.719  11.639 -0.1634 -0.0648  0.1447
 1005W        W 4749   4.210   6.001  12.004  0.0380  0.0365 -0.2678
 1006W        W 4750   7.458   0.164  11.809 -0.3123 -0.0385  0.1990
 1007W        W 4751   7.360   1.724  10.905  0.0223 -0.0486 -0.0275
 1008W        W 4752   5.571   9.726  12.270  0.0158 -0.1583 -0.3851
 1009W        W 4753   8.331   8.706   1.066 -0.1351 -0.1551  0.0471
 1010W        W 4754   8.379   1.693   8.641 -0.0746  0.0601  0.0387
 1011W        W 4755   2.210   3.056  11.097  0.1176  0.0854 -0.0404
 1012W        W 4756   6.683   4.612  10.471 -0.1471 -0.1124  0.2883
 1013W        W 4757   9.364   8.657   3.725 -0.0679  0.0350 -0.0942
 1014W        W 4758   4.410   2.703   3.698  0.0859 -0.0766  0.2799
 1015W        W 4759   8.386   7.908   1.142 -0.0405  0.2100  0.1452
 1016W        W 4760   5.476   5.493   9.527  0.5067 -0.3739  0.2805
 1017W        W 4761   5.939   6.172   4.217 -0.2055 -0.3333  0.1988
 1018W        W 4762   2.018   8.413   2.770  0.1495 -0.0285 -0.0020
 1019W        W 4763   6.703   2.095   2.178 -0.2827  0.0191  0.1260
 1020W        W 4764   8.577   3.873   0.629 -0.3188 -0.2500 -0.1723
 1021W        W 4765   8.959   9.474   2.110  0.0384  0.0125 -0.1323
 1022W        W 4766   8.091   5.983  10.621 -0.1221  0.3223  0.0672
 1023W        W 4767   6.738   7.734  12.007  0.0445  0.0038 -0.3141
 1024W        W 4768   3.334   3.851   1.685  0.0655  0.1402  0.2414
 1025W        W 4769   7.984   9.306  10.861 -0.0055  0.0642  0.1180
 1026W        W 4770   7.071   9.419   0.112 -0.0153 -0.2174  0.0507
 1027W        W 4771   3.905   2.821  11.929  0.1859  0.2066 -0.3215
 1028W        W 4772   1.615   5.654   0.464  0.0473  0.1586 -0.3371
 1029W        W 4773   4.189   6.711  10.369  0.2167 -0.3907  0.0399
 1030W        W 4774   7.540   7.150  11.260  0.1086  0.2328 -0.0488
 1031W        W 4775   5.516   5.383  11.840  0.1019  0.1953 -0.1102
 1032W        W 4776   7.753   9.139   0.537  0.0125 -0.0655 -0.2885
 1033W        W 4777   2.718   3.431   1.169 -0.2481 -0.2416  0.0528
 1034W        W 4778   9.835   6.002  10.002  0.1064  0.0446  0.0917
 1035W        W 4779   5.252   2.067   1.065  0.2037  0.0797 -0.2740
 1036W        W 4780   7.586   6.637  11.123 -0.2321  0.0863  0.0785
 1037W        W 4781   7.144   0.007   2.778 -0.3219  0.0688  0.2685
 1038W        W 4782   1.807   1.334   4.707 -0.0522 -0.1564 -0.1564
 1039W        W 4783   4.395   5.984  11.509 -0.0155  0.1621  0.2137
 1040W        W 4784   1.682   2.451   3.875 -0.0910 -0.1222 -0.0680
 1041W        W 4785   3.903   1.512   3.668  0.1529  0.0176 -0.0210
 1042W        W 4786   0.487   6.332  11.059  0.4054  0.0998 -0.0228
 1043W        W 4787   3.366   3.348   2.738 -0.0569  0.4892 -0.1232
 1044W        W 4788   9.350   9.208  12.617 -0.3330  0.1364  0.1829
 1045W        W 4789   8.322   6.457  10.424 -0.0268  0.0382 -0.0062
 1046W        W 4790   5.112   7.992  12.711 -0.2146  0.0458 -0.3897
 1047W        W 4791   8.944   0.048   8.289 -0.4581  0.2221  0.2005
 1048W        W 4792   9.772   4.284  10.619  0.2899  0.1164  0.1977
 1049W        W 4793   5.654   8.508  10.393 -0.0275 -0.1758 -0.0491
 1050W        W 4794   0.282   1.938   8.960  0.1119  0.0959 -0.0768
 1051W        W 4795   7.006   7.228   2.158  0.0534 -0.0359  0.0568
 1052W        W 4796   2.916   5.948  11.146  0.3790 -0.0281 -0.1647
 1053W        W 4797   0.108   0.107  10.826  0.0696  0.0627  0.0045
 1054W        W 4798   7.906   3.320   2.868  0.1422 -0.0534  0.2338
 1055W        W 4799   1.713   0.496  10.204 -0.2498  0.2056  0.1953
 1056W        W 4800   4.170   9.103  10.052  0.2012 -0.2057  0.3049
 1057W        W 4801   3.578   2.397   3.493 -0.4103  0.2304  0.0181
 1058W        W 4802   3.447   9.154  10.546 -0.1452 -0.1690 -0.2393
 1059W        W 4803   5.688   8.064   8.344 -0.0856 -0.0479  0.2801
 1060W        W 4804   2.430   1.081   2.268  0.0594 -0.4216 -0.3066
 1061W        W 4805   3.690   6.950  10.414  0.2227 -0.0027  0.0086
 1062W        W 4806   3.758   2.468   9.222 -0.1750 -0.1757  0.1963
 1063W        W 4807   9.394   0.081   9.523  0.2060  0.2095 -0.2072
 1064W        W 4808   7.007   0.208   1.342  0.0103  0.1027 -0.0499
 1065W        W 4809   4.790   6.518   2.201  0.0628  0.0300 -0.3072
 1066W        W 4810   7.564   8.336   4.037  0.1239  0.1099  0.1902
 1067W        W 4811   8.279   5.869  10.108  0.1335 -0.2050  0.1680
 1068W        W 4812   2.374   4.746   3.506 -0.0630  0.0855  0.1469
 1069W        W 4813   7.264   6.330   9.169  0.1207  0.0060 -0.2688
 1070W        W 4814   2.843   9.149   3.299 -0.3885 -0.2517  0.1753
 1071W        W 4815   5.653   3.070   1.000 -0.2044 -0.3738 -0.2558
 1072W        W 4816   0.748   1.777   2.406 -0.3233 -0.0211 -0.1907
 1073W        W 4817   9.549   2.458  10.174 -0.2482 -0.1269  0.4501
 1074W        W 4818   0.678   2.102   1.978 -0.0770  0.0384 -0.0775
 1075W        W 4819   8.859   7.245   2.478 -0.1709  0.0875 -0.1512
 1076W        W 4820   5.904   6.826   0.643 -0.0032 -0.0683  0.1371
 1077W        W 4821   8.167   9.787  10.016 -0.2904  0.0928  0.0864
 1078W        W 4822   2.219   6.412  12.073  0.2452 -0.1267  0.0908
 1079W        W 4823   3.749   6.784   2.170 -0.0007  0.1701 -0.0039
 1080W        W 4824   3.101   9.911   2.872 -0.2167 -0.1946 -0.0960
 1081W        W 4825   5.735   9.699  10.784 -0.0007 -0.1075 -0.4329
 1082W        W 4826   2.307   7.158   3.919 -0.0923  0.1049  0.1082
 1083W        W 4827   7.926   1.236   4.923  0.0257  0.3222  0.0959
 1084W        W 4828   1.380   1.207  12.661  0.2248 -0.2144 -0.1946
 1085W        W 4829   6.346   8.043  11.553  0.0861  0.0621  0.0083
 1086W        W 4830   8.139   4.982  11.440 -0.0298 -0.2693 -0.2313
 1087W        W 4831   4.208   7.903   0.641 -0.1254 -0.2324 -0.0464
 1088W        W 4832   3.514   0.854  10.491 -0.5079 -0.0135  0.0176
 1089W        W 4833   0.241   5.149   9.957  0.1322  0.1201 -0.1717
 1090W        W 4834   9.683   5.972   2.364 -0.0199  0.1912  0.0239
 1091W        W 4835   2.035   9.955   1.024  0.0016 -0.0103  0.2259
 1092W        W 4836   2.075   1.368  10.714  0.1184 -0.0761  0.2771
 1093W        W 4837   0.155   8.161   7.963  0.1046 -0.0669  0.1184
 1094W        W 4838   8.020   7.859   1.571 -0.1368  0.2311 -0.3409
 1095W        W 4839   9.560   8.784   2.856  0.1462  0.0086  0.0224
 1096W        W 4840   2.164   1.547  11.256  0.0053 -0.0396 -0.1376
 1097W        W 4841   0.571   8.070   8.865 -0.0078  0.1211 -0.1298
 1098W        W 4842   5.703   9.073  10.875 -0.2180  0.0736  0.1887
 1099W        W 4843   7.399   4.367   8.571  0.3367 -0.1629  0.3112
 1100W        W 4844   3.347   8.393  12.496 -0.0029 -0.0686 -0.1174
 1101W        W 4845   8.768   6.474   3.744 -0.5482  0.1630 -0.3118
 1102W        W 4846   6.697   7.715   1.907  0.1255  0.2485 -0.0427
 1103W        W 4847   2.630   5.660   9.857 -0.0259  0.0081  0.0119
 1104W        W 4848   7.495   6.534  12.059  0.0098  0.2725  0.2828
 1105W        W 4849   1.548   0.816  10.782  0.0044 -0.0580  0.0776
 1106W        W 4850   6.113   3.968  11.809 -0.2366 -0.2097  0.0355
 1107W        W 4851   0.722   8.827   2.632 -0.3945 -0.1862 -0.1671
 1108W        W 4852   0.440   0.565  10.796  0.0896 -0.4010 -0.0850
 1109W        W 4853   9.325   3.575   8.783  0.0426 -0.1122 -0.2265
 1110W        W 4854   3.317   6.618   4.491  0.0695  0.0538  0.1550
 1111W        W 4855   7.250   3.921   1.641  0.1164 -0.0497  0.0139
 1112W        W 4856   8.375   2.727   1.837 -0.0904 -0.1269  0.0787
 1113W        W 4857   1.395   6.372   1.743 -0.2587 -0.3017 -0.0223
 1114W        W 4858   3.118   6.331   0.567 -0.6269 -0.0984 -0.0836
 1115W        W 4859   5.038   9.583   9.729 -0.0398 -0.1526 -0.1728
 1116W        W 4860   4.222   2.379   9.374  0.0602  0.0563 -0.1006
 1117W        W 4861   1.843   5.032   3.531  0.2063 -0.0356  0.0056
 1118W        W 4862   1.877   6.355   1.446  0.0826  0.1837 -0.0847
 1119W        W 4863   5.047   6.426  12.023  0.2167  0.2612 -0.0994
 1120W        W 4864   3.091   7.298   1.147 -0.1837  0.1609  0.0399
 1121W        W 4865   4.430   8.353   9.751 -0.0919  0.2586 -0.1916
 1122W        W 4866   7.107   0.472   1.816  0.0879  0.0820  0.1284
 1123W        W 4867   2.403   6.552   0.818  0.2494  0.0980  0.2287
 1124W        W 4868   4.226   0.979   4.791 -0.0533 -0.1017  0.2178
 1125W        W 4869   1.778   1.020   0.081 -0.1106 -0.1980  0.3268
 1126W        W 4870   5.594   0.613  11.001 -0.1076  0.4091  0.0210
 1127W        W 4871   1.720   3.362  11.377  0.0966  0.4285 -0.1030
 1128W        W 4872   2.061   5.935  11.997  0.2161  0.2509  0.1285
 1129W        W 4873   5.731   8.478  11.466 -0.0747  0.0237  0.0408
 1130W        W 4874   5.129   8.281   1.832 -0.1084 -0.1826 -0.3340
 1131W        W 4875   4.125   3.797   9.162  0.1350 -0.0279 -0.0857
 1132W        W 4876   5.376   1.949  11.176  0.2646 -0.0234 -0.1780
 1133W        W 4877   3.426   8.820   0.921  0.1603 -0.0287  0.1550
 1134W        W 4878   0.012   1.955  11.838 -0.1117  0.0292 -0.2783
 1135W        W 4879   6.858   5.678   0.758  0.2545  0.0983 -0.0172
 1136W        W 4880   1.705   6.771   9.477  0.3288 -0.2031 -0.1425
 1137W        W 4881   5.335   2.995   1.476  0.2697 -0.1595  0.1174
 1138W        W 4882   0.061   7.321   3.379 -0.1772  0.3835 -0.0304
 1139W        W 4883   8.147   2.942   3.409 -0.0282  0.3904  0.0073
 1140W        W 4884   1.781   1.598  10.317  0.1836  0.0252  0.0968
 1141W        W 4885   7.420   1.133  11.728 -0.2758 -0.0946  0.1969
 1142W        W 4886   9.291   8.473  12.572  0.0681  0.1556 -0.2719
 1143W        W 4887   8.370   0.499   3.491 -0.0936  0.0879  0.0659
 1144W        W 4888   4.621   4.817   3.957  0.4970  0.0889  0.1954
 1145W        W 4889   4.261   7.590  10.607 -0.0874 -0.2469  0.3746
 1146W        W 4890   8.011   1.298  10.195  0.0130  0.0913 -0.1105
 1147W        W 4891   4.770   7.295  11.825  0.0654 -0.0623 -0.0388
 1148W        W 4892   1.079   6.237   2.246  0.0175 -0.1634  0.0976
 1149W        W 4893   4.691   3.786  12.599  0.0221 -0.1504  0.3250
 1150W        W 4894   5.266   5.508   2.250  0.2028 -0.2199  0.0474
 1151W        W 4895   1.135   0.742   0.070  0.1750  0.0304 -0.0831
 1152W        W 4896   4.316   9.821  12.752  0.0024  0.0683 -0.2267
 1153W        W 4897   4.473   4.721   4.802 -0.0972 -0.3049  0.1618
 1154W        W 4898   6.629   0.465  10.252 -0.0528 -0.2231 -0.3471
 1155W        W 4899   6.146   8.944   1.061  0.2304 -0.0783 -0.2375
 1156W        W 4900   4.324   1.992  12.583 -0.0914  0.0169  0.1688
 1157W        W 4901   8.554   6.956   4.607 -0.1507 -0.3667 -0.1291
 1158W        W 4902   2.533   3.546  12.109  0.0487 -0.2001 -0.0818
 1159W        W 4903   6.623   0.604   4.577  0.1574  0.3036  0.1270
 1160W        W 4904   6.137   8.317  11.203 -0.1337  0.2733 -0.0699
 1161W        W 4905   7.611   1.177   3.456 -0.2982 -0.2504  0.0266
 1162W        W 4906   2.190   0.341  10.323  0.0986 -0.3377  0.1525
 1163W        W 4907   2.327   9.082   3.545 -0.1203 -0.1506 -0.0703
 1164W        W 4908   7.004   3.562   0.579  0.2722 -0.2131 -0.0464
 1165W        W 4909   9.725   6.317   9.157 -0.1535 -0.1197 -0.0184
 1166W        W 4910   8.773   4.893   9.987 -0.1666 -0.2687  0.0410
 1167W        W 4911   3.823   8.528   8.199 -0.2132 -0.2056 -0.0774
 1168W        W 4912   0.206   4.659  10.797  0.2486  0.2276 -0.2440
 1169W        W 4913   6.907   9.635   2.984  0.1416  0.4219  0.0894
 1170W        W 4914   5.122   3.708   2.442  0.1206  0.1682 -0.2385
 1171W        W 4915   3.916   2.083   2.601  0.2720 -0.1404  0.3165
 1172W        W 4916   5.669   5.551   1.245 -0.0004  0.1649  0.1820
 1173W        W 4917   0.370   3.000   1.513 -0.2541  0.1267 -0.2606
 1174W        W 4918   3.815   8.623   8.943 -0.3876  0.1803  0.2344
 1175W        W 4919   8.990   2.223   3.706 -0.1948  0.1766 -0.2586
 1176W        W 4920   8.212   3.329  10.599  0.1405 -0.4647  0.0577
 1177W        W 4921   7.084   5.926   0.353  0.1648  0.0797 -0.0792
 1178W        W 4922   0.349   5.459   1.968 -0.0422 -0.1637 -0.1883
 1179W        W 4923   8.471   2.455   2.681  0.3673  0.3788 -0.2060
 1180W        W 4924   1.121   7.902   2.044  0.1108 -0.0828  0.2688
 1181W        W 4925   2.850   9.805   3.373 -0.1703 -0.2162  0.1712
 1182W        W 4926   1.802   5.028  10.187  0.0675 -0.0625 -0.4646
 1183W        W 4927   6.276   5.869  12.395  0.1287  0.0397 -0.2323
 1184W        W 4928   2.919   7.683   0.502 -0.2676 -0.1399 -0.0553
 1185W        W 4929   3.702   1.542  10.662 -0.2899 -0.0885 -0.1554
 1186W        W 4930   1.334   3.187  11.678 -0.1128 -0.0914 -0.0058
 1187W        W 4931   0.956   2.349   3.442  0.0537  0.0036 -0.0697
 1188W        W 4932   0.288   6.455   0.553  0.1428 -0.0574 -0.0090
 1189W        W 4933   8.522   2.714  12.577  0.2278 -0.1313  0.3073
 1190W        W 4934   2.517   5.630  12.014  0.0193  0.1568 -0.0599
 1191W        W 4935   4.650   5.986   1.500  0.0564 -0.1070 -0.2606
 1192W        W 4936   2.978   6.808   2.554 -0.2414  0.0014 -0.1870
 1193W        W 4937   3.802   4.027  11.155  0.2575  0.0324 -0.2470
 1194W        W 4938   7.663   8.581  10.255  0.0142 -0.1583  0.0709
 1195W        W 4939   6.137   0.948  11.688  0.0620 -0.0911 -0.2303
 1196W        W 4940   9.097   6.153   2.976  0.4773 -0.0433 -0.0475
 1197W        W 4941   3.300   4.177   1.321  0.0898  0.1444  0.1004
 1198W        W 4942   5.781   7.728  10.811  0.1110 -0.0934 -0.2324
 1199W        W 4943   9.147   0.919  11.145  0.0977  0.0292  0.1936
 1200W        W 4944   2.445   2.655  10.872  0.1202  0.2113  0.2011
 1201W        W 4945   8.215   0.218   1.084 -0.0076  0.3623  0.1051
 1202W        W 4946   7.558   8.387   2.659 -0.0137 -0.2928 -0.2533
 1203W        W 4947   6.987   7.500   3.959  0.1071  0.0944 -0.2919
 1204W        W 4948   5.708   7.660   2.633  0.0553  0.4318  0.3877
 1205W        W 4949   8.277   6.106   0.497  0.0940 -0.3047 -0.1105
 1206W        W 4950   8.782   1.896   0.458 -0.1678  0.0101 -0.0510
 1207W        W 4951   0.998   3.049   0.738  0.0692 -0.2784 -0.5278
 1208W        W 4952   1.862   0.569   9.335 -0.1131  0.0899 -0.3075
 1209W        W 4953   1.301   2.731   3.448 -0.0079 -0.1427  0.0167
 1210W        W 4954   2.408   8.219   2.437  0.0274 -0.0663 -0.0481
 1211W        W 4955   8.169   2.536   9.099 -0.3072 -0.1151  0.1965
 1212W        W 4956   6.090   8.489  12.205 -0.2678  0.0792  0.3311
 1213W        W 4957   6.930   5.157   2.057  0.1743  0.0629  0.0631
 1214W        W 4958   8.513   8.554   2.680 -0.0428 -0.2920  0.0885
 1215W        W 4959   6.550   2.659  11.032  0.0600  0.1296  0.0568
 1216W        W 4960   9.911   5.938  11.582  0.3736 -0.0110  0.0156
 1217W        W 4961   7.800   4.232  11.910  0.1280 -0.1036 -0.1072
 1218W        W 4962   7.796   0.445   1.099  0.0465 -0.3177 -0.0320
 1219W        W 4963   4.040   2.887   9.386 -0.2603  0.2247 -0.0409
 1220W        W 4964   2.900   4.829   2.632  0.0043  0.1224  0.2245
 1221W        W 4965   5.860   5.021  12.028 -0.2101 -0.2511 -0.2198
 1222W        W 4966   2.566   0.123  12.203 -0.0890 -0.0400 -0.0819
 1223W        W 4967   8.820   4.244   2.477  0.3215 -0.1483  0.1430
 1224W        W 4968   7.110   3.217  12.528 -0.0299 -0.5434  0.1427
 1225W        W 4969   8.132   7.679   9.004 -0.4275 -0.0551  0.0521
 1226W        W 4970   9.360   3.888   9.863 -0.0304 -0.0943 -0.1335
 1227W        W 4971   1.826   5.221  10.702 -0.1541  0.2133 -0.0635
 1228W        W 4972   9.168   1.836   2.344  0.2011  0.0312 -0.2797
 1229W        W 4973   4.808   5.626   2.501 -0.0380  0.0355 -0.1052
 1230W        W 4974   1.352   1.127   9.361  0.2199 -0.0012  0.0425
 1231W        W 4975   4.688   7.953  12.536 -0.0455  0.1140  0.0032
 1232W        W 4976   8.253   6.320   9.083  0.0422 -0.1571 -0.1288
 1233W        W 4977   9.702   4.786  10.588 -0.2205  0.2608 -0.0168
 1234W        W 4978   0.667   6.674   3.646 -0.5325 -0.0186  0.0812
 1235W        W 4979   7.821   9.759   2.356 -0.0617 -0.1380 -0.0644
 1236W        W 4980   4.984   7.267   2.784  0.2910  0.1613  0.1069
 1237W        W 4981   3.019   9.245  10.202 -0.1736  0.1238  0.1634
 1238W        W 4982   1.916   5.161  12.402 -0.0925 -0.2482 -0.1039
 1239W        W 4983   9.154   5.594   3.721 -0.0308 -0.0841 -0.2232
 1240W        W 4984   3.979   0.618  10.636  0.3498 -0.0779 -0.1137
 1241W        W 4985   6.625   5.268  11.862 -0.1130  0.1636  0.0951
 1242W        W 4986   9.343   3.612   0.637  0.1253 -0.0507  0.4682
 1243W        W 4987   5.744   9.315  10.408  0.0914  0.0688 -0.1090
 1244W        W 4988   2.352   3.169   8.744  0.0000 -0.0825  0.0568
 1245W        W 4989   4.094   5.839   3.071  0.2711 -0.1541  0.1773
 1246W        W 4990   6.878   1.326   1.292  0.0764  0.2406 -0.2040
 1247W        W 4991   5.782   2.709  10.598 -0.0748 -0.0542 -0.2395
 1248W        W 4992   0.689   5.729   9.503 -0.0022  0.2140  0.2805
 1249W        W 4993   3.041   1.693  11.805  0.1171  0.2226  0.2544
 1250W        W 4994   5.465   6.035   4.468 -0.0441 -0.2410 -0.0147
 1251W        W 4995   3.954   6.035   0.030 -0.1678 -0.0661 -0.0075
 1252W        W 4996   5.000   0.226   5.042 -0.0338  0.1309  0.1738
 1253W        W 4997   9.904   5.220   0.226 -0.1966  0.2461 -0.0677
 1254W        W 4998   8.616   9.485   5.207 -0.2142 -0.0242  0.2329
 1255W        W 4999   7.076   1.403  12.282  0.0153 -0.0774  0.3507
 1256W        W 5000   9.166   3.980  11.485  0.0635 -0.1029  0.5139
 1257W        W 5001   8.236   4.423  10.446  0.0175 -0.1055  0.0399
 1258W        W 5002   3.563   9.323  12.550 -0.1196 -0.1091 -0.4173
 1259W        W 5003   4.571   4.895  10.377 -0.0260  0.1122  0.0031
 1260W        W 5004   7.883   2.355   3.554 -0.1954 -0.0451  0.1436
 1261W        W 5005   2.610   0.767   0.645  0.1151  0.1435 -0.2504
 1262W        W 5006   4.451   9.246   9.147  0.1563  0.0150 -0.1299
 1263W        W 5007   7.629   2.794   3.502 -0.0663 -0.0119 -0.3888
 1264W        W 5008   3.378   3.673   9.641 -0.1932 -0.0416 -0.0016
 1265W        W 5009   7.666   5.350  11.409  0.0808  0.2019 -0.0846
 1266W        W 5010   3.898   0.644   3.092 -0.1555  0.1374 -0.1857
 1267W        W 5011   4.330   0.822   3.062  0.0700 -0.1297  0.0971
 1268W        W 5012   6.663   3.392  12.276  0.1806  0.0364  0.0800
 1269W        W 5013   0.767   0.105   8.748 -0.1586  0.1061 -0.3253
 1270W        W 5014   7.192   0.803  10.183  0.0209  0.2821  0.1345
 1271W        W 5015   1.266   2.995   1.898 -0.1438 -0.1617  0.1722
 1272W        W 5016   4.238   2.067  12.038 -0.0821 -0.2127 -0.0643
 1273W        W 5017   8.258   1.856  10.362 -0.1926  0.1700 -0.1654
 1274W        W 5018   8.592   9.328   0.989 -0.2048  0.4030 -0.1914
 1275W        W 5019   3.494   1.798  12.580  0.1610 -0.0828  0.2023
 1276W        W 5020   7.986   3.096  11.167  0.1241 -0.0755  0.0447
 1277W        W 5021   0.702   3.849   1.689  0.2230 -0.2121 -0.0350
 1278W        W 5022   6.587   8.484  12.139  0.2264  0.2862 -0.4769
 1279W        W 5023   7.028   6.821  12.037  0.1542 -0.2070  0.2146
 1280W        W 5024   5.069   5.488  12.576 -0.2266  0.1697 -0.0163
 1281W        W 5025   1.472   2.461   9.776  0.2990 -0.1143 -0.3377
 1282W        W 5026   5.846   4.340   1.916  0.1265 -0.0578  0.0373
 1283W        W 5027   7.343   1.652   1.599  0.0597 -0.1735  0.0637
 1284W        W 5028   7.433   0.046  10.636 -0.2073 -0.0886  0.0708
 1285W        W 5029   1.668   4.634   0.575 -0.0229 -0.1940 -0.0084
 1286W        W 5030   7.879   0.293   2.396 -0.0235 -0.2217 -0.0545
 1287W        W 5031   9.334   5.813  11.522  0.2318 -0.0896  0.1852
 1288W        W 5032   3.174   6.192   2.680  0.1299 -0.3059  0.3055
 1289W        W 5033   6.733   4.280   3.928  0.1465 -0.0898 -0.1998
 1290W        W 5034   4.770   3.481   0.193  0.1929 -0.1370 -0.3659
 1291W        W 5035   3.090   7.430  12.432  0.3055  0.1489  0.0866
 1292W        W 5036   2.985   4.468  11.528 -0.3955 -0.3095  0.2716
 1293W        W 5037   7.145   3.850   9.998 -0.0094 -0.1103  0.0463
 1294W        W 5038   1.213   2.902   0.083  0.0695  0.0596 -0.0011
 1295W        W 5039   8.400   1.857   9.866 -0.3012  0.1532  0.2191
 1296W        W 5040   9.180   8.170   4.820 -0.0167 -0.1195  0.0147
 1297W        W 5041   9.531   2.649   0.928 -0.0530 -0.0528  0.2329
 1298W        W 5042   9.486   6.686  11.753 -0.1234  0.3448 -0.1275
 1299W        W 5043   4.909   7.578  12.774 -0.3998  0.2335 -0.0346
 1300W        W 5044   6.606   5.325   9.250  0.1895 -0.1275  0.2615
 1301W        W 5045   1.649   8.435  10.717  0.0072 -0.2471 -0.0088
 1302W        W 5046   4.615   7.725   0.812 -0.2406 -0.1844 -0.0097
 1303W        W 5047   6.653   5.561  12.273  0.1968  0.0426  0.0013
 1304W        W 5048   0.667   7.526  10.657 -0.0399 -0.2453 -0.0261
 1305W        W 5049   4.841   9.870   4.516 -0.1521  0.1834  0.2652
 1306W        W 5050   8.487   8.398   0.498  0.0278  0.0755  0.3865
 1307W        W 5051   1.072   3.804   0.537  0.1716 -0.0310 -0.0080
 1308W        W 5052   3.368   0.783   4.544  0.0395 -0.3426  0.0019
 1309W        W 5053   4.976   9.082   4.035 -0.0837 -0.1302 -0.1173
 1310W        W 5054   3.789   6.539   5.937  0.1855  0.0530  0.2081
 1311W        W 5055   4.707   8.887   8.858 -0.1800  0.1671  0.0832
 1312W        W 5056   9.643   6.586   0.994  0.3105 -0.0592 -0.1220
 1313W        W 5057   9.897   6.594   9.782 -0.2435  0.1308  0.0239
 1314W        W 5058   5.364   0.542  12.148  0.0987  0.0447  0.3070
 1315W        W 5059   8.274   7.889  12.501  0.3324 -0.0415 -0.0519
 1316W        W 5060   1.192   9.507   1.048  0.2063  0.1843  0.1084
 1317W        W 5061   7.872   9.493   2.802 -0.0655  0.0194 -0.3513
 1318W        W 5062   9.138   8.802   9.529  0.1785 -0.1532  0.0058
 1319W        W 5063   1.938   7.367   0.388  0.5016 -0.1209 -0.0506
 1320W        W 5064   4.706   2.006  10.666  0.3403  0.3246  0.0722
 1321W        W 5065   6.480   0.656   3.187 -0.1693  0.3281  0.1978
 1322W        W 5066   6.990   1.086   0.857  0.0577 -0.0821 -0.1081
 1323W        W 5067   4.485   9.524   2.583  0.0338  0.0484 -0.2178
 1324W        W 5068   4.598   6.508   9.254 -0.0793 -0.0369  0.3300
 1325W        W 5069   1.742   9.363   1.754  0.4279 -0.2503  0.0919
 1326W        W 5070   6.843   8.582   1.536 -0.0603  0.1203  0.4518
 1327W        W 5071   0.101   2.053   3.614 -0.0467 -0.0846 -0.0865
 1328W        W 5072   7.894   6.159   2.902 -0.0845  0.1937 -0.1721
 1329W        W 5073   6.536   2.923   2.706 -0.1175  0.0825  0.2346
 1330W        W 5074   9.699   4.355  11.531 -0.0782  0.1027  0.1411
 1331W        W 5075   0.365   0.090   3.125 -0.0174  0.0345 -0.0216
 1332W        W 5076   6.298   8.448   0.835 -0.0294 -0.2513 -0.3075
 1333W        W 5077   7.312   5.525   3.264  0.0128 -0.0851  0.1728
 1334W        W 5078   2.130   2.901  10.247  0.1698  0.0938 -0.0214
 1335W        W 5079   7.127   4.396  10.663 -0.1420  0.0988  0.0316
 1336W        W 5080   4.846   8.196   9.234  0.3121 -0.0870 -0.6826
 1337W        W 5081   5.411   1.101  10.977  0.1388 -0.0039 -0.1929
 1338W        W 5082   1.278   2.720  11.513  0.2361 -0.1830  0.1428
 1339W        W 5083   0.319   3.225   9.278  0.2277  0.0132  0.0536
 1340W        W 5084   6.860   8.101  10.347 -0.0813  0.0067  0.1225
 1341W        W 5085   6.119   4.595  11.768 -0.1317  0.1807  0.0511
 1342W        W 5086   3.469   6.067   0.865 -0.2406  0.1170  0.2263
 1343W        W 5087   0.318   7.575  11.005 -0.0416 -0.3530  0.0249
 1344W        W 5088   3.294   0.441   1.071  0.0223  0.2637  0.1484
 1345W        W 5089   4.766   3.851   1.824 -0.1230 -0.0893  0.0755
 1346W        W 5090   1.836   2.515  10.244  0.0420  0.1427  0.1216
 1347W        W 5091   7.657   4.871  11.309  0.1462  0.2870  0.1263
 1348W        W 5092   4.080   3.917   1.545  0.0055  0.3874 -0.1771
 1349W        W 5093   9.495   1.375  11.266 -0.1434  0.0071 -0.2437
 1350W        W 5094   8.538   1.465  10.105  0.2317 -0.3862 -0.1322
 1351W        W 5095   5.639   7.342   9.964  0.2000 -0.2849 -0.0845
 1352W        W 5096   4.424   0.328  10.373  0.1510 -0.0957  0.1233
 1353W        W 5097   6.251   7.217  11.335  0.4357 -0.0518 -0.0826
 1354W        W 5098   8.711   0.821   3.362 -0.0802 -0.1211 -0.3583
 1355W        W 5099   5.866   4.393   3.638  0.3359 -0.1718  0.1320
 1356W        W 5100   2.066   2.310   9.835 -0.0690 -0.4028  0.2104
 1357W        W 5101   0.491   0.157  10.511 -0.0348 -0.2458 -0.0126
 1358W        W 5102   6.231   7.245   1.400  0.0209 -0.0869  0.3999
 1359W        W 5103   5.215   5.629  11.102 -0.0306  0.0419 -0.0621
 1360W        W 5104   7.215   5.786   9.201 -0.0401 -0.0293 -0.3268
 1361W        W 5105   9.449   3.587   1.140 -0.5933 -0.2460 -0.0316
 1362W        W 5106   4.043   6.631   4.638 -0.2545  0.3940  0.0372
 1363W        W 5107   0.788   8.655  11.365  0.0917 -0.1792 -0.2624
 1364W        W 5108   0.579   1.324  10.022 -0.1254  0.0696 -0.3348
 1365W        W 5109   7.421   8.503   9.448 -0.0930  0.0713  0.0576
 1366W        W 5110   9.669   0.417   9.252  0.0137 -0.0451 -0.1546
 1367W        W 5111   6.762   3.737   3.519 -0.1982 -0.1441  0.2380
 1368W        W 5112   4.371   9.811   3.233  0.0686 -0.3881 -0.0518
 1369W        W 5113   1.780   3.778   1.077  0.0411 -0.1872 -0.1836
 1370W        W 5114   8.658   9.075  10.232  0.2754 -0.0460  0.1282
 1371W        W 5115   3.936   9.805  10.374  0.0136  0.4331 -0.1761
 1372W        W 5116   8.940   9.687   9.571  0.0462 -0.0211  0.3288
 1373W        W 5117   1.588   3.998   0.497  0.0998  0.3980  0.2142
 1374W        W 5118   5.052   0.269   2.751  0.2721  0.1750 -0.0294
 1375W        W 5119   3.654   0.031  10.059  0.3513  0.0434 -0.0117
 1376W        W 5120   8.314   5.981   2.450  0.0758  0.0349 -0.0726
 1377W        W 5121   5.751   8.977  11.828 -0.0744 -0.1307  0.0667
 1378W        W 5122   7.937   2.044  10.755  0.1016  0.0039  0.2045
 1379W        W 5123   9.074   0.994   9.625 -0.0768  0.0544  0.0719
 1380W        W 5124   6.307   6.459  12.501 -0.1730 -0.1481 -0.2203
 1381W        W 5125   9.549   8.445   0.983 -0.1314  0.2871  0.2413
 1382W        W 5126   8.012   6.558  12.169  0.0572  0.0393  0.1254
 1383W        W 5127   8.280   1.459  11.134  0.0097 -0.1207  0.0261
 1384W        W 5128   5.350   0.737  10.220  0.1082 -0.0348  0.1314
 1385W        W 5129   3.425   2.021  12.076  0.1718 -0.2764  0.0880
 1386W        W 5130   2.762   1.388   0.482  0.1023  0.1699 -0.0353
 1387W        W 5131   8.646   7.481  11.363 -0.0339  0.2103 -0.2210
 1388W        W 5132   3.616   6.126   1.431  0.0178 -0.3485  0.0120
 1389W        W 5133   3.895   4.620  11.290  0.2108  0.2035  0.1210
 1390W        W 5134   1.244   9.114  10.240 -0.2503  0.0325 -0.0194
 1391W        W 5135   8.108   3.257   1.941  0.2702  0.2524  0.0496
 1392W        W 5136   8.639   9.565   9.160 -0.0235  0.1535  0.0555
 1393W        W 5137   4.804   6.436   2.934 -0.1090 -0.1481 -0.3554
 1394W        W 5138   2.505   7.974  10.647 -0.1250 -0.1672 -0.1274
 1395W        W 5139   8.614   2.823   4.218  0.1665 -0.2082 -0.2859
 1396W        W 5140   7.665   2.504   8.857  0.1232 -0.1456  0.2045
 1397W        W 5141   5.081   0.405   4.536  0.1389 -0.1247  0.1414
 1398W        W 5142   5.943   8.424  12.675 -0.3420 -0.0356  0.1153
 1399W        W 5143   8.667   9.566   9.992 -0.3540  0.0750 -0.0255
 1400W        W 5144   9.066   7.224  11.576  0.0045 -0.2188 -0.1983
 1401W        W 5145   6.597   3.521   9.005 -0.0166 -0.1166 -0.2752
 1402W        W 5146   9.280   4.429  10.475 -0.0641 -0.0539 -0.0476
 1403W        W 5147   1.042   6.497   3.375  0.0182 -0.2376 -0.3613
 1404W        W 5148   2.899   5.989   2.278 -0.1090  0.1611 -0.0875
 1405W        W 5149   3.065   7.354  11.887  0.0747  0.2032  0.5257
 1406W        W 5150   3.836   0.355   0.303  0.0071  0.1412 -0.0443
 1407W        W 5151   7.044   1.897   9.561 -0.2229  0.1747 -0.2592
 1408W        W 5152   5.825   4.498  11.315 -0.1497  0.0541  0.2247
 1409W        W 5153   6.602   7.205   0.054  0.1094  0.0328 -0.0499
 1410W        W 5154   6.435   0.688   9.517  0.4149 -0.5071  0.0038
 1411W        W 5155   2.474   5.740   3.513 -0.2073 -0.0363 -0.0324
 1412W        W 5156   1.301   1.509   0.339  0.1800 -0.3776  0.1154
 1413W        W 5157   0.232   1.824  12.324  0.0486 -0.1814  0.0456
 1414W        W 5158   4.793   6.276   3.895  0.1064 -0.2172 -0.2005
 1415W        W 5159   1.654   4.147   3.618  0.0434 -0.2412 -0.0436
 1416W        W 5160   1.573   7.749   1.080  0.0584 -0.2125  0.0572
 1417W        W 5161   1.439   8.540   3.738 -0.0703  0.2309 -0.2422
 1418W        W 5162   8.071   4.254  12.745 -0.1929 -0.1834  0.2202
 1419W        W 5163   3.061   3.726   0.637  0.1626  0.0543 -0.1932
 1420W        W 5164   5.257   4.252  10.584 -0.3975 -0.0175  0.1215
 1421W        W 5165   8.154   6.959   1.543  0.1359 -0.1786  0.1840
 1422W        W 5166   7.649   9.507   0.847  0.6292  0.1464 -0.0729
 1423W        W 5167   4.864   2.010   9.709 -0.2983 -0.0001 -0.1969
 1424W        W 5168   6.245   3.095   3.177 -0.1095  0.1962 -0.0494
 1425W        W 5169   6.654   9.456  11.500  0.0222 -0.0324 -0.2073
 1426W        W 5170   4.688   0.401   2.401 -0.0967  0.0745  0.1606
 1427W        W 5171   8.901   6.242  12.457 -0.1674 -0.1844 -0.2914
 1428W        W 5172   3.590   7.659  12.006 -0.0206  0.0641 -0.1260
 1429W        W 5173   2.549   0.392   9.953 -0.1882  0.0490 -0.3137
 1430W        W 5174   1.315   2.288   1.816 -0.0341 -0.0926  0.3788
 1431W        W 5175   3.820   2.406   9.690 -0.1221 -0.2454  0.1913
 1432W        W 5176   3.417   1.320  12.520  0.0031  0.0776 -0.0034
 1433W        W 5177   7.861   9.618   3.255  0.0845  0.4206 -0.0378
 1434W        W 5178   0.167   5.247   1.384  0.0188  0.0858  0.1932
 1435W        W 5179   1.594   4.757  12.459 -0.1828 -0.0052 -0.1462
 1436W        W 5180   9.375   0.452  11.070 -0.2622  0.4076  0.2292
 1437W        W 5181   5.232   3.321   1.154 -0.0877 -0.0713 -0.0912
 1438W        W 5182   5.098   2.013   3.904 -0.0161  0.0463 -0.4256
 1439W        W 5183   5.868   7.599   1.490  0.2262 -0.1462 -0.1000
 1440W        W 5184   8.935   2.309   8.299 -0.1966 -0.0167 -0.0868
 1441W        W 5185   4.138   9.492   8.836 -0.3337 -0.3500  0.1350
 1442W        W 5186   4.031   6.295   2.854 -0.2974  0.0101 -0.2093
 1443W        W 5187   5.277   0.360   3.283  0.1596 -0.1839 -0.1914
 1444W        W 5188   0.519   2.052   1.301 -0.2835 -0.1902 -0.2098
 1445W        W 5189   5.747   5.042   0.674 -0.0373  0.3187  0.2197
 1446W        W 5190   4.079   8.250   3.117 -0.1362 -0.0028 -0.0539
 1447W        W 5191   1.695   2.290  11.151  0.4486  0.0942  0.1035
 1448W        W 5192   5.736   8.111  12.271 -0.0281 -0.0288 -0.0592
 1449W        W 5193   4.025   1.575   1.603  0.0125 -0.0229 -0.2334
 1450W        W 5194   9.456   6.439   2.543 -0.2002 -0.1130  0.0680
 1451W        W 5195   0.192   8.843  12.574  0.1006 -0.3245  0.1011
 1452W        W 5196   0.678   9.817   1.673  0.1290  0.2862 -0.0317
 1453W        W 5197   5.029   7.017   0.865 -0.0343 -0.0562  0.3620
 1454W        W 5198   7.212   9.654   0.589 -0.0101 -0.0036 -0.0126
 1455W        W 5199   7.848   5.047   8.399 -0.0438 -0.0393  0.2327
 1456W        W 5200   1.327   1.748  10.416 -0.0146 -0.1651 -0.1907
 1457W        W 5201   7.593   6.143  11.125 -0.4134  0.1747  0.0349
 1458W        W 5202   9.302   8.530   3.258  0.1341 -0.1905 -0.1334
 1459W        W 5203   6.184   7.959   3.369  0.0541 -0.1015 -0.0799
 1460W        W 5204   5.279   8.282   0.387 -0.4165  0.2078  0.1696
 1461W        W 5205   9.182   0.719   3.143  0.1483  0.3010 -0.0949
 1462W        W 5206   6.093   7.950   3.919 -0.2490 -0.0889 -0.0793
 1463W        W 5207   0.373   1.194  11.572 -0.0600  0.1460 -0.1681
 1464W        W 5208   0.346   6.826   1.736  0.2265 -0.1626 -0.1063
 1465W        W 5209   0.937   3.437   9.140  0.2235 -0.2359  0.4124
 1466W        W 5210   3.452   8.219  12.062  0.0009 -0.0708  0.2748
 1467W        W 5211   9.494   7.500  11.420 -0.1204  0.0203 -0.1815
 1468W        W 5212   3.877   9.677  11.696 -0.1237  0.2646  0.0509
 1469W        W 5213   7.709   6.921   3.886 -0.0751 -0.2609  0.0879
 1470W        W 5214   5.216   5.737   2.733 -0.2445  0.0654 -0.0719
 1471W        W 5215   4.302   4.650   4.309  0.2082  0.0457 -0.1087
 1472W        W 5216   8.426   0.845  11.058 -0.1029 -0.3225  0.3771
 1473W        W 5217   1.560   7.163  11.506  0.0235  0.0113  0.5458
 1474W        W 5218   5.296   8.033   9.069 -0.0037  0.0763 -0.1758
 1475W        W 5219   1.451   1.777   0.900 -0.1415  0.2188  0.2098
 1476W        W 5220   7.227   5.263  12.585  0.0848  0.0541  0.1211
 1477W        W 5221   3.021   2.645  12.407 -0.0542  0.2464  0.0525
 1478W        W 5222   4.413   1.857   2.489 -0.1357 -0.0389  0.0356
 1479W        W 5223   6.797   2.290   9.255  0.2254  0.0881 -0.1766
 1480W        W 5224   2.374   1.568   3.559 -0.2767 -0.0100  0.3434
 1481W        W 5225   6.165   9.216   2.692 -0.0313  0.0710 -0.1490
 1482W        W 5226   4.408   0.829  10.746 -0.1406 -0.1400 -0.1445
 1483W        W 5227   7.464   8.889  10.645 -0.1100 -0.0935  0.1515
 1484W        W 5228   5.134   7.822   0.932  0.1518 -0.4348  0.1627
 1485W        W 5229   2.504   1.195   9.865 -0.1204  0.0647 -0.4844
 1486W        W 5230   7.002   6.176   1.389 -0.1381 -0.1778  0.5838
 1487W        W 5231   9.402   1.756   9.005  0.2975 -0.2448 -0.0605
 1488W        W 5232   7.067   6.767  11.088  0.0918  0.0660  0.0048
 1489W        W 5233   3.549   0.214  12.539  0.0169 -0.0728  0.2047
 1490W        W 5234   4.948   6.457   3.409 -0.2074  0.1458 -0.0374
 1491W        W 5235   6.983   9.408   9.196 -0.1722  0.0800 -0.1791
 1492W        W 5236   2.008   8.700   0.024 -0.0103  0.2124  0.1910
 1493W        W 5237   0.923   1.400  11.742  0.2339 -0.1606 -0.0039
 1494W        W 5238   9.391   8.255   9.947  0.0036  0.0362  0.0221
 1495W        W 5239   6.367   7.038   2.338  0.1683 -0.1766 -0.0395
 1496W        W 5240   7.530   8.046   9.653  0.4631 -0.1098  0.0481
 1497W        W 5241   3.735   3.281  11.199  0.0534  0.0443 -0.1269
 1498W        W 5242   9.058   3.981   3.115  0.3446  0.0323 -0.2958
 1499W        W 5243   5.115   3.606   4.639  0.2046 -0.2199 -0.0753
 1500W        W 5244   1.637   6.023   0.842  0.3601 -0.2166  0.1210
 1501W        W 5245   2.553   6.086  12.299 -0.0316 -0.1210 -0.2553
 1502W        W 5246   4.411   4.896   0.042  0.1765 -0.0348 -0.0256
 1503W        W 5247   6.910   6.092   3.004 -0.0752  0.0065 -0.0474
 1504W        W 5248   3.010   7.970   1.851  0.3181 -0.1422 -0.2580
 1505W        W 5249   6.913   2.853  10.332 -0.0412 -0.0502 -0.1802
 1506W        W 5250   3.728   1.393   3.206 -0.1193 -0.2002  0.1395
 1507W        W 5251   9.269   9.887  10.456  0.3122  0.2366  0.0978
 1508W        W 5252   3.716   7.240   1.932 -0.1306 -0.0403 -0.0881
 1509W        W 5253   6.436   3.938   1.964 -0.1459  0.1321 -0.0050
 1510W        W 5254   0.866   4.866   1.707  0.2181 -0.0205  0.0825
 1511W        W 5255   9.503   5.737  12.427  0.1239 -0.0373  0.1728
 1512W        W 5256   5.701   8.869   1.453  0.0240  0.2325  0.1243
 1513W        W 5257   6.923   6.265  11.872  0.2087  0.3324 -0.0750
 1514W        W 5258   3.284   7.423   2.872  0.0208  0.2041  0.1832
 1515W        W 5259   2.745   2.730   0.477  0.0164  0.2072 -0.1218
 1516W        W 5260   2.692   3.243   4.630 -0.0850  0.1724 -0.0980
 1517W        W 5261   0.781   9.432   1.306  0.2504  0.0643  0.2603
 1518W        W 5262   5.026   7.229   9.197  0.3059 -0.0724 -0.1634
 1519W        W 5263   7.247   1.453   9.470  0.1914  0.1923  0.0430
 1520W        W 5264   5.649   4.804   1.757  0.1113 -0.2021 -0.1402
 1521W        W 5265   8.867   6.968   0.231  0.2790  0.1664 -0.1014
 1522W        W 5266   4.509   6.693  10.842  0.0912 -0.1627  0.1475
 1523W        W 5267   4.508   6.423   0.518 -0.2524  0.0312  0.0552
 1524W        W 5268   4.352   8.142  11.232 -0.1293  0.0916 -0.0127
 1525W        W 5269   5.038   0.263  10.442 -0.0724  0.0069  0.0788
 1526W        W 5270   4.498   0.813   3.544  0.2725  0.4065 -0.3871
 1527W        W 5271   7.147   4.911  10.588  0.1840  0.0946 -0.2527
 1528W        W 5272   1.773   5.814  10.272 -0.1048 -0.1112  0.0664
 1529W        W 5273   9.602   3.793  10.705  0.1274  0.1940 -0.2767
 1530W        W 5274   4.895   2.019   0.549 -0.1073 -0.1218 -0.2443
 1531W        W 5275   6.657   7.051   3.942  0.0527 -0.0654  0.2307
 1532W        W 5276   7.821   5.927   9.864  0.1047  0.3577 -0.1251
 1533W        W 5277   5.848   7.143   1.014 -0.0622 -0.1289 -0.0074
 1534W        W 5278   0.684   4.199   9.591 -0.0955  0.3539  0.0608
 1535W        W 5279   8.392   8.870   3.889 -0.0529 -0.2309 -0.3259
 1536W        W 5280   3.993   4.472   9.709  0.0660  0.0406  0.0268
 1537W        W 5281   8.505   7.997   2.715 -0.0538 -0.1772  0.1755
 1538W        W 5282   9.416   2.105   1.169  0.2174 -0.0850  0.0870
 1539W        W 5283   0.101   0.759   0.843  0.2918 -0.3114 -0.0798
 1540W        W 5284   3.427   1.492  12.018  0.3129  0.2479  0.0043
 1541W        W 5285   2.715   2.981  10.222 -0.0569 -0.2252 -0.1801
 1542W        W 5286   2.549   7.789   9.210 -0.1822 -0.4831  0.2304
 1543W        W 5287   4.584   9.455   3.996  0.1026  0.1436  0.2531
 1544W        W 5288   3.198   3.588   3.970  0.0946  0.4375  0.1078
 1545W        W 5289   8.799   3.108   4.548  0.0292  0.1928 -0.1345
 1546W        W 5290   7.660   6.299   9.420 -0.2567 -0.2846  0.1482
 1547W        W 5291   4.502   1.609   0.415 -0.4535 -0.0144  0.0374
 1548W        W 5292   1.742   2.849  11.176  0.0757  0.1968  0.1056
 1549W        W 5293   3.996   4.089  10.198 -0.0228 -0.0849  0.2889
 1550W        W 5294   7.877   9.101  10.386 -0.0621 -0.1075 -0.1113
 1551W        W 5295   2.127   0.392   1.826 -0.0535 -0.0895  0.3329
 1552W        W 5296   2.841   1.211  10.216 -0.0787 -0.0528  0.1976
 1553W        W 5297   0.878   0.811   9.117  0.0957  0.0016 -0.1887
 1554W        W 5298   3.327   9.929   2.448 -0.3057  0.1805 -0.0264
 1555W        W 5299   8.931   7.428  10.051 -0.2565 -0.0207  0.0884
 1556W        W 5300   8.018   4.871   4.276 -0.3672  0.0692 -0.0941
 1557W        W 5301   0.109   5.252   0.701  0.1297 -0.2102  0.0448
 1558W        W 5302   5.613   7.722   4.825 -0.1285 -0.2149  0.1549
 1559W        W 5303   6.146   1.059   1.388  0.0011 -0.4220 -0.1134
 1560W        W 5304   5.359   8.798   1.812  0.0837 -0.1641 -0.0322
 1561W        W 5305   1.255   0.645  10.070 -0.0098  0.2331  0.1587
 1562W        W 5306   6.235   8.770   2.972  0.2996 -0.0033 -0.0731
 1563W        W 5307   6.708   7.547  10.070 -0.1313  0.1606 -0.0834
 1564W        W 5308   1.752   6.432  10.376  0.0604  0.0504  0.0246
 1565W        W 5309   3.665   2.518   1.497 -0.4486 -0.0751 -0.0097
 1566W        W 5310   5.917   5.324   4.427 -0.2359 -0.0486  0.1924
 1567W        W 5311   4.174   2.749   9.889 -0.0081  0.1393  0.2693
 1568W        W 5312   7.790   3.737   3.108 -0.0359  0.3294 -0.1930
 1569W        W 5313   1.703   0.578  11.728  0.2312  0.0941 -0.0611
 1570W        W 5314   5.713   1.740   8.899 -0.0946 -0.0213  0.1051
 1571W        W 5315   9.772   6.132   0.756  0.1126 -0.0643  0.0306
 1572W        W 5316   2.710   9.001   8.105  0.0615 -0.0460  0.0883
 1573W        W 5317   8.588   2.777   3.103  0.1055 -0.3889  0.3293
 1574W        W 5318   5.041   7.402  12.262  0.0320  0.2601 -0.0172
 1575W        W 5319   5.829   8.575   2.744  0.0280  0.2499 -0.1263
 1576W        W 5320   3.674   5.122  10.699  0.2393  0.0809  0.1823
 1577W        W 5321   3.388   9.811   0.545 -0.4235  0.1856  0.0368
 1578W        W 5322   8.628   5.851  10.508  0.0751 -0.2024  0.4483
 1579W        W 5323   1.563   1.418   9.725 -0.3685  0.2957  0.1625
 1580W        W 5324   6.920   9.806   9.524 -0.0852 -0.1342  0.2720
 1581W        W 5325   7.828   9.852  12.146  0.1248  0.2338  0.1511
 1582W        W 5326   1.070   1.520  10.825  0.1089  0.0753 -0.3122
 1583W        W 5327   1.185   7.232   8.583 -0.3052 -0.3668 -0.0315
 1584W        W 5328   9.554   8.568   1.419  0.0991 -0.1284 -0.6383
 1585W        W 5329   9.912   8.541   0.693  0.3244 -0.1441 -0.0238
 1586W        W 5330   5.991   7.668   9.868 -0.1956  0.2179  0.1262
 1587W        W 5331   5.578   7.864   0.127  0.4734 -0.1276  0.1206
 1588W        W 5332   9.254   7.003  10.814  0.0018 -0.3589  0.0066
 1589W        W 5333   3.596   7.200   9.989 -0.3157 -0.2468  0.0076
 1590W        W 5334   1.770   7.742   0.614 -0.0508  0.0803  0.0759
 1591W        W 5335   2.727   6.930   1.081 -0.2450  0.4856  0.2597
 1592W        W 5336   2.115   6.104   1.059  0.2999  0.0957  0.2436
 1593W        W 5337   1.061   1.893   3.267 -0.0393  0.2353  0.2763
 1594W        W 5338   6.660   2.996   3.953 -0.1780  0.0789  0.4222
 1595W        W 5339   6.395   7.815   5.554 -0.0454  0.1170 -0.0706
 1596W        W 5340   1.596   2.132  12.655 -0.1689 -0.0258  0.3424
 1597W        W 5341   6.999   7.180  12.458 -0.0727 -0.0507  0.1529
 1598W        W 5342   2.222   8.181   0.075 -0.1419  0.2659 -0.0898
 1599W        W 5343   2.405   7.137  10.478  0.1103 -0.1244  0.1076
 1600W        W 5344   9.644   9.740   9.919  0.0372 -0.1607 -0.1790
 1601W        W 5345   6.635   1.362  10.520 -0.2411 -0.1941 -0.0982
 1602W        W 5346   9.685   2.664   4.325 -0.0340 -0.2387  0.2884
 1603W        W 5347   4.219   0.445  11.048 -0.2408 -0.0272 -0.1042
 1604W        W 5348   0.048   0.161   4.058  0.2343 -0.1789 -0.1258
 1605W        W 5349   9.455   3.050   8.760 -0.1080  0.4547 -0.1252
 1606W        W 5350   5.063   0.939   1.581  0.1244 -0.1948  0.1529
 1607W        W 5351   0.854   6.901   8.993 -0.1628  0.0495  0.0982
 1608W        W 5352   1.694   8.990   3.586  0.0214 -0.0712 -0.1014
 1609W        W 5353   4.726   0.613   1.938  0.1463  0.0518  0.0808
 1610W        W 5354   7.863   9.845  11.607  0.1952 -0.2263  0.0535
 1611W        W 5355   3.720   4.064  12.533 -0.0502  0.0770  0.2336
 1612W        W 5356   1.045   7.045  11.417 -0.1361 -0.4696 -0.2854
 1613W        W 5357   7.076   8.714  10.881 -0.2398  0.0448 -0.0373
 1614W        W 5358   1.087   5.622   3.120 -0.0134  0.3504 -0.0567
 1615W        W 5359   1.003   8.151   8.507  0.3554  0.1480 -0.1870
 1616W        W 5360   9.629   3.992   2.237  0.0934  0.1492  0.2303
 1617W        W 5361   9.695   0.924   2.021  0.0206  0.0286  0.0379
 1618W        W 5362   3.285   0.458   2.450  0.1063 -0.0094  0.2590
 1619W        W 5363   0.374   8.661  12.166  0.0961  0.1129 -0.2062
 1620W        W 5364   6.676   3.970   9.827  0.2185 -0.0028 -0.1180
 1621W        W 5365   5.976   5.399   3.735  0.0321  0.0350 -0.3446
 1622W        W 5366   5.506   5.306   1.658  0.2023  0.3235  0.1087
 1623W        W 5367   9.871   7.246   0.370 -0.1593 -0.0344 -0.1073
 1624W        W 5368   5.846   5.268   8.902 -0.3633  0.0389  0.0295
 1625W        W 5369   4.384   3.144  12.646  0.0740 -0.0039 -0.0649
 1626W        W 5370   8.690   1.017   4.283 -0.1640  0.2337  0.4489
 1627W        W 5371   9.216   8.305   4.150  0.0670  0.0013 -0.0461
 1628W        W 5372   3.345   0.955   2.522  0.0170 -0.1704  0.0628
 1629W        W 5373   7.967   1.655   8.897 -0.2252 -0.1895 -0.1330
 1630W        W 5374   3.656   6.557   1.004  0.0487  0.3944 -0.2651
 1631W        W 5375   1.841   7.144  12.030 -0.0148  0.2377  0.1508
 1632W        W 5376   5.546   7.831   0.661  0.0475  0.2807  0.3917
 1633W        W 5377   6.809   6.743   0.914  0.0227  0.1303  0.1483
 1634W        W 5378   0.156   9.858  11.398 -0.1080 -0.0129 -0.2065
 1635W        W 5379   0.364   9.494  11.116 -0.0918 -0.0145  0.1306
 1636W        W 5380   7.473   4.813   9.964 -0.0549 -0.2713 -0.0003
 1637W        W 5381   0.886   3.429   9.802  0.0202 -0.0029  0.1874
 1638W        W 5382   7.856   7.930   4.542 -0.2782 -0.0530  0.1263
 1639W        W 5383   5.575   2.613  11.318  0.4376  0.2832 -0.1078
 1640W        W 5384   7.064   4.818   0.734 -0.2164 -0.0281  0.1361
 1641W        W 5385   7.096   8.148  12.660 -0.0251 -0.2578 -0.0685
 1642W        W 5386   3.335   9.887   1.068 -0.0640  0.2916 -0.4647
 1643W        W 5387   7.516   7.933   5.062  0.2095  0.4687 -0.0242
 1644W        W 5388   2.186   9.074  11.321  0.3220 -0.1632  0.5274
 1645W        W 5389   3.321   3.649  11.056  0.2259 -0.2659 -0.0111
 1646W        W 5390   0.592   0.129   0.739 -0.0870  0.1033  0.1006
 1647W        W 5391   2.418   1.758   1.307 -0.0584 -0.0129 -0.2349
 1648W        W 5392   3.236   1.410   0.739  0.0713 -0.3438 -0.1747
 1649W        W 5393   4.209   4.304   2.358  0.0029  0.2081 -0.0129
 1650W        W 5394   7.520   8.654   4.433 -0.0219  0.1975  0.0009
 1651W        W 5395   4.278   2.917   4.679  0.1633 -0.2018  0.2949
 1652W        W 5396   5.312   1.464  12.022 -0.2016  0.1461 -0.3912
 1653W        W 5397   5.326   5.870  12.705  0.1250  0.2027  0.3022
 1654W        W 5398   4.864   0.825  11.092 -0.2446  0.1641  0.0731
 1655W        W 5399   6.435   5.939   1.963  0.2308 -0.0160  0.0230
 1656W        W 5400   0.187   7.693   1.980  0.1045 -0.0173 -0.2360
 1657W        W 5401   5.180   3.349  11.653  0.0394  0.2492 -0.1093
 1658W        W 5402   2.609   0.225   4.535 -0.0361 -0.1711 -0.0686
 1659W        W 5403   8.495   1.551  10.671 -0.3215 -0.2782  0.1685
 1660W        W 5404   6.231   3.869   1.475 -0.2089  0.0097 -0.1285
 1661W        W 5405   3.598   7.512   3.425  0.2757 -0.1777 -0.0029
 1662W        W 5406   8.352   9.011  11.189 -0.0233 -0.0007  0.0389
 1663W        W 5407   1.165   0.395   8.812 -0.2426  0.1920 -0.1623
 1664W        W 5408   5.077   1.506   3.148  0.1111 -0.0694 -0.0178
 1665W        W 5409   9.843   5.026   3.406  0.2362 -0.0504 -0.0853
 1666W        W 5410   2.921   3.993   2.856 -0.0480 -0.1068  0.1694
 1667W        W 5411   7.742   4.915   1.519 -0.1003  0.3374  0.0788
 1668W        W 5412   3.288   2.388  10.485 -0.0159 -0.0759  0.0360
 1669W        W 5413   5.445   7.335   3.195 -0.1656  0.1845 -0.1557
 1670W        W 5414   2.498   9.428  11.477  0.1036  0.0232 -0.0875
 1671W        W 5415   3.801   9.956   9.182  0.0321 -0.0226  0.0369
 1672W        W 5416   2.297   1.533  12.161 -0.2660 -0.0395 -0.0821
 1673W        W 5417   1.312   5.491   0.841  0.2891 -0.0489 -0.2435
 1674W        W 5418   7.701   0.960  10.442  0.2116 -0.0965 -0.2673
 1675W        W 5419   0.088   9.911   3.566  0.0688 -0.0506  0.1269
 1676W        W 5420   2.526   0.504   2.153 -0.0316  0.0372  0.0771
 1677W        W 5421   8.835   4.345   9.117  0.0439  0.0333  0.3202
 1678W        W 5422   2.043   3.157   4.484 -0.3320  0.1548  0.0489
 1679W        W 5423   7.013   3.534  10.956  0.2199 -0.2543  0.0152
 1680W        W 5424   1.225   0.472   0.664  0.0480 -0.0097 -0.2033
 1681W        W 5425   3.004   0.873  10.538 -0.2620 -0.0718 -0.0121
 1682W        W 5426   9.869   7.451  12.185  0.3417 -0.0841  0.2879
 1683W        W 5427   6.522   9.309   9.336  0.0537 -0.0567  0.0283
 1684W        W 5428   0.561   6.646   1.317 -0.0651  0.0116  0.2103
 1685W        W 5429   5.919   9.020  12.705 -0.1684  0.2191  0.0933
 1686W        W 5430   6.606   7.225   1.830 -0.0043 -0.0485 -0.0026
 1687W        W 5431   4.152   5.873   1.546 -0.0470 -0.0634  0.4059
 1688W        W 5432   3.754   3.070   2.496  0.0043 -0.4275  0.0947
 1689W        W 5433   7.172   4.766   2.311 -0.0658  0.1442  0.0072
 1690W        W 5434   3.876   9.169  11.529  0.1741 -0.2834 -0.1330
 1691W        W 5435   5.727   9.834  10.267 -0.1097 -0.0208  0.0469
 1692W        W 5436   3.112   7.293   4.359  0.1686  0.1282  0.1279
 1693W        W 5437   5.149   1.272   2.660  0.0602  0.1889  0.0803
 1694W        W 5438   5.253   0.874   9.256  0.0250  0.3882 -0.1896
 1695W        W 5439   5.361   2.752   3.200 -0.2116 -0.1109  0.1697
 1696W        W 5440   4.053   9.742  12.244  0.0657 -0.2315 -0.0210
 1697W        W 5441   2.367   6.070   2.461 -0.3648 -0.0848 -0.3682
 1698W        W 5442   9.398   8.828  11.653 -0.2597  0.0519  0.3058
 1699W        W 5443   9.483   1.399   2.086 -0.0593 -0.3939  0.2605
 1700W        W 5444   1.326   7.745  10.153 -0.1064  0.0108 -0.0399
 1701W        W 5445   6.547   0.511  11.685 -0.4139 -0.1246  0.1321
 1702W        W 5446   9.418   2.460  12.113  0.2547  0.1130  0.2121
 1703W        W 5447   7.380   0.683   0.954  0.0567 -0.1112 -0.1440
 1704W        W 5448   8.741   9.236  10.867 -0.1493  0.0961 -0.0444
 1705W        W 5449   8.526   7.004   0.607  0.0538 -0.1992 -0.0538
 1706W        W 5450   6.443   1.368  10.091 -0.2826  0.1369  0.3399
 1707W        W 5451   2.569   8.664   2.478  0.0995 -0.1183 -0.3963
 1708W        W 5452   8.533   1.586   2.290 -0.1063 -0.3309 -0.1614
 1709W        W 5453   0.675   5.697  12.224  0.0694  0.0716 -0.2569
 1710W        W 5454   7.871   4.296   2.319  0.1342 -0.2249  0.0684
 1711W        W 5455   7.894   9.700   9.150  0.0218  0.3536 -0.1401
 1712W        W 5456   2.501   2.013  12.500 -0.0116 -0.0449 -0.2951
 1713W        W 5457   1.949   9.473   0.723 -0.4553  0.0605  0.0337
 1714W        W 5458   2.990   0.000   4.280 -0.0775  0.2330 -0.3416
 1715W        W 5459   6.014   1.728  12.610 -0.0476 -0.0132  0.1419
 1716W        W 5460   6.969   7.508   1.459 -0.0296 -0.0019  0.2288
 1717W        W 5461   9.911   4.826  11.548  0.0769  0.2966 -0.1372
 1718W        W 5462   3.649   9.311   4.221  0.1114  0.0048  0.1376
 1719W        W 5463   5.430   9.890   0.594 -0.1233  0.0444  0.1844
 1720W        W 5464   8.474   7.183   2.140  0.2690  0.0094  0.0477
 1721W        W 5465   1.162   5.544   9.781  0.1405  0.1762  0.1069
 1722W        W 5466   6.908   1.539  12.769  0.1605 -0.0994 -0.1243
 1723W        W 5467   6.891   5.648  12.705  0.0096 -0.1714 -0.1059
 1724W        W 5468   0.975   7.280  10.351 -0.0473  0.0757 -0.1374
 1725W        W 5469   0.675   4.534  11.552 -0.1254 -0.0303  0.1733
 1726W        W 5470   1.060   0.207   3.602 -0.1797  0.0190  0.1069
 1727W        W 5471   9.569   7.842   1.055  0.0020 -0.1605  0.3371
 1728W        W 5472   9.634   6.847   0.074 -0.0474 -0.1661  0.1235
 1729W        W 5473   4.978   7.330   1.589  0.1013  0.0458 -0.0962
 1730W        W 5474   9.804   9.187   3.075  0.1893 -0.3285  0.3149
 1731W        W 5475   8.262   3.898   4.364  0.4543 -0.5468  0.0037
 1732W        W 5476   6.408   1.264   1.031 -0.0576 -0.0734  0.1449
 1733W        W 5477   2.020   3.443   2.996 -0.2447  0.0117 -0.1144
 1734W        W 5478   9.787   7.509  10.998 -0.1390  0.2424  0.0907
 1735W        W 5479   7.515   3.256   0.557  0.2590 -0.4706 -0.1475
 1736W        W 5480   0.452   4.423   0.844  0.2116 -0.3364 -0.2097
 1737W        W 5481   1.780   2.935   3.670 -0.0660  0.0962  0.1885
 1738W        W 5482   9.127   3.262   8.393  0.0613  0.3889  0.0707
 1739W        W 5483   3.421   6.627   2.536  0.0698 -0.0762 -0.6050
 1740W        W 5484   3.108   0.731  11.732  0.3323 -0.2565  0.0876
 1741W        W 5485   5.287   9.620  11.102  0.0336  0.2035  0.0889
 1742W        W 5486   3.456   8.917   1.519 -0.1156 -0.0109 -0.0586
 1743W        W 5487   0.234   6.600   0.113 -0.0317  0.1836 -0.2237
 1744W        W 5488   4.245   2.277   3.472 -0.2491 -0.1363 -0.2328
 1745W        W 5489   7.884   2.856   1.583 -0.0421 -0.2925 -0.0410
 1746W        W 5490   4.049   9.102   2.714  0.1208 -0.1632  0.1477
 1747W        W 5491   0.678   4.401   1.430  0.0281 -0.0885  0.0566
 1748W        W 5492   2.628   8.282   1.582  0.0402  0.1457  0.1277
 1749W        W 5493   2.286   2.308   2.886 -0.1097  0.0045 -0.0460
 1750W        W 5494   2.242   7.652   0.945 -0.0648 -0.3925  0.0739
 1751W        W 5495   2.023   2.819   8.525 -0.1660 -0.0971 -0.0516
 1752W        W 5496   7.194   5.652   4.291 -0.1847  0.0345  0.2068
 1753W        W 5497   8.859   0.512  11.302  0.0920  0.0135  0.2904
 1754W        W 5498   7.213   2.009   0.072  0.0629  0.0567 -0.0301
 1755W        W 5499   3.825   4.946   9.733 -0.3210  0.1110 -0.1710
 1756W        W 5500   2.348   8.174   3.720  0.2435  0.1432  0.1846
 1757W        W 5501   3.141   6.878   3.281  0.2436  0.0550  0.0745
 1758W        W 5502   7.731   2.160  12.620 -0.1183  0.0897  0.1258
 1759W        W 5503   2.962   0.245   2.147  0.1546  0.1178 -0.0010
 1760W        W 5504   7.512   3.423   8.525 -0.5060 -0.0922  0.2933
 1761W        W 5505   7.411   6.815   3.472  0.0640 -0.0989  0.0930
 1762W        W 5506   8.320   9.662  11.618 -0.1808  0.0659 -0.1869
 1763W        W 5507   7.480   1.997   8.548  0.2647 -0.0458  0.3323
 1764W        W 5508   4.242   3.636   9.977 -0.0281 -0.0046  0.1781
 1765W        W 5509   9.715   0.222   3.330  0.0296  0.1067  0.2850
 1766W        W 5510   1.351   6.053   3.582  0.0118  0.3384 -0.1585
 1767W        W 5511   2.626   8.109  12.522  0.1572  0.2244  0.1703
 1768W        W 5512   4.238   4.698  11.805 -0.2484 -0.1966 -0.1293
 1769W        W 5513   4.379   6.311  11.150 -0.3859 -0.0395 -0.0099
 1770W        W 5514   7.697   5.850   2.555  0.1522  0.0135 -0.1364
 1771W        W 5515   3.033   8.095   0.674 -0.1591 -0.3112  0.0533
 1772W        W 5516   7.502   2.464  11.705 -0.1002 -0.4262 -0.0299
 1773W        W 5517   5.339   2.560   1.256 -0.0869  0.1533 -0.2839
 1774W        W 5518   3.183   0.569   2.904 -0.1916  0.2681 -0.1942
 1775W        W 5519   5.659   4.945   3.608 -0.1547  0.0339  0.1422
 1776W        W 5520   8.714   5.524   0.057  0.1771  0.1326  0.0799
 1777W        W 5521   2.951   1.943  12.726 -0.0254  0.0262  0.3075
 1778W        W 5522   7.612   2.946   1.012  0.0957  0.1344 -0.0153
 1779W        W 5523   8.382   5.230   9.467 -0.2401  0.0249  0.1121
 1780W        W 5524   9.060   8.952   2.146 -0.1373  0.2525 -0.0711
 1781W        W 5525   0.964   3.678  10.528  0.2675  0.0910  0.0774
 1782W        W 5526   5.828   6.267   0.641 -0.0864 -0.1422  0.0537
 1783W        W 5527   8.397   5.344   9.989  0.3325 -0.2018 -0.1090
 1784W        W 5528   1.232   6.290  11.859 -0.1841 -0.0452 -0.0690
 1785W        W 5529   9.040   4.881  12.065 -0.2504  0.0949  0.0072
 1786W        W 5530   6.478   6.934  12.399 -0.3070  0.2230 -0.1473
 1787W        W 5531   7.945   2.966   0.465  0.0438 -0.1741 -0.0415
 1788W        W 5532   3.678   0.272   9.602 -0.0639  0.1000  0.1570
 1789W        W 5533   5.758   4.925   0.162  0.2161 -0.2312  0.0937
 1790W        W 5534   5.253   7.322  11.789  0.1012 -0.5576 -0.1489
 1791W        W 5535   9.683   8.252   3.625  0.0235 -0.0507  0.3024
 1792W        W 5536   6.166   6.362   0.241 -0.1141  0.1814 -0.0442
 1793W        W 5537   7.884   4.590  12.330  0.2341  0.0923  0.3075
 1794W        W 5538   7.013   5.317   4.588  0.2166 -0.0768 -0.2437
 1795W        W 5539   1.017   4.966   2.513  0.0126  0.0351  0.0254
 1796W        W 5540   4.540   8.368   8.878 -0.1019 -0.0574  0.0789
 1797W        W 5541   9.190   5.918   2.134  0.0885  0.0257 -0.2066
 1798W        W 5542   6.939   4.641   1.269  0.0925  0.1468 -0.0347
 1799W        W 5543   1.044   5.883   2.629  0.0019 -0.0820 -0.1167
 1800W        W 5544   9.788   5.740   2.775  0.3292  0.2976 -0.0436
 1801W        W 5545   0.270   2.146  10.213 -0.1712 -0.2203  0.1259
 1802W        W 5546   2.914   0.514  12.159 -0.0163 -0.2342  0.0926
 1803W        W 5547   1.364   1.934  11.041  0.1680  0.1536  0.2852
 1804W        W 5548   9.419   1.912   1.856  0.0343 -0.1408 -0.2237
 1805W        W 5549   7.871   9.842   1.483 -0.0437  0.0884 -0.4954
 1806W        W 5550   5.798   9.184   3.589  0.1006 -0.3636 -0.0762
 1807W        W 5551   3.590   8.837  12.425  0.1082  0.0577  0.0558
 1808W        W 5552   0.857   9.333   2.540 -0.2193 -0.1615 -0.2490
 1809W        W 5553   6.027   0.206   1.741  0.0975  0.0851  0.0202
 1810W        W 5554   3.119   4.316   2.157  0.1794  0.1988  0.2153
 1811W        W 5555   8.037   8.170   2.713 -0.0352 -0.1391 -0.2489
 1812W        W 5556   7.347   8.263  11.738  0.2003 -0.0044 -0.0921
 1813W        W 5557   5.186   0.818   4.160 -0.3405  0.3765 -0.1693
 1814W        W 5558   1.331   0.273  10.405 -0.0594  0.0690  0.1486
 1815W        W 5559   5.133   3.870  12.341  0.1751  0.1365  0.3280
 1816W        W 5560   1.392   8.601   9.422 -0.1190 -0.0493  0.0525
 1817W        W 5561   0.254   1.763   9.885 -0.1409 -0.0408 -0.2269
 1818W        W 5562   5.083   8.997  12.305  0.1637  0.4037 -0.0527
 1819W        W 5563   8.715   0.184   3.677  0.0807  0.3750  0.2273
 1820W        W 5564   7.912   5.310   9.291  0.3372 -0.0263 -0.1500
 1821W        W 5565   2.561   9.368   0.666  0.0726  0.2654 -0.1572
 1822W        W 5566   2.991   2.269   3.683 -0.2480  0.0426  0.0778
 1823W        W 5567   3.169   5.664   1.982  0.0127  0.0973 -0.0330
 1824W        W 5568   8.946   9.698  10.751  0.0078  0.0789 -0.0566
 1825W        W 5569   5.543   0.376  11.592  0.1383 -0.1714 -0.2494
 1826W        W 5570   3.521   3.202   3.968  0.1768  0.1860 -0.0846
 1827W        W 5571   7.958   8.487   8.775 -0.1181 -0.3651 -0.0621
 1828W        W 5572   2.302   5.104   9.286 -0.2502 -0.1814 -0.1065
 1829W        W 5573   2.736   3.960   3.385  0.1031  0.2354  0.2354
 1830W        W 5574   2.124   9.013  10.023 -0.0501 -0.1453  0.0185
 1831W        W 5575   5.976   9.315   4.059  0.2489 -0.1052 -0.2328
 1832W        W 5576   0.448   6.150   1.464 -0.1783  0.3229  0.1454
 1833W        W 5577   4.725   9.555  11.077  0.2580 -0.3961 -0.0416
 1834W        W 5578   7.928   4.573   0.688 -0.0815  0.0014 -0.1310
 1835W        W 5579   6.211   9.745   0.049 -0.1817  0.0183  0.0182
 1836W        W 5580   5.705   2.292   0.317 -0.1278 -0.4619  0.3078
 1837W        W 5581   7.653   3.676   0.489  0.1314 -0.0451 -0.0249
 1838W        W 5582   7.850   0.818   0.580 -0.0670  0.2630  0.1350
 1839W        W 5583   0.261   2.170   1.742 -0.1170 -0.1590  0.1722
 1840W        W 5584   3.751   8.576   2.769 -0.2126 -0.2659  0.1966
 1841W        W 5585   2.447   2.093   2.232 -0.2861  0.0716 -0.1213
 1842W        W 5586   4.863   8.428   0.170 -0.0694 -0.1484  0.2061
 1843W        W 5587   1.697   9.104  11.384  0.0214 -0.0708  0.0003
 1844W        W 5588   4.074   5.038  11.071 -0.2866  0.0492 -0.1473
 1845W        W 5589   5.366   2.875  11.971  0.1596  0.1808  0.1846
 1846W        W 5590   2.746   4.396   3.726  0.0787 -0.0168 -0.2579
 1847W        W 5591   0.545   0.737  12.304 -0.3258  0.0368  0.0744
 1848W        W 5592   0.068   2.268   3.096  0.1943 -0.0811 -0.3488
 1849W        W 5593   9.529   0.883  12.490  0.0309  0.1317  0.0387
 1850W        W 5594   5.654   8.743   4.884  0.2563  0.0990 -0.1949
 1851W        W 5595   4.211   5.492  12.030  0.1652  0.0251  0.1954
 1852W        W 5596   1.611   9.518   2.943  0.1623  0.0593 -0.2193
 1853W        W 5597   6.213   3.878   8.222 -0.0093  0.1524  0.1544
 1854W        W 5598   7.889   8.089  12.161  0.2189  0.1805 -0.0537
 1855W        W 5599   5.894   8.411   9.996  0.2754  0.1041  0.1153
 1856W        W 5600   0.368   2.681  11.088  0.2132 -0.3806 -0.0518
 1857W        W 5601   1.968   8.368   2.267 -0.0234 -0.0819  0.0503
 1858W        W 5602   9.349   9.151   0.320 -0.1284 -0.2947 -0.2269
 1859W        W 5603   3.995   4.195  11.636  0.1373  0.1345 -0.1103
 1860W        W 5604   5.218   3.253   4.107 -0.0173 -0.3403  0.1454
 1861W        W 5605   1.048   7.349   2.889  0.1335  0.1168 -0.2040
 1862W        W 5606   8.766   4.563   3.666 -0.1177 -0.2049 -0.1703
 1863W        W 5607   2.085   9.853  12.301 -0.2723  0.0409  0.0891
 1864W        W 5608   6.093   8.726   5.360  0.0828 -0.2887  0.0788
 1865W        W 5609   3.619   2.128   1.169  0.3660  0.0005  0.0452
 1866W        W 5610   0.173   0.081   2.040  0.1423  0.1307 -0.1748
 1867W        W 5611   6.213   3.013  11.940  0.2171  0.0450  0.1858
 1868W        W 5612   2.802   7.777   9.815  0.1073 -0.1950  0.4028
 1869W        W 5613   3.284   2.509   3.118  0.0136 -0.3510  0.1118
 1870W        W 5614   4.437   2.620  12.753 -0.0664 -0.4308  0.1571
 1871W        W 5615   1.427   8.887  10.693  0.2510  0.1699 -0.1167
 1872W        W 5616   2.127   8.904   9.042 -0.1600 -0.0823 -0.1269
 1873W        W 5617   4.508   9.011  12.278  0.2035  0.2690 -0.2534
 1874W        W 5618   5.258   6.569  12.705 -0.1731  0.2183 -0.1038
 1875W        W 5619   8.281   8.316   9.969  0.3018 -0.0979  0.0555
 1876W        W 5620   9.762   1.576  12.130  0.2414 -0.3297 -0.1238
 1877W        W 5621   4.255   2.107   1.180  0.1705  0.1353 -0.0403
 1878W        W 5622   0.459   5.410   1.003 -0.0551  0.1403  0.0159
 1879W        W 5623   0.018   1.746   0.104  0.0353  0.1004 -0.0427
 1880W        W 5624   9.149   5.320   0.980 -0.1168 -0.1773  0.0319
 1881W        W 5625   2.931   4.841   0.582  0.0716 -0.0891 -0.0741
 1882W        W 5626   3.738   2.998   9.000  0.2978  0.2214  0.1444
 1883W        W 5627   2.722   0.431  11.623  0.0489 -0.3116 -0.2301
 1884W        W 5628   4.596   7.580  10.177  0.1078 -0.1334  0.1122
 1885W        W 5629   6.698   7.074   1.315  0.0036  0.1668 -0.3526
 1886W        W 5630   3.817   4.419   4.128  0.0969 -0.2163 -0.0524
 1887W        W 5631   2.431   2.496   9.417  0.3199 -0.1486  0.1748
 1888W        W 5632   0.899   1.114  10.315 -0.1223 -0.1231  0.2918
 1889W        W 5633   0.332   5.170  12.613  0.3327 -0.1337  0.2643
 1890W        W 5634   0.818   8.833  10.164  0.1269  0.0744  0.0796
 1891W        W 5635   2.485   1.172  11.100 -0.2706  0.1314  0.0670
 1892W        W 5636   7.917   0.244   4.228  0.3000 -0.1169 -0.1033
 1893W        W 5637   2.150   2.436   3.741  0.1303 -0.1364 -0.0544
 1894W        W 5638   3.014   7.524  10.169 -0.4633  0.0112  0.2408
 1895W        W 5639   7.630   9.024   2.723 -0.0429 -0.0824  0.2940
 1896W        W 5640   1.530   8.063   3.963  0.0014  0.2713 -0.3526
 1897W        W 5641   6.158   3.155   0.654 -0.0657 -0.0603 -0.1611
 1898W        W 5642   8.724   1.380   0.349 -0.3391 -0.0201  0.0531
 1899W        W 5643   7.799   1.837  11.190 -0.0927 -0.0597 -0.1505
 1900W        W 5644   9.583   6.585   3.546 -0.1132 -0.1092 -0.0778
 1901W        W 5645   9.263   4.434  12.294  0.0981  0.0640 -0.0495
 1902W        W 5646   9.199   5.359   4.175 -0.0007  0.1684  0.1954
 1903W        W 5647   7.970   2.692   3.871  0.0810 -0.0431 -0.4475
 1904W        W 5648   0.360   3.703   3.574  0.0539  0.1672 -0.0510
 1905W        W 5649   6.754   6.075   3.573 -0.4281  0.1070  0.0415
 1906W        W 5650   8.994   7.120  12.058  0.1340  0.0182  0.1068
 1907W        W 5651   2.536   2.112   0.987  0.1433  0.2654  0.1890
 1908W        W 5652   4.616   5.138   2.557  0.0170 -0.0940 -0.0106
 1909W        W 5653   7.654   6.593  12.649  0.0738 -0.0891  0.2006
 1910W        W 5654   5.030   4.310  11.580 -0.1281  0.0642  0.0678
 1911W        W 5655   9.755   0.393   8.718 -0.1573 -0.1233  0.3771
 1912W        W 5656   4.710   1.598   3.453  0.1185 -0.2801  0.0825
 1913W        W 5657   9.715   3.015   3.350 -0.0995 -0.0887  0.0716
 1914W        W 5658   9.060   7.701   0.125 -0.1524  0.1498  0.1736
 1915W        W 5659   9.453   6.393   2.005 -0.3737  0.0526  0.0013
 1916W        W 5660   2.013   4.474   2.901 -0.0804 -0.5021  0.1945
 1917W        W 5661   4.176   0.684   0.051 -0.0357  0.0090  0.1430
 1918W        W 5662   7.633   4.130  12.413  0.0744 -0.0927  0.1717
 1919W        W 5663   4.882   9.633   1.707  0.0350  0.1238 -0.3758
 1920W        W 5664   4.106   2.853   1.720  0.2742 -0.0762  0.1802
 1921W        W 5665   9.166   0.340   9.142 -0.2154 -0.2439 -0.2601
 1922W        W 5666   3.936   8.083   2.070 -0.0384 -0.0791 -0.1493
 1923W        W 5667   4.297   2.320  11.517  0.0999  0.1268 -0.1726
 1924W        W 5668   2.827   6.360  11.431  0.3150  0.1953 -0.0055
 1925W        W 5669   8.539   9.173   3.457  0.0948  0.0066  0.1230
 1926W        W 5670   7.129   6.999   3.097  0.0683  0.1870  0.0350
 1927W        W 5671   5.616   2.498   2.795 -0.2879 -0.0847  0.0825
 1928W        W 5672   8.752   6.630  10.189  0.1902 -0.1366 -0.0593
 1929W        W 5673   5.588   7.603  10.392 -0.0611  0.0673 -0.0133
 1930W        W 5674   6.588   9.017   1.406 -0.2755 -0.0195 -0.2285
 1931W        W 5675   0.530   8.646  10.838  0.1477  0.1156 -0.0012
 1932W        W 5676   4.610   0.495   9.945  0.1565 -0.0298  0.0842
 1933W        W 5677   3.026   3.520   0.094 -0.3090 -0.1826 -0.2251
 1934W        W 5678   0.618   2.998   9.942  0.0318 -0.2201  0.2016
 1935W        W 5679   6.709   9.942  10.080 -0.1664  0.2802 -0.1034
 1936W        W 5680   1.228   6.511  10.582 -0.0787 -0.0297  0.0328
 1937W        W 5681   0.034   5.818   3.721  0.0977  0.1307  0.3078
 1938W        W 5682   6.876   2.021   2.653 -0.0876 -0.1530 -0.0948
 1939W        W 5683   4.822   1.935  11.180  0.1361 -0.0397  0.0517
 1940W        W 5684   5.563   6.589   2.289  0.2039  0.0669 -0.2890
 1941W        W 5685   4.890   8.602   1.124 -0.0200 -0.3485  0.2578
 1942W        W 5686   2.964   9.575   0.976  0.0549 -0.0125  0.1595
 1943W        W 5687   4.781   1.335  11.300  0.0471  0.1759  0.1355
 1944W        W 5688   3.694   2.644   0.184 -0.1292  0.2797 -0.0335
 1945W        W 5689   4.253   9.846   0.600 -0.0415  0.6634 -0.3004
 1946W        W 5690   6.480   1.649  11.504  0.2738  0.0503 -0.1302
 1947W        W 5691   8.542   1.791   1.855  0.1480  0.0902 -0.2732
 1948W        W 5692   0.431   8.710   1.852 -0.0130  0.1350  0.1593
 1949W        W 5693   8.394   4.513   2.178 -0.1539  0.1803 -0.0051
 1950W        W 5694   9.203   4.988   1.368  0.1574 -0.1135 -0.0723
 1951W        W 5695   6.729   2.233   0.023  0.2065 -0.0139 -0.1012
 1952W        W 5696   3.644   1.846   1.876  0.0728 -0.0089 -0.1667
 1953W        W 5697   9.345   1.857  10.554  0.2092  0.0120 -0.4377
 1954W        W 5698   0.205   8.678   2.808 -0.1606 -0.1304  0.0261
 1955W        W 5699   2.578   1.239  12.416  0.0431 -0.1783 -0.4471
 1956W        W 5700   9.480   0.378  12.385 -0.2710  0.1426 -0.3518
 1957W        W 5701   0.546   4.081  11.638 -0.2325 -0.2153 -0.0011
 1958W        W 5702   2.613   0.472  12.642 -0.2160 -0.0980  0.2018
 1959W        W 5703   7.998   1.448   2.997  0.1892 -0.4123  0.0321
 1960W        W 5704   0.655   1.299  12.362 -0.0917  0.1544 -0.0227
 1961W        W 5705   0.191   8.119   2.751  0.2044  0.0443 -0.2827
 1962W        W 5706   4.547   2.830   9.239 -0.4468 -0.0910  0.1276
 1963W        W 5707   1.248   5.781  10.975  0.3072  0.3419  0.3741
 1964W        W 5708   8.309   6.619   0.410 -0.2211 -0.0302 -0.0581
 1965W        W 5709   5.775   7.064   1.536  0.2871  0.1916  0.0189
 1966W        W 5710   3.649   1.227   9.102 -0.2403  0.0519  0.1990
 1967W        W 5711   4.981   3.464   8.323  0.0686 -0.0062 -0.0382
 1968W        W 5712   1.870   7.785   8.613  0.1655 -0.2520 -0.1183
 1969W        W 5713   3.200   9.360   3.065  0.1197 -0.0949  0.2129
 1970W        W 5714   0.888   4.316   3.075  0.0098  0.1465  0.0059
 1971W        W 5715   3.469   6.668  12.296  0.0527 -0.0950  0.0333
 1972W        W 5716   1.789   2.482  11.639  0.0217  0.0637 -0.2042
 1973W        W 5717   5.747   0.660   2.070  0.0200  0.0960  0.1096
 1974W        W 5718   9.220   7.391   8.685  0.0100  0.1612 -0.0103
 1975W        W 5719   3.352   7.445  10.939 -0.0750  0.2133  0.0355
 1976W        W 5720   9.935   2.816   9.255 -0.1231  0.2023  0.1589
 1977W        W 5721   3.816   6.279  11.239 -0.0114 -0.0949  0.4309
 1978W        W 5722   6.163   9.882   3.133 -0.2236  0.0773 -0.1303
 1979W        W 5723   9.736   2.317  11.141 -0.0936  0.0273  0.1380
 1980W        W 5724   5.737   0.028   4.094  0.0743 -0.0617  0.2386
 1981W        W 5725   7.822   8.483  11.695 -0.0652 -0.4218  0.1806
 1982W        W 5726   4.181   9.037   4.844 -0.0760  0.0899 -0.1068
 1983W        W 5727   3.557   0.826   1.149 -0.1237  0.3572  0.1074
 1984W        W 5728   6.113   7.858   2.821  0.1508 -0.1914  0.1356
 1985W        W 5729   0.575   4.491   2.706 -0.2787  0.1299 -0.1318
 1986W        W 5730   1.779   9.475  12.325  0.2051 -0.0092 -0.1613
 1987W        W 5731   0.964   1.496   0.863 -0.1738 -0.0826 -0.4223
 1988W        W 5732   0.494   5.211  12.180  0.2623 -0.0921  0.2581
 1989W        W 5733   8.824   9.895   0.394 -0.2463 -0.3016  0.0018
 1990W        W 5734   4.025   8.743   3.838 -0.2577 -0.8035  0.0969
 1991W        W 5735   0.558   3.973  10.390 -0.2758 -0.1666 -0.0319
 1992W        W 5736   8.817   9.962  10.328 -0.1890 -0.6864 -0.1981
 1993W        W 5737   9.684   2.906  10.563 -0.0364  0.2327 -0.0965
 1994W        W 5738   5.533   7.209  12.181 -0.0198 -0.0318  0.0895
 1995W        W 5739   3.880   5.465   0.754  0.1549  0.0863  0.0890
 1996W        W 5740   5.437   0.454   4.914  0.0920  0.0808 -0.0290
 1997W        W 5741   4.487   6.762   8.689  0.3401 -0.1751  0.1907
 1998W        W 5742   9.334   8.986  10.541  0.0466  0.2536  0.1764
 1999W        W 5743   3.684   4.588   2.758  0.1605  0.2351 -0.0420
 2000W        W 5744   5.480   1.185   4.333  0.1021  0.3352  0.0363
 2001W        W 5745   6.600   7.780   4.095 -0.0749  0.4446  0.2353
 2002W        W 5746   2.737   9.312   2.231 -0.0352 -0.0430 -0.1332
 2003W        W 5747   5.686   2.811   0.479  0.2845 -0.2905  0.1173
 2004W        W 5748   4.842   9.190   3.444  0.0697  0.0269 -0.3444
 2005W        W 5749   6.182   5.067   9.757 -0.1574  0.0605 -0.0099
 2006W        W 5750   3.335   5.552  10.917 -0.3456  0.2781 -0.0516
 2007W        W 5751   6.668   2.765   9.899  0.0183 -0.0249  0.0524
 2008W        W 5752   5.227   9.148  10.651  0.1230  0.0453  0.0509
 2009W        W 5753   6.892   7.116  10.693  0.0324  0.0769  0.3314
 2010W        W 5754   1.880   9.138   4.569  0.0459 -0.0492  0.4031
 2011W        W 5755   9.630   2.147   9.364  0.2788 -0.2808  0.0901
 2012W        W 5756   4.893   6.514  11.068 -0.2949 -0.2402  0.2695
 2013W        W 5757   2.849   1.705   3.602  0.3176 -0.0195 -0.2102
 2014W        W 5758   8.289   4.756  12.612  0.4996  0.1222  0.0429
 2015W        W 5759   5.058   9.608   3.964 -0.4672  0.1854 -0.1466
 2016W        W 5760   1.804   8.579  12.285 -0.1636  0.0740  0.0160
 2017W        W 5761   1.277   3.387   9.546  0.1518 -0.2125  0.1382
 2018W        W 5762   7.596   6.770   0.959 -0.0537  0.3298 -0.0380
 2019W        W 5763   9.908   8.614  10.757  0.1239  0.2777  0.1164
 2020W        W 5764   4.318   8.091   9.305  0.2284 -0.0020  0.0432
 2021W        W 5765   1.126   8.101   9.592 -0.1031  0.0468  0.2187
 2022W        W 5766   4.953   6.547   0.475  0.1448 -0.2297 -0.0291
 2023W        W 5767   8.264   5.833   3.329  0.2141  0.2595 -0.0482
 2024W        W 5768   1.201   9.107   8.858 -0.5068  0.1038  0.2784
 2025W        W 5769   4.544   5.613   2.018 -0.0336 -0.2831 -0.1787
 2026W        W 5770   4.986   4.637  11.141  0.0576  0.1427 -0.4906
 2027W        W 5771   7.906   3.067   9.670 -0.2027 -0.2321 -0.2937
 2028W        W 5772   8.895   7.888   1.007  0.0181  0.0407 -0.2477
 2029W        W 5773   0.785   2.614  11.462  0.1616  0.1381  0.2565
 2030W        W 5774   9.506   2.765  11.058 -0.2447 -0.1149  0.1246
 2031W        W 5775   3.381   0.802  12.350  0.1067  0.0987 -0.0047
 2032W        W 5776   8.301   3.429   2.608 -0.3952  0.4162  0.1541
 2033W        W 5777   0.133   6.564   1.032 -0.4890 -0.0194 -0.0187
 2034W        W 5778   4.684   6.448  11.527 -0.1974 -0.0572 -0.0932
 2035W        W 5779   3.010   2.644  11.544 -0.2911  0.1654  0.0085
 2036W        W 5780   8.418   5.795  11.370  0.2414 -0.1280  0.2129
 2037W        W 5781   9.557   2.595   8.960  0.1350 -0.1268  0.0835
 2038W        W 5782   3.495   1.157   4.048  0.2005  0.1572  0.0138
 2039W        W 5783   0.924   2.535   9.357 -0.1816  0.0641 -0.1987
 2040W        W 5784   5.744   5.774  10.902 -0.3443  0.0329  0.4214
 2041W        W 5785   2.034   4.770   2.508  0.0486 -0.1426 -0.3301
 2042W        W 5786   2.879   0.024   0.146  0.0319 -0.1326  0.2135
 2043W        W 5787   6.085   5.936   2.892  0.2350 -0.0099  0.2054
 2044W        W 5788   0.456   7.112   3.578 -0.1301 -0.0318  0.0471
 2045W        W 5789   3.922   2.577   3.819 -0.2793  0.2165 -0.0876
 2046W        W 5790   0.413   1.090   9.192  0.1100  0.1304  0.3152
 2047W        W 5791   1.207   5.629  11.428 -0.1743  0.0689 -0.1268
 2048W        W 5792   8.820   1.667   4.972 -0.0162  0.3794  0.1710
 2049W        W 5793   1.938   1.133   0.978  0.1727 -0.1271  0.0043
 2050W        W 5794   4.682   5.660  11.164 -0.0715  0.0571  0.2871
 2051W        W 5795   0.220   6.664   9.399 -0.2031  0.0615 -0.0404
 2052W        W 5796   9.253   7.121  10.234  0.1391 -0.3756  0.2640
 2053W        W 5797   9.816   7.366   1.804  0.1438 -0.2538  0.0063
 2054W        W 5798   2.894   0.085   1.090  0.0123 -0.0046 -0.1307
 2055W        W 5799   6.200   2.574   3.041  0.0519 -0.2467 -0.2231
 2056W        W 5800   7.081   9.876  12.054  0.0822 -0.0385 -0.0012
 2057W        W 5801   2.080   3.384   1.487  0.1273  0.0954 -0.0919
 2058W        W 5802   3.486   9.876   4.123 -0.2866  0.0233  0.0337
 2059W        W 5803   2.496   4.299  11.554 -0.0373  0.2580  0.0186
 2060W        W 5804   6.833   1.132   2.184  0.1593 -0.1387  0.1888
 2061W        W 5805   2.120   1.301   4.332 -0.1185  0.1517 -0.3493
 2062W        W 5806   2.416   9.218   9.486  0.0718 -0.0654 -0.1240
 2063W        W 5807   1.358   3.995   2.761 -0.3332  0.0397 -0.2341
 2064W        W 5808   7.432   7.629  11.406  0.2432  0.0785 -0.3769
 2065W        W 5809   5.697   2.136   3.794  0.1534 -0.1779 -0.1417
 2066W        W 5810   3.504   7.447   8.970 -0.1226 -0.1617  0.1860
 2067W        W 5811   8.486   1.301   3.213  0.2106  0.1893 -0.1402
 2068W        W 5812   6.772   0.896  10.513 -0.1158 -0.0114  0.2066
 2069W        W 5813   1.678   0.586  12.654  0.0195 -0.1426 -0.0186
 2070W        W 5814   2.561   9.910  11.639 -0.1155 -0.3773  0.2217
 2071W        W 5815   7.052   1.872  11.457 -0.3200 -0.1779 -0.0327
 2072W        W 5816   6.220   7.670   2.321  0.4709  0.4008 -0.0971
 2073W        W 5817   6.906   4.827   2.719  0.0218 -0.0499 -0.1117
 2074W        W 5818   7.279   1.504   0.429  0.0766  0.1861 -0.0837
 2075W        W 5819   6.360   0.705   0.111 -0.2224  0.2392  0.0620
 2076W        W 5820   7.380   1.068   4.308  0.0373 -0.0034 -0.2273
 2077W        W 5821   8.808   8.208   9.519  0.0001  0.5656 -0.3427
 2078W        W 5822   7.147   8.800  11.376  0.1241 -0.2860  0.0937
 2079W        W 5823   8.247   1.255  11.754  0.1865 -0.2941  0.0460
 2080W        W 5824   6.344   2.780   3.540 -0.0936  0.0025 -0.1725
 2081W        W 5825   0.078   8.198  10.476 -0.2065 -0.0652  0.1538
 2082W        W 5826   1.789   5.516   0.904 -0.1275 -0.1962  0.1158
 2083W        W 5827   5.224   1.542   1.623  0.2200 -0.0692  0.1865
 2084W        W 5828   4.971   7.860   0.414 -0.1210  0.2442  0.1484
 2085W        W 5829   4.593   8.353   2.832 -0.4211  0.0820  0.0762
 2086W        W 5830   6.325   1.744   4.664 -0.2966 -0.0525 -0.1189
 2087W        W 5831   5.540   7.015   2.002 -0.1943  0.2545  0.0109
 2088W        W 5832   1.543   9.504   3.988 -0.1220  0.2175 -0.0916
 2089W        W 5833   0.797   8.779   3.361  0.0569  0.0524  0.0457
 2090W        W 5834   4.773   3.875   2.992  0.0741 -0.1115 -0.0878
 2091W        W 5835   0.125   3.048   1.015  0.0627  0.0787  0.5185
 2092W        W 5836   2.956   7.771   0.007 -0.1305  0.1110  0.2718
 2093W        W 5837   6.598   9.131   0.072 -0.0815  0.0591  0.0733
 2094W        W 5838   0.740   9.845   3.944  0.2624  0.2431 -0.1964
 2095W        W 5839   9.948   1.224   8.393 -0.0676 -0.0047  0.0001
 2096W        W 5840   8.418   5.314  11.125 -0.3082 -0.0695  0.0676
 2097W        W 5841   5.520   1.818   3.076 -0.1788 -0.1063 -0.4464
 2098W        W 5842   1.918   1.902   9.008  0.1602  0.2409  0.2605
 2099W        W 5843   5.294   8.695   3.980 -0.0799  0.1054  0.0827
 2100W        W 5844   2.820   2.552  10.535  0.1038 -0.1442 -0.0812
 2101W        W 5845   9.194   7.565   0.659  0.2816 -0.1287  0.0273
 2102W        W 5846   0.234   9.316   0.899 -0.2581  0.0156  0.1976
 2103W        W 5847   2.182   4.972   3.082 -0.2115  0.1678 -0.3525
 2104W        W 5848   6.555   6.056  11.455  0.1671 -0.0649  0.0613
 2105W        W 5849   2.091   3.194   2.435  0.1149  0.0187  0.1703
 2106W        W 5850   8.965   4.608   2.772  0.1056  0.4033  0.3586
 2107W        W 5851   0.884   6.020  12.673 -0.0478  0.2104 -0.0552
 2108W        W 5852   0.378   0.608   2.344 -0.0332 -0.1620  0.0170
 2109W        W 5853   7.368   8.073   4.548  0.1795  0.3717  0.0457
 2110W        W 5854   7.459   7.723   4.182 -0.0066 -0.2294  0.1836
 2111W        W 5855   3.222   2.709  10.887 -0.1184 -0.1356  0.3069
 2112W        W 5856   5.131   1.145  10.542 -0.0429  0.1317 -0.1824
 2113W        W 5857   4.330   4.727   3.338  0.0359 -0.0661 -0.0565
 2114W        W 5858   0.714   7.159  11.829  0.1104 -0.4644 -0.0782
 2115W        W 5859   9.101   9.054   4.623  0.2122 -0.0720 -0.3434
 2116W        W 5860   3.673   9.573   3.809 -0.1314  0.1806  0.0076
 2117W        W 5861   5.452   5.697  12.221  0.3225 -0.2711 -0.1267
 2118W        W 5862   2.778   2.406  11.109 -0.0515  0.0215 -0.0237
 2119W        W 5863   6.273   3.613  11.463  0.0048  0.0176 -0.0061
 2120W        W 5864   4.586   2.017   3.688 -0.0859 -0.1101 -0.3172
 2121W        W 5865   1.556   9.217   1.268  0.1312 -0.1446  0.1731
 2122W        W 5866   4.335   6.738  12.509 -0.3521 -0.1402  0.0581
 2123W        W 5867   0.607   3.153   1.092 -0.1162 -0.1934 -0.3424
 2124W        W 5868   8.725   1.983   0.933  0.0861 -0.1605  0.0691
 2125W        W 5869   0.823   9.195   0.038  0.0579 -0.4590 -0.3394
 2126W        W 5870   6.400   4.309   3.541 -0.0008  0.1283  0.2827
 2127W        W 5871   9.311   3.426  12.550  0.1331 -0.2043  0.3159
 2128W        W 5872   8.603   5.760   1.254 -0.1289 -0.2741 -0.1445
 2129W        W 5873   3.024   1.659   2.797 -0.3326 -0.1773 -0.1324
 2130W        W 5874   8.135   1.406   2.091 -0.1432 -0.0900 -0.0535
 2131W        W 5875   3.491   8.144  11.580 -0.3274 -0.2216 -0.1160
 2132W        W 5876   5.733   0.855   3.565  0.4548  0.1166  0.1596
 2133W        W 5877   1.468   4.965   9.829 -0.1453  0.2916  0.1032
 2134W        W 5878   7.396   8.230   1.846 -0.0317 -0.0918  0.0416
 2135W        W 5879   2.970   4.093   8.819 -0.1018  0.3946  0.0646
 2136W        W 5880   8.509   3.603   9.713 -0.1355 -0.4294  0.5024
 2137W        W 5881   1.080   6.869   2.867 -0.0426 -0.3627  0.0294
 2138W        W 5882   2.455   5.033   1.903 -0.3822 -0.0603 -0.1236
 2139W        W 5883   9.243   0.390   3.504 -0.2179 -0.3396 -0.1005
 2140W        W 5884   3.946   1.943  10.875  0.3299 -0.0271 -0.0160
 2141W        W 5885   3.951   5.321  10.147 -0.0670  0.0746  0.2211
 2142W        W 5886   1.742   8.270   0.635  0.0003 -0.0959 -0.0997
 2143W        W 5887   9.174   5.000   1.981  0.2693  0.2344  0.1106
 2144W        W 5888   9.895   3.019   4.641 -0.2883 -0.1169  0.0847
 2145W        W 5889   8.212   0.757   2.568 -0.1471 -0.1337 -0.0798
 2146W        W 5890   0.030   5.626   0.996  0.0644  0.0078 -0.1172
 2147W        W 5891   4.203   9.271   1.068  0.1507  0.1883  0.1572
 2148W        W 5892   8.649   0.170   9.849 -0.1602 -0.1803 -0.1897
 2149W        W 5893   7.954   3.285   0.855 -0.1376  0.2379  0.1666
 2150W        W 5894   7.547   2.260   4.946 -0.0628  0.3191 -0.0573
 2151W        W 5895   6.586   3.443   4.072  0.0055  0.0540  0.4314
 2152W        W 5896   0.230   0.211   1.552 -0.1538  0.1351  0.1504
 2153W        W 5897   1.511   9.619   0.596  0.0141  0.4491  0.0568
 2154W        W 5898   4.833   8.179   2.336  0.2186 -0.0995  0.1044
 2155W        W 5899   6.765   5.728   8.927 -0.2571  0.0836 -0.2937
 2156W        W 5900   0.517   7.547   0.087 -0.1014  0.1700 -0.0785
 2157W        W 5901   9.603   0.766  10.493  0.1264 -0.0881 -0.0382
 2158W        W 5902   4.791   2.469   2.243 -0.1134 -0.0223 -0.0806
 2159W        W 5903   4.554   6.122   3.430 -0.0084  0.1389  0.0924
 2160W        W 5904   0.797   5.055   0.153 -0.3005 -0.0803  0.1023
 2161W        W 5905   5.272   7.387   2.317  0.0961  0.4452 -0.2448
 2162W        W 5906   8.421   2.033  11.114 -0.2366 -0.1300  0.2123
 2163W        W 5907   2.260   6.065   3.081  0.1543  0.1071  0.3487
 2164W        W 5908   4.164   1.377   8.335  0.0775  0.1632 -0.0027
 2165W        W 5909   5.211   0.583   1.896 -0.1257  0.2236 -0.2903
 2166W        W 5910   0.231   7.642   2.513 -0.1741  0.1688 -0.2347
 2167W        W 5911   8.162   8.744  10.180  0.0710  0.0255  0.2434
 2168W        W 5912   2.905   2.135  12.235  0.3903  0.0599 -0.2380
 2169W        W 5913   7.188   6.028   0.902  0.0929 -0.1083  0.0733
 2170W        W 5914   6.737   9.900   2.534  0.1684  0.0480 -0.1227
 2171W        W 5915   5.501   1.834  11.746  0.3750 -0.4362  0.1153
 2172W        W 5916   5.615   1.825   1.499 -0.5156 -0.0858 -0.3860
 2173W        W 5917   1.961   8.908   1.896 -0.0414  0.0159 -0.0645
 2174W        W 5918   2.461   5.024  10.226 -0.1160 -0.1616 -0.1749
 2175W        W 5919   0.354   4.228   3.069  0.1479  0.1772  0.0769
 2176W        W 5920   1.590   1.857   3.225  0.2132  0.0032 -0.0229
 2177W        W 5921   1.614   9.057   9.878  0.1456  0.1652  0.1309
 2178W        W 5922   1.153   7.548  12.190 -0.1262 -0.1262  0.1481
 2179W        W 5923   5.973   8.408   3.214  0.0216  0.1850 -0.1131
 2180W        W 5924   9.090   7.996   2.611  0.1873 -0.1723 -0.1092
 2181W        W 5925   3.240   7.877   3.227  0.0957 -0.2473  0.1435
 2182W        W 5926   1.759   7.595   1.893  0.0526 -0.0257 -0.2094
 2183W        W 5927   6.975   4.318   2.546 -0.0199  0.0960  0.1129
 2184W        W 5928   0.514   2.326   4.856  0.0846  0.2509 -0.0740
 2185W        W 5929   2.116   5.318   0.499  0.0694 -0.2092 -0.1612
 2186W        W 5930   1.871   9.943   9.341  0.1821 -0.1559  0.1167
 2187W        W 5931   5.354   4.919   1.365  0.0726  0.2943 -0.0504
 2188W        W 5932   0.419   7.611   9.852  0.2257  0.1213  0.0024
 2189W        W 5933   0.473   0.921  11.163  0.0091  0.1969 -0.0459
 2190W        W 5934   2.172   3.594   2.081  0.1528  0.2091 -0.0210
 2191W        W 5935   9.255   9.806   3.407  0.2025 -0.1918  0.0924
 2192W        W 5936   4.890   0.880   1.085  0.0031 -0.0564  0.1807
 2193W        W 5937   4.400   0.899   0.988 -0.2260  0.0381 -0.0776
 2194W        W 5938   7.649   7.513   0.304 -0.3030  0.0267 -0.2706
 2195W        W 5939   5.034   9.068   9.899  0.2177 -0.0448 -0.1012
 2196W        W 5940   5.573   2.437   4.194 -0.0730 -0.1775 -0.0056
 2197W        W 5941   0.253   8.866   9.237  0.2348  0.0918 -0.1508
 2198W        W 5942   8.641   7.147   1.671  0.0942 -0.0190  0.0289
 2199W        W 5943   3.464   7.149  12.164 -0.2104 -0.1170  0.1337
 2200W        W 5944   9.823   4.488   9.295 -0.2981  0.0262  0.0939
 2201W        W 5945   7.165   6.625   1.199 -0.2541 -0.0966 -0.4236
 2202W        W 5946   0.576   2.798   0.773  0.2869  0.1594 -0.1933
 2203W        W 5947   8.324   1.174   0.591 -0.1617 -0.0622 -0.2817
 2204W        W 5948   1.810   1.579   9.357  0.0982 -0.0755  0.2068
 2205W        W 5949   4.235   1.353   2.577 -0.4607  0.0768 -0.2152
 2206W        W 5950   3.468   8.135   1.945 -0.1844  0.3495  0.4707
 2207W        W 5951   2.827   8.612  10.130  0.1178 -0.1412  0.1703
 2208W        W 5952   8.793   7.774  10.960  0.2389 -0.1246  0.2706
 2209W        W 5953   5.660   9.821   2.005  0.1822  0.0193 -0.2739
 2210W        W 5954   1.126   6.278  11.002  0.1903  0.1914 -0.1487
 2211W        W 5955   7.588   9.212   3.178 -0.2328 -0.2660 -0.2869
 2212W        W 5956   2.883   1.538   9.379  0.1170 -0.0432 -0.2040
 2213W        W 5957   5.806   6.086  12.209 -0.1228 -0.0100  0.0645
 2214W        W 5958   4.745   5.045   8.846  0.1280  0.0153 -0.2658
 2215W        W 5959   7.470   9.490  12.088  0.2699  0.0631 -0.0876
 2216W        W 5960   9.920   1.582   1.915 -0.2376  0.1364  0.1773
 2217W        W 5961   2.161   0.125   4.321 -0.1881  0.1403  0.1569
 2218W        W 5962   5.776   4.280   8.890 -0.1947  0.2111  0.3299
 2219W        W 5963   8.488   8.767   0.207 -0.0861  0.0793  0.0769
 2220W        W 5964   2.791   4.373  11.989 -0.0999  0.3394 -0.0628
 2221W        W 5965   5.681   5.819   3.624 -0.1985  0.0739  0.0043
 2222W        W 5966   8.150   8.744   0.618 -0.0011  0.2333  0.0189
 2223W        W 5967   3.377   0.822   8.672  0.0548 -0.0043 -0.0795
 2224W        W 5968   1.340   5.051   3.448  0.0294  0.3989  0.0187
 2225W        W 5969   7.424   7.399   1.975 -0.2148  0.2788  0.1896
 2226W        W 5970   9.387   4.185  11.026  0.0162 -0.0511  0.0385
 2227W        W 5971   3.127   9.019  12.249  0.0124 -0.1724  0.2910
 2228W        W 5972   5.884   6.877   2.641 -0.1665  0.1290  0.1399
 2229W        W 5973   3.935   9.209   0.099  0.0981 -0.0236 -0.2148
 2230W        W 5974   0.385   3.930  12.098  0.0186 -0.3863  0.0648
 2231W        W 5975   3.506   2.859  10.061 -0.1666  0.1195 -0.0022
 2232W        W 5976   1.958   9.257   3.235 -0.1138  0.2968  0.0328
 2233W        W 5977   2.165   1.284  10.229 -0.1741  0.2302  0.0651
 2234W        W 5978   6.341   9.593   0.678  0.6079 -0.1287  0.2958
 2235W        W 5979   0.094   4.159   8.833  0.2838 -0.0662  0.0545
 2236W        W 5980   1.019   0.945  12.359 -0.1111  0.1622  0.1002
 2237W        W 5981   7.773   0.056   0.760  0.2592  0.0846  0.0448
 2238W        W 5982   7.369   0.503  12.770  0.0166  0.1619  0.2613
 2239W        W 5983   7.101   3.617  11.881 -0.1197  0.2265 -0.1589
 2240W        W 5984   4.230   7.927   1.171  0.1335  0.1743 -0.1048
 2241W        W 5985   5.161   4.330  12.091 -0.2840  0.1424 -0.3004
 2242W        W 5986   8.817   3.375   2.426  0.1170 -0.0657  0.1267
 2243W        W 5987   7.521   0.242   2.001  0.0818  0.0200 -0.4906
 2244W        W 5988   3.195   5.446   1.466 -0.1332 -0.5834  0.0117
 2245W        W 5989   7.157   3.186   0.942 -0.0692 -0.2406 -0.5093
 2246W        W 5990   5.432   2.256   8.598 -0.2134 -0.0124 -0.2396
 2247W        W 5991   0.220   5.171  10.511 -0.3018  0.0338  0.1416
 2248W        W 5992   1.627   7.028   2.254  0.1576 -0.0310 -0.0134
 2249W        W 5993   1.442   0.250   1.137  0.0222 -0.3708 -0.4595
 2250W        W 5994   2.686   2.016   9.344  0.1475 -0.0231 -0.0260
 2251W        W 5995   2.394   3.534  10.306  0.2349 -0.0772 -0.1608
 2252W        W 5996   3.133   0.770   8.219 -0.1498 -0.3385  0.1105
 2253W        W 5997   2.033   2.333  10.770  0.0599  0.0358 -0.0946
 2254W        W 5998   5.932   2.607  12.740  0.1627  0.1666  0.1750
 2255W        W 5999   7.900   9.636  10.495 -0.0657 -0.0007 -0.1122
 2256W        W 6000   0.553   9.171   9.845  0.2474 -0.2672  0.0550
 2257W        W 6001   9.368   0.862   9.210 -0.0791  0.1848 -0.0119
 2258W        W 6002   8.615   8.571  10.349  0.0067  0.0205 -0.0470
 2259W        W 6003   0.192   1.484   3.380 -0.0830  0.1241 -0.1478
 2260W        W 6004   9.784   7.419   2.345 -0.0920  0.0057  0.0439
 2261W        W 6005   5.660   6.604   0.263  0.1718  0.4486  0.0516
 2262W        W 6006   4.315   2.371   2.342  0.2699  0.4141  0.0386
 2263W        W 6007   0.873   5.936   3.413  0.2091 -0.0372  0.1074
 2264W        W 6008   9.380   9.631   0.113  0.3177  0.1179 -0.1773
 2265W        W 6009   1.101   1.624  11.341 -0.2794 -0.0857  0.0002
 2266W        W 6010   4.987   5.517   1.812  0.1130  0.2600  0.0420
 2267W        W 6011   7.790   9.931   9.699  0.2042  0.1660  0.0171
 2268W        W 6012   8.803   1.281  12.470 -0.1595 -0.5188 -0.0530
 2269W        W 6013   8.212   7.130  11.344  0.0522  0.0408 -0.3544
 2270W        W 6014   4.443   2.630   3.187  0.1466  0.1724 -0.2458
 2271W        W 6015   1.987   3.823  11.473  0.3271 -0.0416 -0.3023
 2272W        W 6016   2.047   4.315  11.216 -0.1742 -0.1085  0.0448
 2273W        W 6017   6.485   2.352   2.692 -0.0690 -0.0082  0.1943
 2274W        W 6018   9.771   3.169  11.041 -0.1622 -0.1497  0.1813
 2275W        W 6019   6.017   1.060   5.045  0.0336  0.1484  0.3069
 2276W        W 6020   6.452   9.539   2.884  0.1692  0.2859  0.2879
 2277W        W 6021   1.767   8.964   4.120  0.0539  0.1994 -0.0630
 2278W        W 6022   4.719   6.010  11.888  0.3947 -0.1381 -0.0206
 2279W        W 6023   7.227   0.579  10.636 -0.0398  0.3159  0.0992
 2280W        W 6024   3.197   8.332   9.962  0.2245 -0.1726  0.0597
 2281W        W 6025   1.311   1.725   8.963  0.3348 -0.0871 -0.1550
 2282W        W 6026   9.290   4.787  10.862  0.1359  0.1929  0.0068
 2283W        W 6027   6.796   8.385   0.626  0.1567  0.1181  0.3736
 2284W        W 6028   4.465   9.141  11.030  0.0854  0.1465 -0.0108
 2285W        W 6029   9.935   1.078  11.264  0.0293  0.0692  0.0867
 2286W        W 6030   3.732   0.207   2.307  0.3847 -0.2222  0.0105
 2287W        W 6031   2.785   4.910  10.602  0.1435  0.2236 -0.1931
 2288W        W 6032   3.320   8.361  10.498 -0.1343 -0.1540 -0.2014
 2289W        W 6033   8.206   6.516  12.657 -0.0972  0.1774  0.1327
 2290W        W 6034   4.291   2.832   2.218 -0.2260  0.0287 -0.4011
 2291W        W 6035   4.904   7.013  10.790  0.0168  0.0123 -0.2009
 2292W        W 6036   9.528   5.345   2.368 -0.1417 -0.0368 -0.0142
 2293W        W 6037   8.960   6.301   1.920  0.1368 -0.1539  0.0373
 2294W        W 6038   2.149   6.589   2.298 -0.1519 -0.0019  0.1229
 2295W        W 6039   8.794   8.558   3.383 -0.0298  0.2002  0.0073
 2296W        W 6040   9.607   2.019   0.194 -0.0911 -0.2525  0.0984
 2297W        W 6041   3.991   1.599   9.220  0.1935  0.0232 -0.1389
 2298W        W 6042   0.196   0.727   8.716  0.0998  0.1685  0.0317
 2299W        W 6043   8.554   9.549   1.791 -0.2508  0.0147  0.2741
 2300W        W 6044   3.404   5.789   2.383  0.0386 -0.1144  0.0633
 2301W        W 6045   7.315   1.241  10.642 -0.1932 -0.2426 -0.1147
 2302W        W 6046   1.903   1.887  12.364 -0.3048  0.2803  0.2611
 2303W        W 6047   9.043   0.829   1.471 -0.2226 -0.1394  0.0540
 2304W        W 6048   4.016   0.277  12.070  0.0004  0.3359 -0.2086
 2305W        W 6049   1.245   1.823   2.815  0.0753 -0.2340 -0.2280
 2306W        W 6050   6.957   0.914  12.095  0.0152 -0.2353  0.1144
 2307W        W 6051   1.210   8.149   9.055 -0.1692 -0.2724 -0.1540
 2308W        W 6052   9.277   1.247   8.851 -0.2443 -0.2501 -0.3330
 2309W        W 6053   5.474   6.798  11.721 -0.2271 -0.0066  0.3477
 2310W        W 6054   6.525   7.571   2.800  0.1761  0.1865 -0.2571
 2311W        W 6055   5.045   1.845  12.042 -0.2237  0.1117  0.2000
 2312W        W 6056   7.195   4.703   3.187  0.3609  0.0236  0.0888
 2313W        W 6057   2.772   3.457   3.696 -0.0118  0.0601 -0.0857
 2314W        W 6058   2.009   1.895   0.614  0.0363  0.2717 -0.1756
 2315W        W 6059   6.775   9.057   8.834 -0.0859 -0.1572  0.1011
 2316W        W 6060   0.345   3.864  11.268  0.0415  0.1141  0.1289
 2317W        W 6061   3.755   7.821   8.810  0.2234  0.0168 -0.0999
 2318W        W 6062   0.663   1.021  11.925 -0.0860  0.4444 -0.1638
 2319W        W 6063   6.029   5.934   9.204  0.0525 -0.0794  0.0272
 2320W        W 6064   6.990   4.642   9.655  0.2550  0.0583 -0.1905
 2321W        W 6065   5.579   1.654   1.021  0.1210 -0.1777  0.3487
 2322W        W 6066   5.097   3.885  10.871  0.4216 -0.1315  0.0504
 2323W        W 6067   1.262   2.363   1.048 -0.1765 -0.0131  0.1143
 2324W        W 6068   5.779   8.584   9.537  0.1396 -0.1696  0.2270
 2325W        W 6069   0.632   4.573  12.046  0.0100  0.2582  0.0929
 2326W        W 6070   3.228   3.089  11.310  0.2417  0.1249  0.1209
 2327W        W 6071   1.341   7.286  10.020  0.2111  0.0622  0.3090
 2328W        W 6072   0.848   5.757   1.436 -0.1774 -0.1406 -0.0796
 2329W        W 6073   3.895   1.916  10.360  0.2321 -0.3004 -0.0478
 2330W        W 6074   0.068   8.937  11.461 -0.0507 -0.1367 -0.0005
 2331W        W 6075   3.935   6.924   8.788 -0.0988 -0.0957  0.2514
 2332W        W 6076   8.637   9.069   8.987  0.1795 -0.1890  0.0938
 2333W        W 6077   6.745   9.644   5.156  0.0112  0.3212 -0.1984
 2334W        W 6078   8.679   9.154   9.670 -0.0808 -0.1878  0.1359
 2335W        W 6079   8.744   3.906   0.190 -0.1593 -0.3362 -0.1852
 2336W        W 6080   0.181   4.699  10.274  0.2617 -0.2658 -0.3061
 2337W        W 6081   6.442   9.014   0.642 -0.2260  0.1436 -0.0597
 2338W        W 6082   5.778   6.159   2.061  0.3489 -0.0618  0.1676
 2339W        W 6083   5.913   4.477   9.314 -0.1443 -0.1501 -0.2158
 2340W        W 6084   9.086   6.298  11.531 -0.0617  0.2143  0.2187
 2341W        W 6085   0.431   3.988  12.778  0.1254  0.1370  0.0301
 2342W        W 6086   8.873   0.567   1.904  0.2236  0.0621  0.0412
 2343W        W 6087   9.238   3.981   1.886 -0.1550 -0.1300 -0.1623
 2344W        W 6088   8.224   4.942   2.378  0.0861 -0.1839 -0.3799
 2345W        W 6089   2.649   4.816  12.744  0.1959  0.0231 -0.1412
 2346W        W 6090   5.074   9.552  11.560 -0.0214 -0.0881  0.2362
 2347W        W 6091   7.849   2.694  11.464 -0.2570 -0.2187 -0.0939
 2348W        W 6092   3.968   1.947   4.300  0.0854  0.2231  0.0743
 2349W        W 6093   7.915   5.424   2.462 -0.1289  0.1050  0.3514
 2350W        W 6094   1.683   6.636   0.893  0.0838  0.0845 -0.2067
 2351W        W 6095   2.464   3.906  10.617  0.0853  0.0538  0.1269
 2352W        W 6096   4.901   0.438  12.207  0.0920  0.1605  0.2685
 2353W        W 6097   4.583   0.774   1.459 -0.0796  0.3213  0.0651
 2354W        W 6098   4.301   3.659   1.917 -0.1373 -0.0423  0.2728
 2355W        W 6099   2.011   2.254   2.450  0.1458 -0.2169 -0.1795
 2356W        W 6100   1.218   5.955  12.285 -0.1417 -0.1797 -0.1516
 2357W        W 6101   3.138   4.239   3.481 -0.0024  0.1556  0.3110
 2358W        W 6102   8.860   3.685  12.564 -0.0097 -0.2682  0.0299
 2359W        W 6103   4.711   6.943   3.206  0.0580  0.0532 -0.4076
 2360W        W 6104   6.053   3.959  10.683  0.0420  0.0967 -0.1691
 2361W        W 6105   4.776   3.341  12.446 -0.4583  0.3462 -0.1811
 2362W        W 6106   6.076   8.105   9.667  0.1883  0.0339  0.0363
 2363W        W 6107   3.577   1.528   0.180 -0.0378  0.0015  0.1717
 2364W        W 6108   8.591   4.641  12.181  0.3359  0.0642 -0.2774
 2365W        W 6109   9.165   1.394   8.339  0.0824  0.2587  0.0644
 2366W        W 6110   3.602   5.286  11.206 -0.1810  0.2257  0.2209
 2367W        W 6111   2.842   9.711   8.882 -0.0630  0.1195 -0.2269
 2368W        W 6112   5.206   7.601   8.933  0.2342 -0.1205 -0.1900
 2369W        W 6113   4.485   7.449   3.455  0.0221  0.0181 -0.1002
 2370W        W 6114   2.215   2.031   9.426  0.1952  0.0717 -0.0534
 2371W        W 6115   4.677   1.157   2.754 -0.0660  0.2367 -0.0875
 2372W        W 6116   1.648   8.732   8.947  0.0042 -0.2129 -0.1055
 2373W        W 6117   2.306   7.076   2.123  0.0125  0.0190  0.0039
 2374W        W 6118   0.273   0.551   3.235  0.0525  0.1430  0.0324
 2375W        W 6119   9.702   2.062   8.840  0.0272  0.1633 -0.0473
 2376W        W 6120   7.082   2.276   3.488 -0.0342  0.2670 -0.0424
 2377W        W 6121   6.011   1.796  11.401  0.0428  0.4683  0.0602
 2378W        W 6122   0.251   5.764   0.560 -0.1479  0.1633  0.0594
 2379W        W 6123   3.628   2.764  11.133  0.0035  0.1527 -0.3030
 2380W        W 6124   6.167   4.214   2.300 -0.0653 -0.2494 -0.1454
 2381W        W 6125   3.762   3.497   9.868 -0.2114  0.2264  0.0852
 2382W        W 6126   6.333   1.536   1.467 -0.2176 -0.3060 -0.3621
 2383W        W 6127   0.304   6.268   9.970  0.1944 -0.0050  0.2240
 2384W        W 6128   0.320   7.641   9.040 -0.0230 -0.0151 -0.0118
 2385W        W 6129   8.536   4.844   9.192 -0.1194  0.1226 -0.2595
 2386W        W 6130   6.625   5.989   9.944  0.2516  0.1391 -0.0750
 2387W        W 6131   4.654   4.288   2.577  0.0518  0.1966  0.2357
 2388W        W 6132   0.666   2.846   3.400 -0.2736  0.2338  0.0130
 2389W        W 6133   1.586   1.040  10.139  0.2908 -0.1552  0.1336
 2390W        W 6134   8.177   6.996  12.418 -0.0205  0.1367 -0.1896
 2391W        W 6135   4.463   7.367  11.036  0.1777 -0.1440 -0.1451
 2392W        W 6136   0.563   6.968  10.595 -0.1723 -0.2548 -0.1503
 2393W        W 6137   7.125   0.429   4.069 -0.0394 -0.2813  0.2345
 2394W        W 6138   9.679   0.039  11.210  0.0570 -0.0058  0.2246
 2395W        W 6139   9.083   7.818  11.435  0.4086  0.2932  0.1998
 2396W        W 6140   3.604   8.799   4.214  0.1393  0.0221  0.1176
 2397W        W 6141   6.176   6.410   1.657 -0.1296 -0.2683  0.1184
 2398W        W 6142   5.585   1.887  12.732 -0.0189  0.2059  0.1515
 2399W        W 6143   4.168   4.797   2.442 -0.2277 -0.0704  0.1470
 2400W        W 6144   7.310   0.870   3.767  0.1182 -0.1222  0.0417
 2401W        W 6145   0.588   3.497   2.863 -0.2534 -0.0904 -0.3082
 2402W        W 6146   6.767   9.799   1.094  0.0966 -0.1174 -0.0535
 2403W        W 6147   2.381   5.353   2.843  0.0323  0.1011 -0.1156
 2404W        W 6148   9.134   9.830   4.406  0.2320 -0.2824 -0.0771
 2405W        W 6149   7.813   2.785   2.246  0.4025  0.1115  0.1034
 2406W        W 6150   3.197   2.218   2.683  0.2523 -0.0772  0.0675
 2407W        W 6151   1.846   7.250  12.657 -0.0855 -0.4036  0.0002
 2408W        W 6152   9.652   0.486   1.174 -0.0077 -0.3038  0.3393
 2409W        W 6153   7.415   5.732  11.621  0.3044 -0.1142  0.1992
 2410W        W 6154   0.861   7.322   0.454 -0.3266  0.1603  0.1550
 2411W        W 6155   7.149   3.562   3.126 -0.0053 -0.2618 -0.0752
 2412W        W 6156   4.584   1.942   1.539 -0.1210 -0.0784  0.3010
 2413W        W 6157   4.419   4.978   1.958 -0.0809 -0.0073  0.0561
 2414W        W 6158   8.489   4.619   2.689  0.0981  0.2432 -0.0881
 2415W        W 6159   4.508   3.910   9.521 -0.2589 -0.3219  0.3142
 2416W        W 6160   4.423   9.508   4.472 -0.0172 -0.1346  0.0505
 2417W        W 6161   7.422   7.906  12.308 -0.0300 -0.0582  0.4169
 2418W        W 6162   8.980   8.682   8.881  0.0873 -0.0204 -0.3410
 2419W        W 6163   7.533   6.729   4.322 -0.1272  0.4288  0.2267
 2420W        W 6164   4.519   6.653   3.600  0.1815  0.0250  0.2106
 2421W        W 6165   6.576   5.772   2.859 -0.0973 -0.3424  0.2627
 2422W        W 6166   4.067   4.094   0.752  0.0701 -0.1211 -0.2475
 2423W        W 6167   8.884   1.804   3.265 -0.2180  0.0851 -0.0590
 2424W        W 6168   4.220   0.416   0.811  0.0853 -0.1782  0.1588
 2425W        W 6169   8.039   4.780   9.329 -0.0761  0.1329  0.3479
 2426W        W 6170   5.055   9.895   1.351  0.1108  0.0678 -0.1810
 2427W        W 6171   7.219   4.268  12.061  0.0899 -0.0941  0.0933
 2428W        W 6172   4.307   2.142   2.950 -0.4394 -0.1341  0.0432
 2429W        W 6173   1.929   1.963   3.598 -0.0079  0.0305 -0.2746
 2430W        W 6174   9.692   2.066   0.736 -0.1285  0.0297 -0.2457
 2431W        W 6175   4.708   2.560  11.203  0.2076 -0.1391 -0.1939
 2432W        W 6176   4.433   3.203   1.902 -0.1966 -0.1495  0.3949
 2433W        W 6177   7.330   2.277   9.350  0.1462 -0.0051  0.1554
 2434W        W 6178   9.864   5.060  12.008  0.2774  0.3747  0.1319
 2435W        W 6179   0.689   6.921   9.478 -0.1465  0.1237  0.4597
 2436W        W 6180   1.689   4.630  10.694 -0.0438  0.0576  0.3178
 2437W        W 6181   9.681   5.221   1.157 -0.3920 -0.4480  0.3029
 2438W        W 6182   8.474   4.496   4.857  0.0546  0.0421 -0.2584
 2439W        W 6183   0.756   4.204  12.398  0.4194  0.0260  0.0872
 2440W        W 6184   4.399   6.873  11.741  0.4140  0.1984  0.0209
 2441W        W 6185   1.520   0.859   8.489  0.1847  0.1323 -0.0063
 2442W        W 6186   3.188   8.246   3.593  0.1221 -0.3361  0.0619
 2443W        W 6187   5.434   3.777  10.338 -0.0419 -0.0595 -0.1204
 2444W        W 6188   8.247   6.388   3.573 -0.0437  0.2637 -0.0708
 2445W        W 6189   2.082   8.038   1.674 -0.2747 -0.1055  0.0403
 2446W        W 6190   9.636   7.674   0.319  0.2744 -0.1392  0.1061
 2447W        W 6191   1.498   5.727   9.475  0.0196 -0.0738 -0.0786
 2448W        W 6192   7.854   9.671   4.034  0.0055 -0.0290 -0.0593
 2449W        W 6193   7.728   5.332   0.349  0.0267  0.0312 -0.0108
 2450W        W 6194   1.552   4.413  12.023 -0.0612  0.0090  0.4060
 2451W        W 6195   9.867   9.748   1.164 -0.0580 -0.0804  0.2478
 2452W        W 6196   6.084   7.786   8.523 -0.1472  0.1241  0.0623
 2453W        W 6197   2.836   2.195   0.555 -0.1806  0.3159  0.1344
 2454W        W 6198   0.611   2.915   2.118  0.5129 -0.1514  0.0371
 2455W        W 6199   1.072   9.201   9.740 -0.2112  0.1568  0.0197
 2456W        W 6200   0.633   0.289   1.914  0.0198  0.3181 -0.0597
 2457W        W 6201   5.195   1.662   2.223 -0.1599 -0.3731  0.2152
 2458W        W 6202   5.344   6.251  12.349  0.2244 -0.0956 -0.2036
 2459W        W 6203   2.744   4.461   3.061  0.0585  0.1491  0.1392
 2460W        W 6204   8.413   8.319   3.775  0.1885  0.3664 -0.0668
 2461W        W 6205   7.909   7.012   3.411  0.1029 -0.1307 -0.1356
 2462W        W 6206   7.866   8.873  12.125  0.0387 -0.0954  0.0201
 2463W        W 6207   0.594   6.211   2.389 -0.0054 -0.2188 -0.1472
 2464W        W 6208   8.532   4.938   1.961  0.2483 -0.2312 -0.0681
 2465W        W 6209   8.111   8.814   1.909  0.2280 -0.0820 -0.0787
 2466W        W 6210   6.686   7.531  11.532 -0.1335 -0.2049 -0.3540
 2467W        W 6211   7.412   5.765  12.427 -0.2042 -0.0149  0.0341
 2468W        W 6212   7.543   4.837   8.954 -0.1227 -0.2612 -0.2628
 2469W        W 6213   7.018   6.500   2.606 -0.0390  0.0260  0.0055
 2470W        W 6214   2.169   3.307  12.276 -0.1334  0.4638  0.0821
 2471W        W 6215   8.733   0.489  10.301  0.1729 -0.0608  0.0098
 2472W        W 6216   6.690   1.412   0.625 -0.0465  0.2248  0.0184
 2473W        W 6217   3.168   0.081   3.804 -0.1578 -0.2806  0.3321
 2474W        W 6218   3.715   6.888   1.398  0.0690  0.1276 -0.0168
 2475W        W 6219   5.348   5.378  10.069  0.0433  0.0012 -0.0432
 2476W        W 6220   8.410   0.226   4.063 -0.0367  0.0891  0.1310
 2477W        W 6221   4.020   6.954   0.928 -0.0562  0.2023  0.1665
 2478W        W 6222   3.839   2.390  10.182  0.1576  0.0432  0.3922
 2479W        W 6223   2.873   0.830  11.315 -0.0615  0.1683 -0.3545
 2480W        W 6224   9.705   8.521  10.256  0.1914  0.0711  0.2179
 2481W        W 6225   9.157   3.225   1.271  0.1234  0.2690 -0.1922
 2482W        W 6226   6.979   1.236  10.181  0.3137  0.0968  0.4085
 2483W        W 6227   8.756   4.072   4.100 -0.3466  0.4938  0.0710
 2484W        W 6228   4.524   5.976   2.833 -0.1396  0.0791  0.3325
 2485W        W 6229   5.689   2.307  10.940  0.0720  0.1729 -0.0710
 2486W        W 6230   9.568   0.894   1.517  0.0790  0.0346 -0.0453
 2487W        W 6231   5.037   2.187  11.618 -0.2588 -0.2216  0.0754
 2488W        W 6232   6.699   9.433  10.250  0.3125  0.1542  0.1613
 2489W        W 6233   0.471   1.671   1.932  0.1907 -0.0183  0.1660
 2490W        W 6234   1.005   4.023   1.265  0.0083 -0.0037 -0.0841
 2491W        W 6235   3.263   0.718   9.624  0.2040  0.0239  0.0123
 2492W        W 6236   1.164   0.031  12.443  0.0413 -0.1210  0.0744
 2493W        W 6237   6.681   3.256  10.098  0.0612 -0.3363  0.1723
 2494W        W 6238   1.388   4.957   1.553  0.0246  0.2654  0.0551
 2495W        W 6239   9.241   2.228   8.905  0.0266 -0.2045 -0.1398
 2496W        W 6240   0.212   8.266   3.912  0.0487  0.3806 -0.1296
 2497W        W 6241   2.788   6.488   9.384  0.1380 -0.0623  0.3229
 2498W        W 6242   1.109   0.215   9.849  0.1629 -0.2452 -0.0799
 2499W        W 6243   8.057   7.008  11.833 -0.3235 -0.0962 -0.0791
 2500W        W 6244   0.423   5.998   0.963 -0.1423  0.4216 -0.2920
 2501W        W 6245   1.162   3.171   1.220  0.0093 -0.2600 -0.0106
 2502W        W 6246   5.769   3.176  12.117  0.1800 -0.0441 -0.1112
 2503W        W 6247   9.056   4.390   8.648 -0.0968 -0.1883 -0.1210
 2504W        W 6248   4.111   8.143   3.634 -0.0545 -0.5122  0.3398
 2505W        W 6249   1.742   4.667  11.590  0.2284  0.2396 -0.0133
 2506W        W 6250   4.360   2.572   1.280 -0.0711 -0.1178  0.1099
 2507W        W 6251   0.920   8.512   9.234 -0.0895 -0.1583 -0.4670
 2508W        W 6252   2.462   2.554   1.941  0.0009 -0.1373  0.2978
 2509W        W 6253   7.347   1.203   1.260  0.0954 -0.0092  0.2353
 2510W        W 6254   0.766   8.351   2.030  0.0082  0.5417 -0.0720
 2511W        W 6255   5.283   9.798   3.023  0.0446 -0.0246  0.0998
 2512W        W 6256   2.063   8.403   4.791 -0.4900  0.0233 -0.2990
 2513W        W 6257   1.078   8.848  12.582 -0.2990  0.1492  0.0905
 2514W        W 6258   8.002   8.528   3.846  0.0473 -0.0817 -0.1968
 2515W        W 6259   8.653   6.915   4.071  0.2009 -0.2187 -0.2101
 2516W        W 6260   2.083   9.008  12.296 -0.2558  0.1996 -0.0204
 2517W        W 6261   2.714   6.460   2.434  0.0526 -0.2978 -0.0252
 2518W        W 6262   1.249   5.935   1.148  0.0462  0.2986 -0.0998
 2519W        W 6263   2.864   2.119  10.190 -0.1543 -0.2645  0.0956
 2520W        W 6264   4.952   5.234  10.357  0.1109 -0.2070 -0.0335
 2521W        W 6265   8.386   1.182   0.005 -0.0433 -0.0152  0.1419
 2522W        W 6266   3.764   4.080   2.806 -0.2411  0.1182  0.1152
 2523W        W 6267   6.029   5.276   2.370  0.3965 -0.0313  0.1744
 2524W        W 6268   0.897   4.716   1.087 -0.2383 -0.0887  0.0548
 2525W        W 6269   8.471   2.331  10.031  0.0836 -0.1041  0.1177
 2526W        W 6270   2.011   1.338  12.570  0.1356  0.0399  0.2822
 2527W        W 6271   8.031   3.679   1.188  0.0006  0.0827  0.1141
 2528W        W 6272   0.897   9.216  11.560 -0.2747 -0.0455 -0.0946
 2529W        W 6273   9.148   1.433   3.678  0.0778  0.1617  0.2291
 2530W        W 6274   2.584   3.044   4.128 -0.0217 -0.0697  0.1852
 2531W        W 6275   2.964   5.096  10.047  0.2556 -0.0227  0.0999
 2532W        W 6276   0.840   8.618   0.878  0.2272  0.3004  0.0197
 2533W        W 6277   3.796   3.773   1.947  0.3295  0.0992  0.1606
 2534W        W 6278   9.239   6.584  10.451  0.1478 -0.0383 -0.1491
 2535W        W 6279   6.456   1.967  10.528 -0.2412  0.0927 -0.1640
 2536W        W 6280   8.929   5.341   8.859  0.0077 -0.0887  0.0170
 2537W        W 6281   2.717   5.995   2.796  0.1468 -0.3168 -0.1784
 2538W        W 6282   0.709   8.553   8.228 -0.0995 -0.1819  0.3649
 2539W        W 6283   1.593   0.335   9.695 -0.0871  0.0914  0.0534
 2540W        W 6284   9.744   8.867   0.077  0.0485 -0.1997 -0.0938
 2541W        W 6285   1.484   3.803   3.241  0.0134 -0.2001 -0.2291
 2542W        W 6286   0.156   8.912   9.780  0.0168  0.1674 -0.2366
 2543W        W 6287   8.756   5.034   2.400 -0.2018  0.0541 -0.0390
 2544W        W 6288   3.138   9.176   1.220 -0.0029 -0.1052 -0.0740
 2545W        W 6289   3.117   1.995  10.814  0.1834 -0.2028 -0.2905
 2546W        W 6290   9.577   9.920   9.024  0.0299 -0.4077 -0.0737
 2547W        W 6291   9.676   5.640   4.110 -0.0187  0.1188  0.0640
 2548W        W 6292   1.433   4.370   3.113  0.1516 -0.1302 -0.0973
 2549W        W 6293   0.230   0.851   0.331 -0.0198 -0.1262 -0.3445
 2550W        W 6294   4.155   8.182   2.547 -0.2277 -0.2708  0.1089
 2551W        W 6295   4.990   2.092   9.210  0.0212 -0.1898 -0.1380
 2552W        W 6296   2.388   4.051  12.058 -0.1043  0.2657 -0.1043
 2553W        W 6297   2.975   1.343   2.327  0.0153 -0.0230 -0.0131
 2554W        W 6298   0.687   2.967  10.452 -0.1251 -0.0983 -0.0891
 2555W        W 6299   3.120   7.016  10.062  0.0267 -0.3051 -0.1072
 2556W        W 6300   8.737   1.200   1.667 -0.1207  0.0049 -0.0727
 2557W        W 6301   6.792   7.057   2.634  0.2999 -0.2002  0.2125
 2558W        W 6302   5.894   3.525  12.432 -0.2947  0.0733  0.1893
 2559W        W 6303   0.556   9.257   0.475  0.3490 -0.2422  0.1120
 2560W        W 6304   2.749   1.025   9.419 -0.1160 -0.0138 -0.1920
 2561W        W 6305   7.601   6.938   2.946  0.2387  0.2884 -0.1342
 2562W        W 6306   4.775   9.085  10.299 -0.0986 -0.1565  0.1029
 2563W        W 6307   9.677   5.720   0.500  0.0694 -0.1231  0.0016
 2564W        W 6308   2.159   9.622   2.954  0.0042  0.1128 -0.1249
 2565W        W 6309   3.852   2.993   4.923 -0.2581 -0.0143  0.2259
 2566W        W 6310   3.296   7.891   2.652  0.1253 -0.1514 -0.2089
 2567W        W 6311   1.323   7.116  11.929  0.2533  0.1573  0.1430
 2568W        W 6312   1.341   8.101  10.938 -0.0585  0.5795 -0.2678
 2569W        W 6313   2.915   4.636  10.216  0.2236 -0.0964  0.0682
 2570W        W 6314   4.087   1.260  10.712  0.2673  0.1793  0.0019
 2571W        W 6315   0.148   9.596  10.700  0.1612  0.2171 -0.4308
 2572W        W 6316   3.930   8.536  10.586  0.0533  0.0054 -0.2323
 2573W        W 6317   3.099   7.276   0.152  0.2438 -0.3240  0.2122
 2574W        W 6318   2.847   2.666   2.923 -0.2052 -0.0551 -0.0932
 2575W        W 6319   4.887   7.077  10.159 -0.1361  0.0033 -0.4207
 2576W        W 6320   2.499   1.017   4.214 -0.2746  0.0791 -0.0998
 2577W        W 6321   7.807   4.436   4.005  0.0537  0.1751 -0.0596
 2578W        W 6322   9.290   2.330   1.599 -0.1592  0.1602 -0.2885
 2579W        W 6323   2.473   9.273   8.988 -0.0469 -0.0505  0.0941
 2580W        W 6324   1.184   9.708   3.735 -0.1202  0.1946 -0.1296
 2581W        W 6325   5.064   1.782   2.753 -0.2938 -0.1667 -0.1086
 2582W        W 6326   3.682   3.469   3.596  0.1176  0.1430 -0.3530
 2583W        W 6327   0.795   3.696  12.381  0.1026  0.0756  0.0278
 2584W        W 6328   4.543   5.526  11.648 -0.0004  0.2305 -0.0043
 2585W        W 6329   1.455   0.530   3.740  0.1033 -0.1484  0.0394
 2586W        W 6330   0.466   9.185   8.874 -0.0930  0.0900  0.0731
 2587W        W 6331   8.411   6.043   3.842 -0.3457 -0.2123  0.0999
 2588W        W 6332   9.016   9.418   3.595  0.1228 -0.2772 -0.1379
 2589W        W 6333   5.098   5.787   4.076 -0.2152  0.0011 -0.0875
 2590W        W 6334   4.292   2.753   4.176 -0.1539  0.0172 -0.2296
 2591W        W 6335   8.997   6.769  11.666 -0.0028  0.2375 -0.0034
 2592W        W 6336   9.073   1.812   0.042 -0.0555  0.2249 -0.0502
 2593W        W 6337   1.245   8.955   0.829  0.4748  0.1318 -0.0446
 2594W        W 6338   6.835   4.452   3.001  0.0102 -0.1462  0.2062
 2595W        W 6339   9.453   5.953  11.016 -0.0965  0.0650  0.0695
 2596W        W 6340   9.785   6.763   1.923  0.1147  0.0515  0.3210
 2597W        W 6341   6.383   7.966  10.144  0.0681 -0.0697  0.1410
 2598W        W 6342   1.770   6.023   0.121 -0.1859  0.2183 -0.1518
 2599W        W 6343   9.067   6.792   1.787  0.0885  0.0156  0.1359
 2600W        W 6344   3.855   7.779   9.271 -0.0375 -0.2783  0.1185
 2601W        W 6345   0.839   3.088  11.629 -0.0976  0.1741 -0.3154
 2602W        W 6346   9.063   1.705   1.066 -0.4066 -0.0598 -0.2753
 2603W        W 6347   4.677   7.818  10.909 -0.1515  0.1605 -0.3580
 2604W        W 6348   6.897   6.800   1.695 -0.5013  0.2076 -0.0752
 2605W        W 6349   1.611   4.079   2.212  0.0851 -0.0221  0.3578
 2606W        W 6350   9.093   4.345   9.994 -0.0771 -0.3296  0.0640
 2607W        W 6351   5.597   4.892   2.816  0.1139  0.0900 -0.4036
 2608W        W 6352   1.654   3.345   1.006  0.1261  0.2776 -0.0293
 2609W        W 6353   9.944   0.418   4.557  0.1525  0.0493 -0.0682
 2610W        W 6354   0.907   3.566   1.060 -0.5207 -0.0589 -0.3021
 2611W        W 6355   6.887   2.700   1.492 -0.3268 -0.1182 -0.2668
 2612W        W 6356   7.198   4.695  11.229 -0.5204 -0.1410 -0.0421
 2613W        W 6357   1.414   5.431   1.298  0.1761 -0.2086 -0.1075
 2614W        W 6358   5.831   1.310   0.150 -0.1750 -0.3456 -0.2959
 2615W        W 6359   7.016   8.592  12.413  0.0061 -0.1403 -0.1352
 2616W        W 6360   8.649   6.573   0.023 -0.1639  0.0978  0.2064
 2617W        W 6361   2.052   5.063   0.924  0.1048 -0.2438 -0.3198
 2618W        W 6362   0.918   9.894  10.199 -0.0219 -0.1088  0.3283
 2619W        W 6363   8.470   2.243   1.879  0.2537  0.0076  0.1391
 2620W        W 6364   5.467   1.251  10.156 -0.0090  0.0864  0.0353
 2621W        W 6365   1.155   1.555   4.095 -0.0406  0.1837  0.0346
 2622W        W 6366   0.173   4.420   1.318  0.3532 -0.0145  0.0152
 2623W        W 6367   2.732   1.229   3.421 -0.2391  0.2111  0.0037
 2624W        W 6368   8.676   4.353   1.170 -0.2571  0.0142 -0.2836
 2625W        W 6369   5.959   2.398   1.746 -0.2174 -0.1112 -0.2075
 2626W        W 6370   5.998   6.353  11.682 -0.1226  0.4989  0.0113
 2627W        W 6371   7.120   7.475   4.491  0.2265  0.0890  0.1436
 2628W        W 6372   0.778   5.869   1.960 -0.0099 -0.2214 -0.0839
 2629W        W 6373   7.785   0.937   9.951 -0.0638  0.0335  0.0950
 2630W        W 6374   4.408   6.299  12.759 -0.0012  0.0646  0.1602
 2631W        W 6375   2.585   7.227  10.021  0.2661 -0.0651 -0.0062
 2632W        W 6376   0.609   4.790   3.145 -0.2425  0.3644  0.0013
 2633W        W 6377   4.910   8.281   3.254  0.1954 -0.1793 -0.0368
 2634W        W 6378   0.527   3.991   1.128 -0.0514  0.1471  0.0300
 2635W        W 6379   0.656   3.824  10.887 -0.1475 -0.3027  0.1765
 2636W        W 6380   8.926   1.741  12.325  0.2247 -0.2607 -0.3114
 2637W        W 6381   2.609   8.676   7.759  0.1509 -0.0034 -0.0432
 2638W        W 6382   8.840   1.892  10.119 -0.0137  0.2819  0.1974
 2639W        W 6383   3.011   2.211  11.758  0.3123  0.0981  0.0436
 2640W        W 6384   6.341   5.233   3.479  0.4779  0.0667  0.2294
 2641W        W 6385   9.264   2.595  10.622 -0.1651  0.2301 -0.3892
 2642W        W 6386   2.640   5.497  10.329  0.1970  0.1240 -0.0229
 2643W        W 6387   7.004   2.604  11.809  0.1179 -0.0814 -0.2714
 2644W        W 6388   4.890   7.174   3.752  0.2677  0.1738  0.2322
 2645W        W 6389   3.331   8.449   0.461 -0.2216  0.2744  0.1968
 2646W        W 6390   9.244   0.836   1.044  0.3859 -0.0050 -0.0114
 2647W        W 6391   6.187   9.304   0.275 -0.0563  0.4334  0.1448
 2648W        W 6392   9.755   4.589  11.083  0.4330  0.1439 -0.3460
 2649W        W 6393   7.658   6.679   9.788  0.2150  0.0786  0.1188
 2650W        W 6394   3.898   5.174   3.700  0.0165 -0.3234 -0.3562
 2651W        W 6395   2.680   6.810  10.713  0.3232  0.1459 -0.3943
 2652W        W 6396   5.896   2.203  12.473  0.5013  0.1071 -0.0139
 2653W        W 6397   6.510   3.788  10.961 -0.4985  0.0051 -0.4565
 2654W        W 6398   7.308   3.468   0.137 -0.0998 -0.1589 -0.3733
 2655W        W 6399   7.254   3.002   4.677  0.3774 -0.0116 -0.1625
 2656W        W 6400   5.657   2.263   3.287 -0.1088 -0.1756 -0.0128
 2657W        W 6401   4.143   7.240   1.589  0.2809  0.4432 -0.0193
 2658W        W 6402   9.566   4.828   2.974  0.0772  0.2753  0.0444
 2659W        W 6403   5.995   3.987   9.264 -0.2151 -0.2128 -0.0704
 2660W        W 6404   2.022   5.680  11.543 -0.0266 -0.0426 -0.2977
 2661W        W 6405   2.515   8.541   2.985 -0.0981 -0.1308  0.0686
 2662W        W 6406   2.178   5.580  12.370 -0.1381  0.1424 -0.2283
 2663W        W 6407   9.566   0.093  11.956  0.3972 -0.0909 -0.1550
 2664W        W 6408   6.561   9.298   4.792  0.2638 -0.4447  0.0682
 2665W        W 6409   1.500   7.620   2.839 -0.3802 -0.1537  0.1235
 2666W        W 6410   0.440   1.117   1.214  0.0420 -0.0766 -0.1636
 2667W        W 6411   8.732   5.643   4.085  0.3260  0.1819  0.0220
 2668W        W 6412   3.566   9.898  12.115  0.0719  0.1437 -0.1082
 2669W        W 6413   0.208   4.405  11.352  0.0094  0.1888  0.2650
 2670W        W 6414   3.244   6.703  11.314  0.1826  0.2812  0.2443
 2671W        W 6415   2.548   5.810   2.013  0.1627 -0.2927  0.1224
 2672W        W 6416   8.093   5.087  12.243  0.0244  0.2527 -0.2618
 2673W        W 6417   3.118   3.063   3.079  0.0171  0.1459 -0.3247
 2674W        W 6418   8.910   9.806  12.254 -0.3288 -0.1680  0.1147
 2675W        W 6419   9.447   2.292   3.958 -0.0934 -0.1269  0.1401
 2676W        W 6420   0.695   7.799   2.726 -0.0367  0.1423  0.2683
 2677W        W 6421   5.063   0.458  11.745  0.0161 -0.3282  0.0721
 2678W        W 6422   4.657   6.904  11.259  0.0025 -0.4094  0.0228
 2679W        W 6423   4.897   6.047   2.010 -0.2639  0.0037  0.1299
 2680W        W 6424   9.508   8.032  11.306  0.0500 -0.1933  0.0954
 2681W        W 6425   4.231   1.349   3.181 -0.0413  0.3983  0.1113
 2682W        W 6426   1.236   0.423   2.063  0.1529  0.1413  0.2811
 2683W        W 6427   7.469   8.936  11.767  0.0605 -0.0221  0.0657
 2684W        W 6428   7.625   9.688  11.050 -0.2646 -0.0287 -0.4984
 2685W        W 6429   5.398   4.819  12.607  0.0579  0.2370  0.1333
 2686W        W 6430   7.191   3.122  10.759 -0.5097 -0.1016 -0.0045
 2687W        W 6431   1.912   1.101   9.325 -0.3013 -0.0491  0.2294
 2688W        W 6432   7.413   0.727  11.967  0.2816  0.4885 -0.0634
 2689W        W 6433   1.889   0.460  12.169 -0.0508 -0.0982 -0.0734
 2690W        W 6434   3.804   1.020   0.157  0.0872  0.2075  0.0544
 2691W        W 6435   0.039   1.423   8.897 -0.0071 -0.0536 -0.0189
 2692W        W 6436   8.254   7.548   2.645  0.2991  0.0395 -0.2440
 2693W        W 6437   9.415   6.179  11.892  0.0993  0.1364 -0.1830
 2694W        W 6438   5.692   5.916  10.175 -0.0202 -0.2044  0.2384
 2695W        W 6439   5.792   3.802   3.578 -0.2655 -0.3769  0.0281
 2696W        W 6440   8.200   8.543  11.362  0.2193  0.1719  0.3878
 2697W        W 6441   6.100   9.385   3.207  0.2412 -0.0594 -0.1797
 2698W        W 6442   5.774   8.775   2.065 -0.1398  0.2229 -0.2394
 2699W        W 6443   8.054   8.203  10.978  0.0087 -0.1198  0.0018
 2700W        W 6444   1.725   8.944   0.603 -0.0339 -0.1472  0.2577
 2701W        W 6445   3.386   9.342   0.755  0.0545  0.0884 -0.3136
 2702W        W 6446   6.405   2.652  11.582 -0.1108 -0.0102  0.4952
 2703W        W 6447   4.674   0.384  10.819 -0.0818  0.0734  0.2514
 2704W        W 6448   5.992   5.703   2.063  0.2316  0.3633 -0.0088
 2705W        W 6449   1.799   3.895  11.000  0.1260 -0.1309 -0.0836
 2706W        W 6450   4.524   3.234  10.666  0.0043  0.0757  0.0753
 2707W        W 6451   4.980   6.039  11.382  0.0291  0.2626 -0.0568
 2708W        W 6452   2.543   9.224   1.137  0.3609 -0.0098  0.0714
 2709W        W 6453   2.235   5.998  10.126 -0.0143 -0.0205  0.1491
 2710W        W 6454   2.405   4.764   1.154  0.0788  0.2940 -0.1062
 2711W        W 6455   2.395   4.498   0.249 -0.0516 -0.1452 -0.0253
 2712W        W 6456   3.544   9.643   2.876  0.1244 -0.0096 -0.1516
 2713W        W 6457   6.324   6.525  10.782 -0.1953  0.0430 -0.2362
 2714W        W 6458   6.978   1.006   9.503  0.4535 -0.0038  0.3596
 2715W        W 6459   8.765   6.444   0.680  0.4432 -0.0288 -0.2460
 2716W        W 6460   7.416   4.350   4.319 -0.3300  0.3141  0.1961
 2717W        W 6461   7.758   0.197   8.865  0.3460  0.1169 -0.0916
 2718W        W 6462   5.199   9.061  11.812  0.2102 -0.3833  0.2653
 2719W        W 6463   0.997   6.577   9.665 -0.1361 -0.2415 -0.1452
 2720W        W 6464   7.976   1.055   4.361  0.3022  0.0107  0.1149
 2721W        W 6465   5.699   6.585   1.676  0.2581  0.1020 -0.0030
 2722W        W 6466   6.125   4.993   9.182  0.0495  0.2892  0.0163
 2723W        W 6467   8.031   6.216   4.438  0.1572 -0.0243  0.2061
 2724W        W 6468   9.163   6.546  10.998 -0.1190  0.1012  0.3478
 2725W        W 6469   6.445   7.133   4.878  0.2219 -0.2989 -0.0723
 2726W        W 6470   5.448   2.244   9.192 -0.0688  0.0984 -0.0615
 2727W        W 6471   2.328   0.809   1.197 -0.3724  0.2434  0.4050
 2728W        W 6472   6.478   8.148   2.278 -0.1114  0.1589  0.2468
 2729W        W 6473   3.720   5.630  12.143  0.0623 -0.0226 -0.0310
 2730W        W 6474   7.022   1.119   0.288 -0.1834 -0.1275 -0.1567
 2731W        W 6475   0.720   4.710   2.186 -0.1724  0.2709 -0.0630
 2732W        W 6476   9.425   5.435   0.033 -0.2934 -0.3284 -0.0205
 2733W        W 6477   6.000   4.389   4.101  0.2533  0.0577 -0.2472
 2734W        W 6478   2.535   4.586   1.721 -0.1877 -0.2790  0.3281
 2735W        W 6479   8.584   8.073  10.524 -0.1595 -0.1637  0.1478
 2736W        W 6480   8.847   4.830   1.019  0.1810 -0.0152  0.0601
 2737W        W 6481   1.026   9.896   0.582 -0.3280  0.0875 -0.1351
 2738W        W 6482   8.959   0.989   2.781 -0.1199 -0.0410  0.0633
 2739W        W 6483   7.489   1.959   1.165  0.0563 -0.2468  0.2721
 2740W        W 6484   6.565   8.195   1.173  0.0018 -0.0527  0.2882
 2741W        W 6485   6.342   2.900   8.561 -0.1547  0.3118  0.1728
 2742W        W 6486   7.367   9.386   5.262 -0.1474  0.2375 -0.3263
 2743W        W 6487   8.413   8.489   4.223  0.0248 -0.3943  0.0419
 2744W        W 6488   2.611   6.600  12.351  0.2495  0.3829 -0.0043
 2745W        W 6489   8.521   3.805  12.114  0.1413  0.0466  0.1204
 2746W        W 6490   8.264   6.849   3.704 -0.2329 -0.0158  0.1430
 2747W        W 6491   6.150   6.241  10.172 -0.0028 -0.0041 -0.1663
 2748W        W 6492   1.563   8.723  12.707 -0.0288  0.3458  0.2651
 2749W        W 6493   0.877   0.859   2.938 -0.0237 -0.1474  0.1665
 2750W        W 6494   6.018   4.707   8.729 -0.1132  0.3628 -0.0550
 2751W        W 6495   2.962   7.328   2.511  0.1578 -0.1247 -0.2349
 2752W        W 6496   2.580   5.165   9.694  0.1241  0.2415  0.3495
 2753W        W 6497   6.521   6.039   1.499  0.3531 -0.0541  0.2581
 2754W        W 6498   2.584   7.253  10.923  0.2584 -0.1577  0.2482
 2755W        W 6499   3.657   1.898   9.871  0.0585 -0.0407  0.2153
 2756W        W 6500   8.848   1.973   9.230  0.4546  0.0714  0.0538
 2757W        W 6501   6.280   5.814  11.842 -0.0971  0.0797  0.0994
 2758W        W 6502   9.218   2.257  12.513  0.0114  0.1413 -0.1398
 2759W        W 6503   3.100   5.598   2.773  0.1002 -0.2604  0.1662
 2760W        W 6504   1.393   0.946  11.384 -0.0650 -0.1373 -0.1124
 2761W        W 6505   8.139   6.501   1.326  0.2030  0.0229  0.0252
 2762W        W 6506   5.466   1.800   9.438  0.1883  0.1021 -0.2762
 2763W        W 6507   2.275   0.460   3.805  0.1280  0.0475 -0.2264
 2764W        W 6508   7.694   8.615   0.653 -0.3746 -0.3437  0.1869
 2765W        W 6509   4.330   3.830  11.270 -0.0449  0.0236 -0.0712
 2766W        W 6510   9.689   1.066   0.735 -0.4357  0.0280  0.1501
 2767W        W 6511   0.526   3.673   2.155  0.3352 -0.1238  0.2302
 2768W        W 6512   7.847   9.300   9.570 -0.0878  0.1057 -0.3900
 2769W        W 6513   6.301   4.455   8.999 -0.0110 -0.0443 -0.0301
 2770W        W 6514   9.310   1.737  10.081  0.2005  0.0417  0.2535
 2771W        W 6515   4.367   1.251   3.715  0.0876  0.0690  0.0169
 2772W        W 6516   7.192   8.646   0.750  0.2963 -0.2923  0.0634
 2773W        W 6517   4.824   2.594   3.462 -0.2773  0.2380  0.2459
 2774W        W 6518   4.003   2.380  12.681 -0.0076 -0.3190 -0.0891
 2775W        W 6519   7.918   5.080   2.796  0.4026  0.2444 -0.0461
 2776W        W 6520   7.261   5.291   0.955 -0.1710 -0.0070  0.3374
 2777W        W 6521   2.575   9.418  10.018  0.1926 -0.0439  0.1279
 2778W        W 6522   7.696   9.150   1.816  0.5040  0.3909  0.1104
 2779W        W 6523   2.981   6.522   2.978 -0.1977  0.1060 -0.2348
 2780W        W 6524   7.414   4.870   1.114 -0.1130 -0.0173 -0.0161
 2781W        W 6525   0.195   8.612   8.808 -0.0303  0.0539  0.2761
 2782W        W 6526   0.636   2.240   3.779  0.0651  0.1575  0.1773
 2783W        W 6527   4.438   8.846   2.625  0.1630  0.2840  0.1031
 2784W        W 6528   4.420   4.741  11.343  0.0608  0.1775  0.0198
 2785W        W 6529   1.221   3.046   2.863 -0.2000 -0.0638 -0.0307
 2786W        W 6530   1.090   8.055  12.036 -0.1661 -0.4730  0.0684
 2787W        W 6531   5.270   5.989  11.844  0.0612 -0.3531 -0.3049
 2788W        W 6532   1.858   9.006   9.469 -0.2007  0.0982 -0.1363
 2789W        W 6533   6.493   0.310   1.960 -0.2401 -0.2175 -0.0885
 2790W        W 6534   7.392   7.978   0.297  0.3748 -0.0545  0.0490
 2791W        W 6535   9.408   6.714   9.088  0.0541  0.1813  0.0564
 2792W        W 6536   7.999   5.850   2.054  0.0680  0.0939  0.3354
 2793W        W 6537   2.135   8.272   3.226  0.0551  0.0350 -0.0063
 2794W        W 6538   7.039   1.330   3.914  0.0815  0.1491  0.2161
 2795W        W 6539   9.479   9.325   2.222 -0.2686  0.0861 -0.0302
 2796W        W 6540   9.580   1.374   9.214 -0.0372 -0.0148  0.1632
 2797W        W 6541   5.341   4.585   3.466 -0.2957  0.1140 -0.1276
 2798W        W 6542   5.321   7.811  11.229  0.1306 -0.0368  0.1860
 2799W        W 6543   8.327   3.367   0.574  0.5201 -0.0681 -0.2061
 2800W        W 6544   2.572   2.968   9.142  0.0074 -0.1030  0.1740
 2801W        W 6545   6.806   1.540   2.503  0.1368  0.0515 -0.1596
 2802W        W 6546   3.302   6.320   9.498  0.0139  0.3446 -0.0165
 2803W        W 6547   6.556   4.695   0.962  0.1152 -0.2226 -0.0300
 2804W        W 6548   1.633   9.343  10.526  0.1727 -0.1920 -0.3942
 2805W        W 6549   4.128   3.508  10.466  0.0930 -0.2689 -0.1934
 2806W        W 6550   4.127   0.319   2.699  0.1797 -0.0647  0.0023
 2807W        W 6551   7.120   8.564   3.883  0.3056 -0.0515 -0.0855
 2808W        W 6552   8.048   6.012  12.664  0.0039 -0.1824 -0.1437
 2809W        W 6553   8.313   1.125   3.963  0.0362  0.0465  0.4037
 2810W        W 6554   1.486   3.028   0.595 -0.1027 -0.0386  0.0844
 2811W        W 6555   0.549   0.977  12.763 -0.0681  0.0591 -0.0409
 2812W        W 6556   7.678   9.206   4.225  0.0208 -0.1544 -0.0213
 2813W        W 6557   9.002   3.620   4.859  0.0572 -0.2299 -0.0983
 2814W        W 6558   5.438   1.957   0.575  0.1066 -0.0818 -0.0192
 2815W        W 6559   2.687   4.476   0.834 -0.2221 -0.1529  0.1156
 2816W        W 6560   5.711   5.815   0.349  0.1476  0.0649  0.1394
 2817W        W 6561   1.966   3.672  10.032 -0.1238  0.0521 -0.0528
 2818W        W 6562   8.523   6.341   2.657  0.1107 -0.2512 -0.0297
 2819W        W 6563   9.597   4.710   2.114  0.4006  0.1794 -0.0869
 2820W        W 6564   3.733   1.865   3.276 -0.1481 -0.0464 -0.0483
 2821W        W 6565   4.117   7.070   4.371 -0.1782  0.2201 -0.2481
 2822W        W 6566   0.757   6.577   1.990  0.2168  0.3667 -0.4401
 2823W        W 6567   7.765   7.828   0.641 -0.1003 -0.2652 -0.2229
 2824W        W 6568   4.821   8.648   3.707  0.0636 -0.0865  0.1704
 2825W        W 6569   3.768   5.295  11.698  0.4250 -0.0488  0.2418
 2826W        W 6570   9.111   0.746  10.072  0.0328  0.0175 -0.1333
 2827W        W 6571   4.638   5.611   3.219 -0.0901 -0.1282  0.0769
 2828W        W 6572   0.660   1.606   3.387  0.0040  0.0699  0.4413
 2829W        W 6573   9.167   2.586   2.128  0.0597  0.2069  0.3328
 2830W        W 6574   4.449   7.594   0.248  0.4392 -0.1177 -0.1855
 2831W        W 6575   4.365   8.127  11.746  0.0250  0.1513  0.4333
 2832W        W 6576   3.883   7.632   9.786 -0.1111  0.1044 -0.1267
 2833W        W 6577   5.419   1.200   3.836 -0.0114 -0.3613  0.2029
 2834W        W 6578   1.451   5.309  11.039  0.1626  0.1233 -0.0438
 2835W        W 6579   2.708   3.205  11.719  0.1248 -0.1601 -0.1435
 2836W        W 6580   6.054   2.543   4.378  0.0196 -0.1294  0.1055
 2837W        W 6581   4.255   0.412   4.084  0.2117  0.0872  0.0933
 2838W        W 6582   4.312   5.254   3.149  0.1266 -0.3584  0.2271
 2839W        W 6583   1.756   2.843   0.122  0.1950 -0.1437 -0.0542
 2840W        W 6584   3.754   9.878   7.764  0.1392 -0.0768  0.1129
 2841W        W 6585   8.518   6.032   0.019 -0.0271  0.0317 -0.1352
 2842W        W 6586   8.853   9.617  11.497  0.2648 -0.1934  0.2065
 2843W        W 6587   4.328   3.037   0.350 -0.0655 -0.0655 -0.0813
 2844W        W 6588   3.238   9.405   2.533  0.1196 -0.0195  0.0396
 2845W        W 6589   4.223   5.539   0.103 -0.0134  0.1552  0.3590
 2846W        W 6590   5.751   7.219   9.071 -0.2327 -0.0426 -0.2818
 2847W        W 6591   3.469   5.655  10.369  0.0136  0.2606 -0.5103
 2848W        W 6592   5.675   7.631   2.137 -0.1098  0.2232  0.1393
 2849W        W 6593   4.073   5.777   2.012  0.2588 -0.0962 -0.0169
 2850W        W 6594   0.860   6.205   1.124  0.1939 -0.1978 -0.0495
 2851W        W 6595   9.213   8.097  11.806 -0.2867  0.0195 -0.3580
 2852W        W 6596   7.694   3.191  10.696 -0.1438  0.0511 -0.0165
 2853W        W 6597   3.361   8.769   9.296 -0.0891  0.1172 -0.0232
 2854W        W 6598   4.110   7.148  10.672  0.1318 -0.0423  0.1561
 2855W        W 6599   8.052   4.762   0.266  0.1287  0.2677  0.0174
 2856W        W 6600   1.641   0.048  12.484  0.0229 -0.0013 -0.0814
 2857W        W 6601   3.910   6.742   3.131 -0.3802 -0.1907 -0.0138
 2858W        W 6602   8.047   7.516   2.020  0.2320 -0.3079 -0.0424
 2859W        W 6603   3.925   3.925   9.710  0.1585  0.0328  0.0943
 2860W        W 6604   1.257   2.174   9.329 -0.2410  0.2705  0.0459
 2861W        W 6605   3.716   1.894  11.721 -0.1148  0.1505 -0.0918
 2862W        W 6606   2.139   1.752   4.627  0.4377  0.0585  0.0255
 2863W        W 6607   8.750   6.531  10.729 -0.1277  0.0083  0.0473
 2864W        W 6608   3.368   2.327  12.586  0.2179  0.0082 -0.0953
 2865W        W 6609   8.559   7.294  10.882 -0.0991 -0.2055 -0.1487
 2866W        W 6610   0.970   2.418   9.857  0.3118 -0.0174  0.2255
 2867W        W 6611   4.376   1.025   9.851 -0.0326 -0.0989 -0.0720
 2868W        W 6612   9.317   4.916   8.829  0.1171 -0.2290 -0.0078
 2869W        W 6613   8.736   8.702  11.581  0.3025 -0.0215 -0.0419
 2870W        W 6614   7.565   3.722   1.943  0.0034  0.1816 -0.2742
 2871W        W 6615   2.824   9.251   1.619  0.2352 -0.1294 -0.2493
 2872W        W 6616   3.743   6.216   9.982  0.0865 -0.0703 -0.0176
 2873W        W 6617   2.970   7.209  10.542  0.0843  0.0570  0.0151
 2874W        W 6618   6.939   0.454   9.800 -0.0505 -0.1209 -0.4356
 2875W        W 6619   4.026   8.751  11.254 -0.1050 -0.0551  0.1181
 2876W        W 6620   2.863   8.548   0.577 -0.0843  0.5887 -0.3554
 2877W        W 6621   0.525   9.244  10.668  0.4528  0.1181  0.0693
 2878W        W 6622   0.010   7.009  12.497  0.1475  0.4307 -0.1612
 2879W        W 6623   8.048   8.948  11.605  0.0245 -0.0035 -0.0922
 2880W        W 6624   9.054   6.944   1.318  0.1083  0.2147 -0.1504
 2881W        W 6625   9.808   7.341   2.912  0.4009  0.3227  0.1345
 2882W        W 6626   3.827   7.937   2.855 -0.3890  0.4826 -0.1606
 2883W        W 6627   2.961   2.568   2.244 -0.1705 -0.1340 -0.3422
 2884W        W 6628   3.483   8.632  10.896 -0.0619 -0.0385  0.0782
 2885W        W 6629   5.221   1.053   3.419  0.0939 -0.3225  0.2839
 2886W        W 6630   5.209   5.942   9.804  0.1608  0.0132 -0.3361
 2887W        W 6631   1.458   4.982  11.942 -0.0625  0.1476  0.0956
 2888W        W 6632   9.564   4.435   3.995  0.0605 -0.2199 -0.0899
 2889W        W 6633   8.179   7.856   0.263  0.0454  0.4243  0.0535
 2890W        W 6634   5.661   1.425   3.478 -0.2076  0.0402  0.1943
 2891W        W 6635   3.242   9.765   9.481 -0.2762 -0.2695 -0.1159
 2892W        W 6636   6.186   0.857   4.593  0.0041  0.2568  0.0686
 2893W        W 6637   5.071   8.692  11.382 -0.1080  0.0353  0.0603
 2894W        W 6638   4.425   9.490  10.297 -0.0517  0.1163 -0.0362
 2895W        W 6639   6.810   2.872  11.427  0.2586  0.4773 -0.1610
 2896W        W 6640   4.700   7.600   8.379 -0.3544 -0.1088  0.2615
 2897W        W 6641   2.454   7.995   2.887  0.0257 -0.0073  0.0253
 2898W        W 6642   9.455   7.729   2.003  0.3100 -0.0904  0.2053
 2899W        W 6643   3.678   8.228  10.216 -0.1971  0.0399 -0.2608
 2900W        W 6644   6.597   7.921   3.109  0.3911 -0.2259 -0.2133
 2901W        W 6645   4.477   1.305  10.315 -0.3319  0.0287  0.4530
 2902W        W 6646   2.186   0.848  12.588  0.1340  0.1928 -0.2462
 2903W        W 6647   9.313   3.736   0.154 -0.0724  0.0582 -0.2563
 2904W        W 6648   7.335   3.966   0.171 -0.1070 -0.0007 -0.1598
 2905W        W 6649   6.526   3.434   0.366  0.0572  0.0781  0.0496
 2906W        W 6650   0.019   7.679   1.391 -0.0582 -0.1579 -0.0061
 2907W        W 6651   9.614   1.520   8.594 -0.0672  0.1808  0.1435
 2908W        W 6652   9.018   8.825   2.927 -0.0473 -0.0659  0.0031
 2909W        W 6653   1.447   9.684  11.590  0.0004 -0.1970 -0.2672
 2910W        W 6654   0.392   2.554   1.261  0.0468  0.0790  0.2783
 2911W        W 6655   0.998   9.954   1.995  0.2103  0.0957 -0.1174
 2912W        W 6656   9.466   1.095  10.064 -0.0477 -0.2844  0.1271
 2913W        W 6657   4.735   3.450   2.730 -0.3352 -0.1923 -0.3470
 2914W        W 6658   0.511   8.069   9.761 -0.1294  0.3754 -0.4331
 2915W        W 6659   7.035   0.695   9.024  0.1239 -0.1063  0.1829
 2916W        W 6660   4.317   2.838  10.348 -0.3710 -0.0167 -0.0744
 2917W        W 6661   7.140   9.471  11.140  0.0970  0.2586 -0.2176
 2918W        W 6662   0.253   6.802  11.102 -0.2044  0.2643  0.0570
 2919W        W 6663   6.544   9.654   3.352 -0.0459 -0.4339 -0.3327
 2920W        W 6664   2.737   4.327   9.138  0.3580 -0.2613  0.0062
 2921W        W 6665   2.963   3.468  12.374  0.0493  0.0820  0.2245
 2922W        W 6666   2.541   9.453   0.190  0.1084 -0.3293  0.5032
 2923W        W 6667   4.634   0.343   3.681 -0.3587 -0.1619 -0.1740
 2924W        W 6668   9.017   8.577  11.954  0.0627  0.1971 -0.1951
 2925W        W 6669   8.077   0.914   3.038  0.0158  0.1173 -0.0979
 2926W        W 6670   5.899   7.523  12.235 -0.1022  0.1110 -0.0261
 2927W        W 6671   4.937   4.160   3.615  0.1224 -0.1294 -0.1344
 2928W        W 6672   4.293   9.113   2.152  0.1613  0.1233 -0.3320
 2929W        W 6673   1.708   4.577   2.171  0.2302 -0.2784  0.1683
 2930W        W 6674   3.795   2.916   0.623  0.1078 -0.2126  0.0941
 2931W        W 6675   0.732   1.334   2.144  0.0574  0.0512 -0.2231
 2932W        W 6676   5.085   2.698  11.591 -0.2085 -0.1618  0.2206
 2933W        W 6677   7.811   5.016  10.266  0.1886  0.1491 -0.0944
 2934W        W 6678   3.013   0.904  12.673 -0.0145  0.0286  0.0654
 2935W        W 6679   0.205   8.644   0.242 -0.4146 -0.0157 -0.0228
 2936W        W 6680   2.576   3.045  12.257 -0.0470 -0.2184 -0.2676
 2937W        W 6681   5.385   6.793   9.203 -0.0386  0.0894  0.0124
 2938W        W 6682   7.670   6.657   2.170  0.2190  0.0436 -0.1853
 2939W        W 6683   8.722   5.864   0.421  0.2901  0.1995  0.1728
 2940W        W 6684   7.151   8.468   0.281  0.2183 -0.0383 -0.2404
 2941W        W 6685   2.930   1.728  10.483 -0.1469 -0.0328  0.2702
 2942W        W 6686   7.662   8.128   1.342  0.0345 -0.0203 -0.0992
 2943W        W 6687   7.395   5.896   2.968 -0.0208 -0.1171 -0.1515
 2944W        W 6688   8.816   9.286   3.061 -0.2670 -0.0585  0.1687
 2945W        W 6689   3.855   3.823   3.269 -0.3771  0.0048  0.1604
 2946W        W 6690   1.873   4.785   9.290  0.2415 -0.1801  0.0561
 2947W        W 6691   4.681   6.923   0.182  0.3934  0.0461 -0.2199
 2948W        W 6692   6.642   4.414   2.148 -0.2366 -0.1454 -0.1904
 2949W        W 6693   8.905   0.780   9.034  0.2396 -0.5203 -0.0683
 2950W        W 6694   2.489   8.060   0.796  0.1774  0.0793 -0.0337
 2951W        W 6695   8.486   7.281  12.236 -0.0501  0.0528 -0.3433
 2952W        W 6696   2.837   4.769   2.080  0.0921 -0.2555  0.2168
 2953W        W 6697   3.304   5.475   0.809 -0.3675 -0.0913  0.1504
 2954W        W 6698   8.532   6.588   1.662  0.3763  0.1937 -0.0476
 2955W        W 6699   2.691   7.182  12.233  0.2141 -0.2026  0.0996
 2956W        W 6700   6.546   8.383   4.579  0.0825 -0.1790 -0.0040
 2957W        W 6701   6.695   3.052  10.774  0.2712 -0.3994 -0.0079
 2958W        W 6702   3.317   0.278   9.301 -0.2614  0.0553  0.1314
 2959W        W 6703   1.342   7.756  12.665  0.4657 -0.1583  0.1493
 2960W        W 6704   7.230   3.558   9.379  0.0145 -0.0043  0.1807
 2961W        W 6705   5.683   3.055  11.615 -0.2025  0.2439  0.1664
 2962W        W 6706   9.787   1.838   3.975 -0.2067  0.0428 -0.2702
 2963W        W 6707   0.350   3.128   0.029  0.0211  0.0389  0.2660
 2964W        W 6708   0.854   6.281  12.157  0.0276  0.2822 -0.1159
 2965W        W 6709   3.387   4.759   9.867 -0.0600  0.3147 -0.0246
 2966W        W 6710   9.259   9.660   3.969 -0.1703 -0.0519  0.1974
 2967W        W 6711   6.359   9.298   3.726  0.1621  0.0050 -0.2696
 2968W        W 6712   3.836   3.422   9.382 -0.3587 -0.2572 -0.0363
 2969W        W 6713   6.688   1.541   9.461 -0.0561  0.1843  0.1864
 2970W        W 6714   9.834   8.387   8.346  0.2332 -0.1278  0.2513
 2971W        W 6715   6.805   0.226   5.200 -0.1800 -0.1052 -0.1946
 2972W        W 6716   5.150   5.492   3.127 -0.0017  0.0947  0.1532
 2973W        W 6717   6.337   4.704  12.328 -0.1456 -0.4688 -0.1820
 2974W        W 6718   3.499   0.963   3.051  0.1336  0.0668 -0.1949
 2975W        W 6719   7.925   8.758  10.824  0.1987  0.0467 -0.0239
 2976W        W 6720   8.911   5.478   2.571  0.4124  0.1210 -0.0996
 2977W        W 6721   8.198   1.251   8.713  0.1289  0.0599 -0.0345
 2978W        W 6722   6.990   2.532   2.767  0.4682 -0.2514 -0.0059
 2979W        W 6723   9.274   3.374  10.722 -0.1780  0.4759 -0.0282
 2980W        W 6724   1.889   9.808  10.573  0.3637 -0.0909 -0.0722
 2981W        W 6725   7.019   5.618  10.049  0.2902 -0.1948  0.0163
 2982W        W 6726   7.101   1.661   3.515  0.2092  0.2995  0.1473
 2983W        W 6727   8.979   1.249  10.070  0.2014 -0.0708  0.1259
 2984W        W 6728   9.650   3.998   9.402  0.2648  0.1782  0.2648
 2985W        W 6729   8.718   3.240   5.016  0.2775 -0.0663 -0.2802
 2986W        W 6730   8.179   2.547   1.339  0.2337  0.0233 -0.1516
 2987W        W 6731   7.546   4.660   1.955  0.0001  0.0757 -0.1754
 2988W        W 6732   5.989   4.566   9.874  0.0582 -0.0361  0.0453
 2989W        W 6733   1.629   0.597   0.398  0.3894  0.4280  0.2092
 2990W        W 6734   2.436   8.521   1.072  0.1034 -0.1634  0.2912
 2991W        W 6735   8.629   7.065   1.138 -0.1710 -0.1705  0.0499
 2992W        W 6736   6.193   6.454   9.085  0.1124 -0.3697  0.0831
 2993W        W 6737   8.762   9.784   4.091 -0.0712 -0.2478  0.0144
 2994W        W 6738   4.476   0.762   0.485  0.4765 -0.1214 -0.4689
 2995W        W 6739   2.193   1.023  12.112 -0.0349 -0.5356 -0.0997
 2996W        W 6740   7.229   2.970   3.779 -0.2919  0.1967 -0.0481
 2997W        W 6741   0.469   3.572  11.665 -0.2559 -0.0090  0.0421
 2998W        W 6742   5.381   8.300   8.653  0.1449 -0.2543 -0.0839
 2999W        W 6743   2.325   9.525   2.452  0.1586 -0.2361 -0.2074
 3000W        W 6744   3.379   7.843   9.936  0.1124  0.0388  0.3783
 3001W        W 6745   4.770   2.764   1.698  0.3263 -0.0798  0.0162
 3002W        W 6746   8.224   5.790   4.216 -0.0897  0.1486  0.4405
 3003W        W 6747   5.960   0.783  12.248  0.0525 -0.0247  0.1535
 3004W        W 6748   9.790   1.923   2.793 -0.1632 -0.1593 -0.2009
 3005W        W 6749   7.695   0.726   2.582 -0.0188 -0.0378 -0.0698
 3006W        W 6750   8.296   5.754   9.186 -0.0310 -0.1573  0.1100
 3007W        W 6751   2.966   3.365   9.464 -0.0647  0.1534  0.1575
 3008W        W 6752   5.687   6.618   4.108  0.1476  0.4019  0.0425
 3009W        W 6753   1.267   1.605   2.368  0.1860  0.0067 -0.1544
 3010W        W 6754   4.775   9.218   2.330 -0.0395  0.1155 -0.3438
 3011W        W 6755   2.520   3.641   2.758 -0.0011  0.1264 -0.3772
 3012W        W 6756   1.511   2.850  12.066 -0.2109 -0.1084  0.0400
 3013W        W 6757   8.845   6.111   4.807  0.1777  0.0811 -0.0866
 3014W        W 6758   3.985   5.772  11.653  0.0386  0.1407 -0.0371
 3015W        W 6759   2.756   9.102   4.269  0.2768 -0.0661 -0.0377
 3016W        W 6760   7.449   2.699   0.393  0.1663  0.1106  0.2987
 3017W        W 6761   1.801   7.517   2.386 -0.0956  0.1154 -0.2011
 3018W        W 6762   4.819   4.271   0.384 -0.0454  0.3779  0.1321
 3019W        W 6763   3.258   8.591   8.786  0.1262 -0.0296 -0.1006
 3020W        W 6764   9.220   1.952   2.842  0.0994  0.0976 -0.1380
 3021W        W 6765   9.227   3.211   0.307  0.1230  0.0494  0.2615
 3022W        W 6766   5.933   1.768   0.350  0.2317 -0.1975  0.1316
 3023W        W 6767   0.880   8.459  12.383  0.0272  0.0679  0.0698
 3024W        W 6768   0.435   9.827   1.243 -0.0221  0.1441  0.1893
 3025W        W 6769   7.931   6.390   8.472  0.1502 -0.0068  0.1273
 3026W        W 6770   2.787   0.529   9.533  0.1776  0.0016 -0.3192
 3027W        W 6771   4.153   1.611  11.869  0.2946  0.3384  0.0654
 3028W        W 6772   4.694   4.575  11.992  0.0671 -0.1077 -0.1132
 3029W        W 6773   7.881   8.994   5.603 -0.0238  0.1319  0.0647
 3030W        W 6774   1.246   2.344  11.930  0.0261 -0.0099 -0.1116
 3031W        W 6775   5.715   0.975   9.026  0.0411  0.1631 -0.1750
 3032W        W 6776   1.285   8.815   3.343  0.1307  0.0403 -0.2700
 3033W        W 6777   8.419   5.635  11.972 -0.0743 -0.1841 -0.1489
 3034W        W 6778   4.194   4.536  10.179 -0.0471 -0.0425 -0.2401
 3035W        W 6779   9.749   2.088  12.300  0.2822 -0.2953 -0.2088
 3036W        W 6780   2.445   1.692  10.328  0.0819  0.0787 -0.1461
 3037W        W 6781   1.494   4.179   1.274  0.2883 -0.1456  0.0731
 3038W        W 6782   7.974   4.962   3.649  0.0654  0.1139  0.2008
 3039W        W 6783   4.964   7.751  11.904  0.3335  0.5671  0.2628
 3040W        W 6784   8.438   7.393   4.417  0.1095  0.3497 -0.0141
 3041W        W 6785   3.844   8.510   1.795 -0.3968 -0.0293 -0.1328
 3042W        W 6786   1.651   0.869   4.090  0.0110 -0.0658 -0.0922
 3043W        W 6787   6.900   7.595   8.502 -0.2240  0.0023 -0.3736
 3044W        W 6788   5.449   8.357  12.644 -0.2853  0.3195  0.2293
 3045W        W 6789   0.300   9.909   4.624 -0.0404 -0.0323  0.1415
 3046W        W 6790   7.262   6.920   2.474  0.1359  0.0755  0.1675
 3047W        W 6791   6.167   5.403   2.821 -0.0284 -0.0507 -0.0685
 3048W        W 6792   6.760   8.793   4.796 -0.1193 -0.2892 -0.3205
 3049W        W 6793   9.423   6.425   1.494 -0.0916 -0.1510 -0.1934
 3050W        W 6794   2.211   3.439   0.940  0.2275  0.0734  0.0232
 3051W        W 6795   3.544   6.980   4.222 -0.3017 -0.2896  0.4151
 3052W        W 6796   1.009   0.574   2.569  0.1351 -0.0087  0.3482
 3053W        W 6797   7.108   0.671   4.543 -0.1552  0.4448  0.1463
 3054W        W 6798   1.402   9.234  11.765  0.1405 -0.1050 -0.1295
 3055W        W 6799   5.465   3.624   8.481  0.0330 -0.1642  0.1471
 3056W        W 6800   8.301   8.079   8.780  0.2230  0.1429 -0.2690
 3057W        W 6801   8.266   7.843  11.350  0.0972  0.1018 -0.4108
 3058W        W 6802   3.771   9.302   4.739 -0.0657  0.1515 -0.0549
 3059W        W 6803   4.275   6.272  10.057 -0.0552  0.0945 -0.2339
 3060W        W 6804   0.293   9.703   0.618  0.0345  0.4608  0.2203
 3061W        W 6805   2.655   5.466   1.568 -0.1157  0.0324  0.0194
 3062W        W 6806   9.292   4.932   2.526  0.1927  0.0216 -0.2836
 3063W        W 6807   9.514   1.379  10.461 -0.1058  0.1094  0.1192
 3064W        W 6808   6.106   8.620  11.722 -0.1563 -0.2005 -0.1059
 3065W        W 6809   8.016   6.012   1.376  0.0447  0.1076  0.0182
 3066W        W 6810   2.139   3.780  12.442  0.0475 -0.1278  0.1925
 3067W        W 6811   9.222   6.721   2.258  0.2597  0.1087 -0.0187
 3068W        W 6812   9.021   1.214   3.273  0.1654 -0.4383  0.0368
 3069W        W 6813   0.998   0.188   2.898  0.1028 -0.2428  0.0333
 3070W        W 6814   3.535   7.143   2.509  0.2778  0.3424 -0.1379
 3071W        W 6815   8.668   4.274  11.842  0.0208  0.2553 -0.0082
 3072W        W 6816   0.333   7.854  10.250 -0.3375 -0.0110 -0.0316
 3073W        W 6817   7.348   9.678   3.221  0.0134 -0.2515  0.0816
 3074W        W 6818   4.913   7.429  11.353  0.0613  0.0004  0.2182
 3075W        W 6819   4.019   5.910   0.535  0.0114 -0.2352  0.0375
 3076W        W 6820   3.473   1.640   3.678  0.0404 -0.0161  0.1677
 3077W        W 6821   2.113   0.305  12.559 -0.2269  0.0902  0.2976
 3078W        W 6822   3.852   9.009   9.221 -0.0572  0.0035  0.0572
 3079W        W 6823   4.061   0.409   9.179  0.2848  0.1967  0.0665
 3080W        W 6824   9.163   1.399  10.900  0.0685  0.0375 -0.1148
 3081W        W 6825   0.294   8.341  12.574 -0.1829  0.0099  0.1896
 3082W        W 6826   5.005   5.911  12.317  0.1027  0.1308 -0.0815
 3083W        W 6827   5.058   0.830  12.546  0.0283 -0.2803  0.2546
 3084W        W 6828   0.215   6.501   8.843  0.1721  0.3110 -0.2675
 3085W        W 6829   2.869   8.357   8.919 -0.1350  0.1431 -0.1097
 3086W        W 6830   0.175   2.391   9.413  0.0061  0.2938  0.1151
 3087W        W 6831   1.097   2.127   2.263 -0.1437  0.1162 -0.4037
 3088W        W 6832   5.203   3.626   2.929  0.2442 -0.2464 -0.1391
 3089W        W 6833   0.430   7.442   0.656 -0.1380 -0.0459  0.2133
 3090W        W 6834   7.710   6.203  10.363 -0.4786  0.3313  0.2660
 3091W        W 6835   8.685   9.762   3.307  0.0474  0.0365 -0.3519
 3092W        W 6836   0.963   9.485   4.178  0.1919 -0.0344 -0.0400
 3093W        W 6837   3.154   0.676   1.481 -0.0770  0.2587 -0.0682
 3094W        W 6838   8.037   9.215   3.850 -0.1327 -0.0749  0.0307
 3095W        W 6839   4.773   9.071  11.463 -0.0059  0.2120 -0.0767
 3096W        W 6840   4.128   2.565   0.423 -0.2233 -0.3033 -0.2117
 3097W        W 6841   1.644   7.291   9.359  0.7089 -0.0997 -0.0429
 3098W        W 6842   7.659   0.017  10.195 -0.3308  0.0260  0.0009
 3099W        W 6843   8.573   4.177   3.007 -0.1093 -0.1151 -0.4666
 3100W        W 6844   5.984   0.972   8.332 -0.0726  0.3273 -0.3300
 3101W        W 6845   1.674   2.694   1.815  0.3145 -0.0794  0.1076
 3102W        W 6846   8.720   1.229  10.987  0.2426 -0.3650 -0.2031
 3103W        W 6847   2.062   3.668  11.959 -0.1839  0.2831  0.1147
 3104W        W 6848   9.482   5.667   0.939 -0.2105 -0.2115  0.0582
 3105W        W 6849   1.218   6.637   9.212 -0.4422  0.2806  0.1328
 3106W        W 6850   2.049   1.798   2.116  0.0204  0.1591 -0.0277
 3107W        W 6851   1.158   2.387  11.185 -0.1765 -0.1001 -0.2951
 3108W        W 6852   5.872   0.717  12.761 -0.0210 -0.0004  0.0541
 3109W        W 6853   3.609   0.270  10.501 -0.1147 -0.0268 -0.3358
 3110W        W 6854   5.390   3.888   8.864 -0.5984 -0.0634 -0.2708
 3111W        W 6855   5.348   4.730   5.088 -0.0070 -0.1173  0.0214
 3112W        W 6856   8.589   5.703   8.826 -0.3136 -0.3527  0.2433
 3113W        W 6857   9.844   2.418  11.806 -0.3895 -0.0655  0.1196
 3114W        W 6858   2.905   1.187   8.421  0.0333  0.3301 -0.2931
 3115W        W 6859   0.930   4.972  11.923  0.1642 -0.1667 -0.0170
 3116W        W 6860   5.827   2.046   4.307  0.2434  0.1721  0.0892
 3117W        W 6861   9.161   8.764  10.069 -0.0332  0.0108 -0.0551
 3118W        W 6862   9.404   0.022   8.059  0.3193 -0.1598  0.1429
 3119W        W 6863   8.587   2.214   3.362  0.4648 -0.1778 -0.1856
 3120W        W 6864   4.249   7.945  12.333  0.0223  0.0152 -0.3449
 3121W        W 6865   0.069   2.634   0.714  0.1105 -0.0244  0.3784
 3122W        W 6866   4.048   0.490   3.553 -0.1702 -0.2317 -0.3766
 3123W        W 6867   9.035   9.249   9.323  0.1249  0.0703 -0.0933
 3124W        W 6868   8.080   5.537   8.637 -0.2397  0.0086 -0.2179
 3125W        W 6869   8.179   0.744  10.315 -0.2867  0.1989 -0.0081
 3126W        W 6870   6.130   5.673   3.305 -0.0832  0.0392 -0.0918
 3127W        W 6871   0.133   8.005   3.467 -0.2926 -0.0140  0.4324
 3128W        W 6872   8.404   4.382  10.900  0.1266 -0.0640 -0.1371
 3129W        W 6873   6.034   6.807   2.047  0.0579  0.1071 -0.2341
 3130W        W 6874   0.436   2.381   9.808 -0.0104 -0.0124  0.1868
 3131W        W 6875   8.681   8.178   2.292  0.0113  0.2644  0.0020
 3132W        W 6876   9.194   1.032  10.570 -0.2014 -0.3108  0.1950
 3133W        W 6877   1.075   7.114  10.891 -0.0278 -0.2636  0.2241
 3134W        W 6878   3.015   8.918   2.269  0.1353  0.0873  0.2593
 3135W        W 6879   6.041   9.718   3.696 -0.0842  0.1793  0.4084
 3136W        W 6880   4.730   0.133   0.617 -0.1359 -0.3523  0.1242
 3137W        W 6881   6.153   5.140   0.925  0.0008 -0.2086  0.2914
 3138W        W 6882   9.107   9.745   9.077 -0.1819 -0.1767 -0.4165
 3139W        W 6883   5.301   4.264  10.059  0.0732 -0.2077  0.1338
 3140W        W 6884   4.569   5.401  10.044  0.2751  0.0494 -0.0979
 3141W        W 6885   1.529   5.544   3.378  0.2444  0.0639  0.0411
 3142W        W 6886   2.912   8.102   9.390  0.2636 -0.0747 -0.1737
 3143W        W 6887   2.663   5.598  12.525 -0.0974  0.1587  0.0487
 3144W        W 6888   8.499   6.286   9.895 -0.0502 -0.4221  0.2054
 3145W        W 6889   4.547   0.818   4.069 -0.0392 -0.1154 -0.0302
 3146W        W 6890   9.333   5.273   3.358 -0.0467  0.0355  0.0330
 3147W        W 6891   5.685   8.473  11.960 -0.2299  0.1937 -0.0660
 3148W        W 6892   6.825   6.321  11.006 -0.2054  0.2237 -0.0891
 3149W        W 6893   9.468   2.908   9.309  0.1358  0.0528  0.0191
 3150W        W 6894   3.455   4.981   3.495  0.0544  0.0207  0.1104
 3151W        W 6895   2.228   9.439  12.548 -0.2281  0.3799  0.1543
 3152W        W 6896   2.894   3.447   3.239  0.3277 -0.3215 -0.0780
 3153W        W 6897   4.031   8.216   8.921 -0.1180  0.1033 -0.2596
 3154W        W 6898   3.738   6.470   1.793 -0.0248 -0.0277  0.0856
 3155W        W 6899   5.964   4.878   4.145  0.1870 -0.0197  0.0620
 3156W        W 6900   3.010   9.752   1.961  0.1465  0.5134  0.1700
 3157W        W 6901   7.701   4.911  12.709  0.0145  0.0016 -0.2045
 3158W        W 6902   9.536   2.866   1.776 -0.1271  0.0792 -0.2438
 3159W        W 6903   9.716   3.028   0.014 -0.1638 -0.2510 -0.1993
 3160W        W 6904   5.150   0.124   0.185 -0.2493  0.2237  0.1127
 3161W        W 6905   7.087   0.289  10.234  0.1347 -0.0176  0.2112
 3162W        W 6906   4.386   8.938  11.655  0.4563  0.0056 -0.0192
 3163W        W 6907   8.326   4.675   1.262  0.0786 -0.1759 -0.2933
 3164W        W 6908   1.395   3.523   1.932  0.0150 -0.2612  0.3564
 3165W        W 6909   6.227   3.714   0.663  0.1519  0.0045 -0.0076
 3166W        W 6910   7.350   1.998   0.544 -0.1150 -0.0583 -0.0084
 3167W        W 6911   5.757   9.910  11.874 -0.0501  0.1721  0.3115
 3168W        W 6912   5.585   4.644  10.444 -0.0155  0.0417  0.1746
 3169W        W 6913   8.587   7.113  11.706  0.3458  0.1334 -0.0423
 3170W        W 6914   6.191   2.291   3.480  0.1585  0.1314 -0.0637
 3171W        W 6915   6.844   8.884   0.410  0.0705  0.5288  0.0680
 3172W        W 6916   2.038   3.800   0.678 -0.0966 -0.1206  0.0792
 3173W        W 6917   7.294   6.946   4.805 -0.0705  0.2368  0.1728
 3174W        W 6918   4.963   9.188   0.967  0.0874  0.0257  0.0151
 3175W        W 6919   6.548   9.373  10.729 -0.0300 -0.3856  0.0773
 3176W        W 6920   7.325   8.989  12.246  0.1574 -0.1002  0.1649
 3177W        W 6921   2.520   6.952   2.572 -0.1185  0.1107  0.1412
 3178W        W 6922   3.415   7.470   0.732 -0.0143  0.0346 -0.1738
 3179W        W 6923   9.282   4.027   4.018  0.0271  0.1369 -0.0343
 3180W        W 6924   3.428   1.010  11.419 -0.2303 -0.0378  0.2436
 3181W        W 6925   2.995   0.019  10.283 -0.3937 -0.0719  0.3464
 3182W        W 6926   8.823   0.712  10.796 -0.1754  0.0050  0.0701
 3183W        W 6927   2.943   6.303   0.084  0.3120 -0.0733 -0.3432
 3184W        W 6928   7.894   4.201   3.611 -0.0610 -0.1308 -0.0331
 3185W        W 6929   9.774   3.484   0.237  0.1880  0.1861  0.0826
 3186W        W 6930   9.580   0.256  10.080 -0.1644 -0.0384 -0.1612
 3187W        W 6931   3.864   9.921  11.211 -0.2773  0.1887 -0.3844
 3188W        W 6932   2.730   5.388  11.573 -0.2332  0.0522 -0.0874
 3189W        W 6933   6.899   4.289   3.483 -0.2278  0.6124 -0.0026
 3190W        W 6934   9.847   6.930  12.020 -0.0971  0.0686 -0.4002
 3191W        W 6935   5.381   4.606   4.527 -0.1263 -0.1825  0.3752
 3192W        W 6936   8.659   4.114   3.496 -0.0497 -0.0249 -0.0209
 3193W        W 6937   4.326   3.303   2.436 -0.0345 -0.1294 -0.0668
 3194W        W 6938   3.005   9.458   0.397 -0.1375  0.1534  0.3663
 3195W        W 6939   4.294   8.172  10.699 -0.1844 -0.0028 -0.0886
 3196W        W 6940   3.372   5.183   0.345 -0.3776 -0.0215 -0.3476
 3197W        W 6941   2.450   3.028   1.418  0.0498 -0.3948 -0.2502
 3198W        W 6942   4.842   2.938  10.369 -0.0088 -0.3034  0.1023
 3199W        W 6943   6.399   4.413   4.455 -0.1595 -0.1811 -0.4034
 3200W        W 6944   8.058   5.295   2.021 -0.0589  0.2025  0.0194
 3201W        W 6945   2.343   9.592  11.959  0.1776  0.1276  0.1717
 3202W        W 6946   3.881   4.749   1.302 -0.1454  0.2065  0.0902
 3203W        W 6947   2.889   6.872  12.700 -0.2606  0.2163  0.0930
 3204W        W 6948   0.207   7.858  11.933 -0.0713  0.3098  0.0895
 3205W        W 6949   4.628   6.970   1.755 -0.1147 -0.0578 -0.0516
 3206W        W 6950   5.781   6.334   3.726 -0.0538 -0.1107 -0.1139
 3207W        W 6951   0.168   8.747   3.744 -0.3054  0.1307 -0.1008
 3208W        W 6952   8.727   9.065  12.654  0.0353 -0.0526 -0.1939
 3209W        W 6953   7.883   7.450  11.626 -0.1470 -0.0902 -0.1423
 3210W        W 6954   2.862   6.444   1.102 -0.1135  0.1045 -0.2323
 3211W        W 6955   3.690   9.455   9.063  0.0455 -0.0461 -0.0519
 3212W        W 6956   7.472   0.750   1.641  0.2678  0.4762  0.1007
 3213W        W 6957   7.359   2.915   2.366 -0.2307 -0.1643  0.0891
 3214W        W 6958   1.794   9.131  12.762  0.1590  0.0999 -0.1755
 3215W        W 6959   7.705   6.767   1.655 -0.2576 -0.2411 -0.0861
 3216W        W 6960   1.450   3.603  10.695  0.0457  0.2060  0.0485
 3217W        W 6961   3.110   0.697   9.121 -0.1819 -0.1969 -0.0896
 3218W        W 6962   9.119   9.713  10.022  0.0727  0.0515  0.4528
 3219W        W 6963   1.316   1.590   3.621 -0.0431 -0.1653 -0.1259
 3220W        W 6964   7.813   7.137   9.567 -0.0622 -0.5610  0.1359
 3221W        W 6965   4.908   5.623   5.117  0.2134 -0.0068 -0.0367
 3222W        W 6966   9.120   6.779   3.521 -0.1446  0.2193  0.0779
 3223W        W 6967   2.162   5.370   2.372  0.2220  0.0155 -0.2511
 3224W        W 6968   4.346   0.783   8.847 -0.0026 -0.2048  0.1912
 3225W        W 6969   9.105   2.789   3.226  0.1670  0.0253 -0.3867
 3226W        W 6970   0.063   2.950   2.041 -0.0053 -0.2998  0.0214
 3227W        W 6971   3.501   1.497   9.687  0.1173  0.0272 -0.0040
 3228W        W 6972   6.183   0.712   1.754 -0.0129 -0.3109 -0.1923
 3229W        W 6973   9.119   5.580   0.518  0.0202 -0.1655 -0.1879
 3230W        W 6974   4.551   8.994   0.789  0.0660  0.2110  0.1040
 3231W        W 6975   9.209   5.270   4.704  0.3074 -0.0569 -0.1448
 3232W        W 6976   8.002   6.371  10.030  0.1172  0.2727 -0.0167
 3233W        W 6977   0.522   0.091  12.496 -0.3482  0.1190 -0.1392
 3234W        W 6978   6.345   1.001   8.674 -0.2092  0.1509  0.0038
 3235W        W 6979   2.188   0.173   2.987 -0.1997  0.0832 -0.0453
 3236W        W 6980   5.149   2.792   2.188 -0.1320 -0.0301  0.0135
 3237W        W 6981   1.605   4.432   2.612  0.0317 -0.2358  0.1770
 3238W        W 6982   5.470   6.811   9.776 -0.0682 -0.1959 -0.0569
 3239W        W 6983   4.189   6.499   0.850  0.1624  0.0461  0.3305
 3240W        W 6984   9.579   1.077   0.231  0.0595  0.2388 -0.0626
 3241W        W 6985   2.494   6.170   0.546 -0.0501 -0.1054  0.2488
 3242W        W 6986   5.739   2.260   1.242  0.1332 -0.0368 -0.3433
 3243W        W 6987   7.894   1.585  12.198  0.1033 -0.2069  0.0433
 3244W        W 6988   8.514   2.412   4.440  0.0810 -0.0401  0.1270
 3245W        W 6989   8.517   0.595   4.721 -0.0773 -0.2035 -0.2257
 3246W        W 6990   7.201   9.396   1.094 -0.0091 -0.2533  0.0459
 3247W        W 6991   6.129   0.296  12.754 -0.0227  0.0097  0.0393
 3248W        W 6992   0.608   9.934  11.096  0.1505 -0.1325 -0.3109
 3249W        W 6993   4.740   8.692   4.823  0.1511 -0.0634 -0.1284
 3250W        W 6994   3.595   8.592   9.697 -0.3454 -0.0389 -0.2097
 3251W        W 6995   4.115   9.465  11.251  0.0032  0.0695  0.0087
 3252W        W 6996   5.658   3.475  11.335  0.0982 -0.2705 -0.0778
 3253W        W 6997   8.887   2.616   1.713 -0.2552 -0.0640  0.2397
 3254W        W 6998   6.216   2.229   0.161 -0.0769  0.0441 -0.1012
 3255W        W 6999   9.891   9.607   3.942  0.0752  0.1240 -0.1271
 3256W        W 7000   0.908   9.627   9.528  0.1106  0.0487  0.0310
 3257W        W 7001   3.143   0.353  11.324 -0.0345 -0.1611  0.1632
 3258W        W 7002   0.423   0.367   4.354 -0.1298 -0.1546  0.1278
 3259W        W 7003   0.028   1.132   1.591 -0.0374 -0.2912  0.4092
 3260W        W 7004   4.514   3.880   2.328  0.1038  0.0008 -0.3055
 3261W        W 7005   9.790   8.512   9.172  0.2629  0.0349 -0.2378
 3262W        W 7006   6.407   2.170  11.707 -0.1818 -0.2073  0.0810
 3263W        W 7007   1.004   2.538   0.564 -0.4705 -0.1975  0.2890
 3264W        W 7008   5.996   2.688   0.963 -0.0956 -0.1145  0.1635
 3265W        W 7009   6.800   9.891   0.626  0.0079 -0.1081  0.0703
 3266W        W 7010   6.472   2.628  12.554 -0.2109  0.3111 -0.0027
 3267W        W 7011   5.540   3.465   9.100  0.1802  0.2627 -0.0540
 3268W        W 7012   6.109   9.888  12.256  0.1884  0.2140  0.0136
 3269W        W 7013   4.067   9.498   9.361 -0.4189  0.0394  0.0935
 3270W        W 7014   3.793   1.662   1.116  0.0369 -0.0435 -0.2164
 3271W        W 7015   4.009   8.877  12.079  0.0592 -0.2950 -0.3147
 3272W        W 7016   8.738   7.511   1.361  0.0706 -0.0009 -0.1477
 3273W        W 7017   7.914   1.115   2.362 -0.1276  0.1907  0.3467
 3274W        W 7018   5.181   4.211   0.942  0.0973  0.4818 -0.3036
 3275W        W 7019   1.675   9.474   9.597  0.1060  0.3435 -0.1399
 3276W        W 7020   2.149   1.846  10.770  0.0785  0.1514 -0.0820
 3277W        W 7021   3.705   5.502   4.088 -0.0084  0.0282 -0.0778
 3278W        W 7022   2.611   9.247  12.299  0.0704 -0.1263 -0.1907
 3279W        W 7023   7.436   1.792  12.338  0.0194 -0.1840  0.1050
 3280W        W 7024   4.108   0.663   9.640 -0.1634  0.2971 -0.2222
 3281W        W 7025   4.239   1.433   2.040  0.1096 -0.1301  0.0853
 3282W        W 7026   4.852   0.932  11.578  0.2331  0.1424 -0.1258
 3283W        W 7027   1.080   0.719  10.555 -0.0724  0.0955 -0.0963
 3284W        W 7028   2.262   6.865   0.374  0.0065  0.2785 -0.0260
 3285W        W 7029   2.886   8.115   1.178 -0.0424 -0.1593  0.1044
 3286W        W 7030   9.807   1.076   7.863 -0.1305  0.0397 -0.1574
 3287W        W 7031   9.513   6.247   9.614  0.1241  0.2088 -0.1630
 3288W        W 7032   7.556   1.242  12.229 -0.0989  0.3615  0.3204
 3289W        W 7033   3.287   2.216   0.273  0.1376  0.0253 -0.4840
 3290W        W 7034   3.855   1.640   8.025 -0.0104 -0.0926  0.3773
 3291W        W 7035   4.940   1.138  10.106 -0.0544  0.2629 -0.1843
 3292W        W 7036   6.253   8.564   1.367 -0.1582 -0.0398 -0.0783
 3293W        W 7037   0.318   6.951   2.990 -0.2510  0.1059  0.0932
 3294W        W 7038   9.435   4.959  11.684  0.0979  0.0896 -0.2820
 3295W        W 7039   1.396   2.430   0.223 -0.0808 -0.4271 -0.2556
 3296W        W 7040   6.895   2.346   9.761  0.1277 -0.0338  0.3931
 3297W        W 7041   5.782   3.204   1.473  0.1120  0.0967 -0.1989
 3298W        W 7042   4.334   3.552  12.337 -0.0075 -0.2412  0.0709
 3299W        W 7043   1.412   5.851   2.169  0.2660 -0.0828 -0.0285
 3300W        W 7044   2.394   8.966  10.774  0.2394 -0.0721 -0.3653
 3301W        W 7045   8.394   7.909   4.234  0.1203  0.0495  0.0228
 3302W        W 7046   5.854   5.557   0.771  0.1465  0.0349  0.1232
 3303W        W 7047   5.788   3.052   9.370 -0.2647  0.1943 -0.0632
 3304W        W 7048   4.416   8.138   0.246 -0.3215  0.1053  0.3226
 3305W        W 7049   4.420   3.241   4.308  0.1057 -0.2087  0.0269
 3306W        W 7050   8.628   3.358   1.197  0.2635  0.0308 -0.0454
 3307W        W 7051   2.186   7.781   3.328  0.5006  0.1239 -0.4679
 3308W        W 7052   6.219   6.462   8.572 -0.1241  0.4573 -0.1997
 3309W        W 7053   7.166   3.404   1.613 -0.2528 -0.1121 -0.3882
 3310W        W 7054   1.967   4.279  12.288 -0.0057  0.2939 -0.1864
 3311W        W 7055   9.124   0.241   9.958  0.2028  0.0752 -0.0096
 3312W        W 7056   3.108   5.126   9.527 -0.2977 -0.1415 -0.0216
 3313W        W 7057   6.678   1.811   9.034 -0.0375 -0.0164  0.2358
 3314W        W 7058   8.078   2.192  11.442 -0.2581  0.1299 -0.0256
 3315W        W 7059   3.849   7.215  11.890 -0.3853 -0.2289  0.0808
 3316W        W 7060   7.473   2.907  10.351 -0.3188 -0.1120 -0.1700
 3317W        W 7061   1.226   6.713   2.102  0.1838  0.0469 -0.0184
 3318W        W 7062   7.142   1.652   0.988  0.0614  0.0728  0.3490
 3319W        W 7063   3.731   4.978   0.040  0.2540  0.3169 -0.0408
 3320W        W 7064   8.672   3.668   3.196 -0.2005  0.1858 -0.0931
 3321W        W 7065   8.274   9.163  12.055 -0.1515  0.1134 -0.0386
 3322W        W 7066   5.172   0.856   2.958  0.0336  0.0365 -0.0093
 3323W        W 7067   5.582   9.436  11.789 -0.1199 -0.0919 -0.0811
 3324W        W 7068   5.851   7.099  10.342 -0.0301 -0.0065  0.2233
 3325W        W 7069   6.277   5.240   4.080 -0.0659 -0.0110 -0.0383
 3326W        W 7070   7.983   6.350   2.383 -0.2576 -0.2808 -0.0936
 3327W        W 7071   3.835   8.091   9.767 -0.1177 -0.3244 -0.0540
 3328W        W 7072   2.320   4.549   2.148 -0.1162  0.2764 -0.2092
 3329W        W 7073   7.084   3.102   0.350 -0.1972 -0.0995  0.1659
 3330W        W 7074   5.902   3.837   1.894  0.2101  0.0418 -0.0685
 3331W        W 7075   0.552   4.202   3.476 -0.0806  0.2427  0.0782
 3332W        W 7076   3.997   2.068   1.600  0.4292  0.2085 -0.0210
 3333W        W 7077   3.719   5.699   9.908  0.0197 -0.0128  0.0115
 3334W        W 7078   9.551   4.412   9.668 -0.2321  0.2481 -0.3666
 3335W        W 7079   6.202   2.966  10.823 -0.2112  0.1461  0.1169
 3336W        W 7080   4.287   2.634  12.229  0.1326 -0.2131 -0.1685
 3337W        W 7081   5.669   8.696   0.214  0.2160  0.0136  0.2168
 3338W        W 7082   8.690   6.967   3.451  0.3379 -0.1063 -0.0153
 3339W        W 7083   2.057   8.126  10.683  0.1619 -0.0252  0.1027
 3340W        W 7084   4.129   1.008   9.283  0.1148  0.2478 -0.1114
 3341W        W 7085   8.003   4.117  11.152 -0.0195 -0.1054 -0.2949
 3342W        W 7086   5.425   6.301   3.383 -0.2817 -0.0600 -0.1741
 3343W        W 7087   6.303   1.517   9.105  0.1675  0.1281 -0.0669
 3344W        W 7088   1.665   8.533   3.320  0.2757 -0.0096 -0.1454
 3345W        W 7089   3.973   8.893   1.433  0.2240 -0.1178 -0.1266
 3346W        W 7090   5.650   6.511   8.367 -0.2130  0.0122  0.0002
 3347W        W 7091   8.480   1.199   2.627  0.3046  0.1422 -0.1024
 3348W        W 7092   7.367   3.885  10.765  0.0135 -0.2039 -0.1640
 3349W        W 7093   5.362   8.719  10.853  0.0130 -0.2220  0.1160
 3350W        W 7094   3.437   9.284   9.474 -0.2215  0.1819  0.0003
 3351W        W 7095   5.341   6.035   2.295  0.0018  0.1146  0.1275
 3352W        W 7096   1.862   6.372   9.875  0.0825  0.4001  0.2359
 3353W        W 7097   1.772   6.453  11.199 -0.1966  0.0343 -0.2056
 3354W        W 7098   2.685   1.575  11.422  0.1541 -0.0073  0.1611
 3355W        W 7099   7.383   0.257   4.428 -0.0361  0.0291  0.0920
 3356W        W 7100   7.826   3.641  10.415  0.0044  0.2954 -0.3022
 3357W        W 7101   0.860   8.993   9.253 -0.0844 -0.2884 -0.2263
 3358W        W 7102   4.062   3.337   1.539 -0.0840 -0.0399 -0.1637
 3359W        W 7103   3.382   2.276   9.986  0.1816  0.0115 -0.1232
 3360W        W 7104   9.059   6.117  10.676 -0.0352  0.2296  0.0899
 3361W        W 7105   8.875   0.505   9.552  0.0610 -0.2983 -0.0656
 3362W        W 7106   7.828   0.571   3.439 -0.0333 -0.1004 -0.2147
 3363W        W 7107   0.004   9.216   3.579 -0.1980  0.0407 -0.1668
 3364W        W 7108   3.887   7.030  12.460 -0.1038  0.3471 -0.2846
 3365W        W 7109   7.049   6.099  12.626 -0.0795  0.0508  0.0434
 3366W        W 7110   8.645   2.858   5.374 -0.0234 -0.1217 -0.1086
 3367W        W 7111   1.643   5.710  11.249 -0.1141 -0.1081  0.2591
 3368W        W 7112   8.353   2.898  10.087  0.3656  0.0802  0.0187
 3369W        W 7113   2.492   9.490   3.303  0.0262  0.1626  0.0834
 3370W        W 7114   9.821   4.028  11.213  0.0546 -0.0418 -0.1821
 3371W        W 7115   9.683   0.586  11.395 -0.0421  0.3833  0.1184
 3372W        W 7116   5.239   3.648   9.871  0.0994 -0.0163 -0.0932
 3373W        W 7117   5.899   4.704   0.987 -0.1473 -0.0940 -0.0412
 3374W        W 7118   0.254   5.932  11.940  0.2065 -0.2443  0.2193
 3375W        W 7119   9.636   0.529   0.545 -0.1451 -0.0040 -0.1086
 3376W        W 7120   2.194   0.628  11.714  0.5020  0.0363  0.0600
 3377W        W 7121   8.673   4.395   0.225  0.2689 -0.1976  0.0102
 3378W        W 7122   4.827   8.101  10.077  0.1870  0.0690 -0.0281
 3379W        W 7123   8.460   6.295  12.331 -0.2261 -0.0464 -0.2416
 3380W        W 7124   8.683   2.462   9.172  0.1048 -0.0110 -0.2354
 3381W        W 7125   3.592   0.122  11.606  0.1925  0.2913 -0.0373
 3382W        W 7126   0.028   4.628   2.844  0.1235 -0.1211  0.0384
 3383W        W 7127   8.852   8.311   2.985 -0.1565  0.0166  0.1171
 3384W        W 7128   2.181   8.445   0.597  0.0524  0.0069 -0.2326
 3385W        W 7129   4.581   3.783  10.849  0.2022 -0.4146 -0.0645
 3386W        W 7130   9.241   4.336   2.220  0.2819 -0.2586 -0.1962
 3387W        W 7131   8.514   6.165   1.022  0.0379  0.3638  0.3306
 3388W        W 7132   5.148   1.578   3.657  0.1840 -0.1324  0.0646
 3389W        W 7133   9.501   8.262  10.815  0.1691 -0.1145 -0.0094
 3390W        W 7134   3.104   5.558   9.995 -0.0157 -0.0245 -0.0095
 3391W        W 7135   9.030   8.969  11.261  0.0068 -0.2954 -0.1645
 3392W        W 7136   4.900   2.648   2.995  0.1398 -0.1527  0.2400
 3393W        W 7137   6.520   7.951   8.825 -0.0940  0.4025 -0.1947
 3394W        W 7138   6.420   5.443   2.069  0.2116  0.0542 -0.1942
 3395W        W 7139   4.958   5.550   4.589  0.1272  0.1439  0.2878
 3396W        W 7140   0.271   5.595   2.842  0.0707  0.1917 -0.0951
 3397W        W 7141   6.665   9.069   3.297 -0.0420 -0.1801 -0.0203
 3398W        W 7142   6.810   8.011   9.772  0.3447  0.2682 -0.2599
 3399W        W 7143   0.425   8.902   1.304 -0.0787 -0.0872 -0.0052
 3400W        W 7144   4.569   5.014   0.676  0.1988  0.0193 -0.3857
 3401W        W 7145   7.392   5.331   9.367  0.0674  0.3336 -0.1587
 3402W        W 7146   8.030   4.321   3.062  0.0450  0.0810  0.0213
 3403W        W 7147   5.377   7.235   9.566 -0.1070 -0.1366  0.2483
 3404W        W 7148   1.051   7.642  11.666  0.1998  0.1456  0.4360
 3405W        W 7149   6.593   3.788  11.884  0.2692  0.0861 -0.0724
 3406W        W 7150   6.615   9.314   1.024 -0.0333 -0.1188  0.0770
 3407W        W 7151   5.940   8.824   3.932 -0.0961 -0.0966 -0.2280
 3408W        W 7152   7.256   8.214  10.018 -0.0419  0.2749  0.0053
 3409W        W 7153   4.772   3.086  11.437 -0.0267 -0.1175  0.1291
 3410W        W 7154   5.290   7.959   3.967  0.0953 -0.0864  0.3591
 3411W        W 7155   6.258   2.574   1.399 -0.0646 -0.0935 -0.1170
 3412W        W 7156   6.778   5.658   1.729 -0.1533  0.1503 -0.0808
 3413W        W 7157   6.014   0.449   9.186 -0.3799  0.0437 -0.2498
 3414W        W 7158   6.102   0.325   3.936 -0.1355  0.0461 -0.1950
 3415W        W 7159   2.146   0.983   0.542  0.2679  0.3694  0.2057
 3416W        W 7160   1.669   2.257   0.804 -0.3682  0.3134 -0.0085
 3417W        W 7161   5.184   0.663  10.703  0.1787 -0.0610 -0.0928
 3418W        W 7162   2.352   9.389   1.900 -0.0167  0.0021 -0.3065
 3419W        W 7163   4.549   7.012   9.214 -0.2663 -0.3002  0.2464
 3420W        W 7164   8.126   5.657   9.625  0.1743 -0.0419 -0.1311
 3421W        W 7165   3.692   7.395   1.370  0.0401  0.1260 -0.1114
 3422W        W 7166   6.283   5.783   2.420  0.0020 -0.0313  0.2047
 3423W        W 7167   4.998   4.723   2.733  0.1403  0.0096 -0.3993
 3424W        W 7168   2.188   8.021   8.920 -0.0509 -0.0858  0.1534
 3425W        W 7169   6.742   9.353   0.508 -0.1827 -0.2563 -0.1701
 3426W        W 7170   3.058   1.420   0.055 -0.0108 -0.1126  0.1348
 3427W        W 7171   4.740   2.997   2.414 -0.2131  0.2777  0.0691
 3428W        W 7172   8.833   0.456   8.510  0.2162 -0.1493  0.1001
 3429W        W 7173   4.680   4.620   2.214  0.2364 -0.1120  0.1200
 3430W        W 7174   7.463   6.473   3.847  0.2121  0.5936  0.4423
 3431W        W 7175   4.946   8.740   0.571 -0.2627  0.2211  0.1472
 3432W        W 7176   7.383   9.456  11.600  0.0662 -0.0762  0.1216
 3433W        W 7177   9.088   7.943  10.418 -0.0146 -0.3395  0.1831
 3434W        W 7178   7.219   2.801   3.220 -0.0378 -0.4685 -0.1452
 3435W        W 7179   4.523   7.251  12.573  0.4062  0.1903 -0.2443
 3436W        W 7180   3.143   7.764  11.339 -0.1211  0.1991  0.1404
 3437W        W 7181   7.409   0.816  11.088  0.2360  0.0808  0.2171
 3438W        W 7182   8.329   9.619   9.551 -0.0078 -0.1231  0.0085
 3439W        W 7183   6.911   6.450   9.980 -0.2862  0.1829  0.1664
 3440W        W 7184   5.908   0.551  10.454  0.2879 -0.0327 -0.0257
 3441W        W 7185   8.404   9.958  10.753  0.1990 -0.1043 -0.1075
 3442W        W 7186   4.310   0.277   0.325  0.3126 -0.1467 -0.5124
 3443W        W 7187   3.145   4.366   0.703  0.2364 -0.1244 -0.1934
 3444W        W 7188   5.825   8.272   0.397 -0.0827 -0.0250  0.0299
 3445W        W 7189   8.925   1.501   2.758 -0.1431  0.1844  0.4186
 3446W        W 7190   8.151   2.281   4.140 -0.1645  0.0520  0.0172
 3447W        W 7191   3.907   4.077   8.770  0.2317 -0.0053  0.0539
 3448W        W 7192   6.989   8.358   9.143  0.1245 -0.0052 -0.2023
 3449W        W 7193   7.400   4.344   9.817 -0.1087 -0.2214  0.3830
 3450W        W 7194   5.344   2.099   9.789 -0.1754  0.0044  0.0670
 3451W        W 7195   7.519   2.137   2.783  0.2350 -0.2887 -0.3153
 3452W        W 7196   5.476   5.315   0.254  0.3082  0.2169 -0.3530
 3453W        W 7197   2.914   3.471  10.383 -0.2180  0.3924 -0.3267
 3454W        W 7198   2.508   8.449  10.501  0.0023 -0.1471  0.1061
 3455W        W 7199   1.754   3.814   1.569  0.0482  0.2195  0.0741
 3456W        W 7200   2.371   7.039  11.419  0.1705  0.3464  0.0498
 3457W        W 7201   9.528   2.326   2.980  0.2062  0.0188  0.1070
 3458W        W 7202   5.668   5.969   9.581  0.0526  0.0118  0.0522
 3459W        W 7203   5.364   3.105  10.403  0.2414  0.1434 -0.0258
 3460W        W 7204   8.030   0.046   1.947  0.1176  0.0685  0.3519
 3461W        W 7205   6.691   4.730   3.510 -0.0300 -0.0697 -0.1011
 3462W        W 7206   3.225   6.341  11.820  0.1524 -0.1010 -0.0913
 3463W        W 7207   4.049   4.617   0.880 -0.0953  0.0337  0.4064
 3464W        W 7208   9.126   8.720   1.625  0.0523 -0.2087 -0.0740
 3465W        W 7209   7.770   4.177   0.394  0.2588 -0.2904 -0.0443
 3466W        W 7210   6.713   2.560   8.376 -0.0849  0.1175 -0.0184
 3467W        W 7211   1.321   5.756  12.710 -0.0744 -0.2728  0.0861
 3468W        W 7212   3.101   3.408  11.876 -0.0369  0.2225  0.0486
 3469W        W 7213   5.269   6.392   9.531  0.0630  0.0866  0.2588
 3470W        W 7214   8.840   0.304   3.126 -0.1372 -0.1744 -0.2403
 3471W        W 7215   5.102   5.209  12.189 -0.0186 -0.3279 -0.0899
 3472W        W 7216   6.140   4.549  10.539 -0.1197  0.0290 -0.0847
 3473W        W 7217   9.657   0.278  10.635 -0.3335  0.0264  0.0814
 3474W        W 7218   9.943   7.172  11.348  0.1497 -0.1345  0.3084
 3475W        W 7219   9.308   4.817  10.102 -0.1872  0.1600 -0.0927
 3476W        W 7220   4.627   3.064   3.318 -0.0376 -0.1624 -0.0601
 3477W        W 7221   5.680   9.026   2.556 -0.0022  0.1831 -0.1078
 3478W        W 7222   1.317   7.246   1.303 -0.1347  0.2437  0.1150
 3479W        W 7223   9.137   0.783   4.114  0.1726 -0.1636 -0.1889
 3480W        W 7224   6.245   1.406  11.878  0.0160 -0.0048 -0.2132
 3481W        W 7225   7.077   0.805  11.493  0.2785  0.1741  0.2674
 3482W        W 7226   7.810   1.075   3.897 -0.1144 -0.1499 -0.0856
 3483W        W 7227   7.308   0.635   9.498 -0.3936  0.2765 -0.0238
 3484W        W 7228   8.960   0.949   8.510 -0.1099 -0.3656  0.0225
 3485W        W 7229   9.817   9.842  10.354 -0.0067  0.2589 -0.0321
 3486W        W 7230   3.174   5.018   1.010  0.1064  0.1402 -0.0746
 3487W        W 7231   2.785   6.692   0.416 -0.2358  0.1813 -0.1120
 3488W        W 7232   2.273   1.170   3.251 -0.0331 -0.0768 -0.2859
 3489W        W 7233   5.752   1.019  11.345  0.2776  0.1219  0.0014
 3490W        W 7234   0.208   1.823   9.419 -0.2661 -0.3149 -0.0299
 3491W        W 7235   5.585   4.423   0.062  0.3884 -0.0764 -0.1098
 3492W        W 7236   5.477   8.992  11.370  0.0426 -0.2369  0.1389
 3493W        W 7237   5.811   5.510   9.865  0.0421 -0.1800  0.1969
 3494W        W 7238   0.602   2.514  10.241 -0.1039  0.1105  0.3487
 3495W        W 7239   8.187   8.158  11.733 -0.3198 -0.0948 -0.0195
 3496W        W 7240   0.252   4.112  10.799 -0.0633 -0.1237  0.2566
 3497W        W 7241   6.575   1.174   2.966  0.2568  0.1105  0.2203
 3498W        W 7242   2.019   9.751  11.481  0.2086 -0.0694 -0.2356
 3499W        W 7243   7.713   8.228   2.201 -0.0517  0.3258 -0.2015
 3500W        W 7244   8.396   6.841   2.584  0.0122  0.0541  0.2331
 3501W        W 7245   1.557   0.045   3.752 -0.4032 -0.1056 -0.0889
 3502W        W 7246   9.593   0.993  10.956  0.0249 -0.1437  0.0195
 3503W        W 7247   2.310   1.514   0.889  0.0271  0.0507 -0.3649
 3504W        W 7248   9.297   4.244   3.587 -0.1124  0.1895 -0.0023
 3505W        W 7249   6.440   4.184  11.440  0.0317 -0.1574  0.0094
 3506W        W 7250   9.821   8.162   1.306  0.0798 -0.0391  0.0723
 3507W        W 7251   2.622   9.867   2.894  0.1166 -0.0999  0.1016
 3508W        W 7252   3.813   9.066   9.730  0.1307  0.3087  0.3591
 3509W        W 7253   7.312   0.158   0.843  0.1876 -0.0805  0.1218
 3510W        W 7254   9.619   7.961   3.227 -0.2317 -0.2223  0.1937
 3511W        W 7255   4.136   7.751  11.062 -0.2573  0.5476  0.3698
 3512W        W 7256   3.315   5.126   1.971  0.3112 -0.1272 -0.0481
 3513W        W 7257   6.432   6.581   4.876 -0.4002  0.0812 -0.1302
 3514W        W 7258   2.534   1.028   0.147 -0.2594  0.2306 -0.0076
 3515W        W 7259   8.286   1.879  12.318  0.2056 -0.4831 -0.0024
 3516W        W 7260   5.340   2.758  10.858  0.2869 -0.0900 -0.0960
 3517W        W 7261   0.372   3.844   9.844 -0.0924 -0.4703  0.0815
 3518W        W 7262   3.839   9.555   0.520 -0.0500  0.1171  0.0745
 3519W        W 7263   6.111   0.777   0.938  0.2585  0.3292 -0.3082
 3520W        W 7264   8.334   7.748   3.128  0.2595  0.1717 -0.2225
 3521W        W 7265   7.727   5.738   3.370 -0.0095  0.3315  0.1645
 3522W        W 7266   1.184   8.362  10.414 -0.2722 -0.2927 -0.2018
 3523W        W 7267   9.237   1.328  12.253  0.2408  0.1010  0.0431
 3524W        W 7268   6.921   3.916   9.074 -0.0312  0.1408  0.1816
 3525W        W 7269   5.619   2.847   3.724 -0.3506 -0.0570 -0.2344
 3526W        W 7270   1.545   7.581  11.775  0.0928  0.0943 -0.2798
 3527W        W 7271   8.481   6.214  10.958  0.1498  0.1107  0.1195
 3528W        W 7272   8.320   6.758   3.207  0.2220  0.4138  0.4604
 3529W        W 7273   9.654   0.706   3.368  0.0552  0.0877 -0.4407
 3530W        W 7274   5.196   6.806   3.039  0.1683  0.1246  0.0790
 3531W        W 7275   4.635   7.595   9.138 -0.1113  0.0805 -0.0343
 3532W        W 7276   3.563   1.093   0.741 -0.0458 -0.1105 -0.0679
 3533W        W 7277   7.189   1.314   2.843  0.0246  0.3439  0.0308
 3534W        W 7278   0.582   8.198  12.098 -0.3982  0.0144  0.1287
 3535W        W 7279   2.735   4.369   2.438  0.0064  0.0951  0.1633
 3536W        W 7280   9.336   1.115   4.464 -0.0576  0.0807 -0.0594
 3537W        W 7281   5.931   6.389   7.975 -0.1617  0.0737  0.1431
 3538W        W 7282   3.904   6.443  12.444 -0.1221 -0.1095  0.0950
 3539W        W 7283   2.859   8.145   3.905  0.0163 -0.2392 -0.4686
 3540W        W 7284   8.376   4.500  11.390  0.3522  0.1650  0.0579
 3541W        W 7285   4.491   3.892   0.272  0.1607  0.0394 -0.0484
 3542W        W 7286   6.032   1.633   1.826  0.2851 -0.0996  0.0000
 3543W        W 7287   7.530   4.397   2.786  0.0003 -0.2489  0.0464
 3544W        W 7288   1.952   5.052   2.036  0.1930 -0.4883 -0.1104
 3545W        W 7289   2.702   8.276   9.786  0.1020 -0.0573  0.0206
 3546W        W 7290   1.341   8.589  12.125 -0.2125 -0.2872  0.1864
 3547W        W 7291   5.533   6.328   9.943 -0.2142 -0.0697 -0.0781
 3548W        W 7292   7.448   5.911   1.587 -0.1274  0.0160 -0.2421
 3549W        W 7293   0.672   6.023   2.898 -0.0933  0.1177 -0.1775
 3550W        W 7294   8.715   6.655   2.215 -0.2479  0.0663 -0.0390
 3551W        W 7295   3.849   9.515   2.453 -0.3843 -0.0151 -0.0854
 3552W        W 7296   7.393   3.900   8.960 -0.2510  0.1490  0.0244
 3553W        W 7297   5.193   7.822   1.997  0.0532  0.3703  0.3805
 3554W        W 7298   0.175   2.436   2.152 -0.0918 -0.0112 -0.2615
 3555W        W 7299   8.466   2.918   9.125  0.1237 -0.0484 -0.0243
 3556W        W 7300   2.799   1.461   1.361  0.0023  0.2076  0.1878
 3557W        W 7301   2.746   8.396   4.325  0.4070  0.0176  0.2015
 3558W        W 7302   8.448   6.784   9.191  0.4457  0.1307 -0.2480
 3559W        W 7303   6.421   3.832   4.277  0.0759 -0.0278 -0.0465
 3560W        W 7304   8.648   8.302   0.955 -0.2556 -0.4016 -0.0016
 3561W        W 7305   0.494   3.255  11.225 -0.1041  0.1314  0.1004
 3562W        W 7306   5.934   8.879  10.100 -0.0595  0.0741  0.1897
 3563W        W 7307   1.857   4.010   2.933 -0.1245 -0.1080 -0.2353
 3564W        W 7308   7.552   3.350  12.165 -0.0331 -0.2325 -0.1003
 3565W        W 7309   0.766   6.179   0.642  0.1448  0.1581  0.0386
 3566W        W 7310   9.752   1.798   2.318 -0.1213  0.3285  0.3535
 3567W        W 7311   3.840   2.580   4.292  0.0841  0.0524 -0.1238
 3568W        W 7312   1.047   9.369   0.589 -0.2106 -0.2738 -0.0770
 3569W        W 7313   5.314   8.324  11.218 -0.0168  0.2853 -0.0924
 3570W        W 7314   6.941   9.862   4.218  0.2713  0.3834 -0.0162
 3571W        W 7315   7.921   5.829  11.511 -0.2547  0.4591 -0.1587
 3572W        W 7316   1.638   6.470   3.544  0.1827 -0.0103  0.0005
 3573W        W 7317   0.745   9.803   3.414  0.0179  0.0164  0.0123
 3574W        W 7318   5.355   8.385   3.119 -0.4522  0.2537 -0.0010
 3575W        W 7319   0.835   9.600  12.459  0.0311  0.1013  0.1092
 3576W        W 7320   6.837   0.316   9.321 -0.4285  0.0956  0.1490
 3577W        W 7321   0.323   3.527  12.475  0.1092 -0.1966  0.1821
 3578W        W 7322   4.310   2.777   0.815 -0.0726  0.1589 -0.3442
 3579W        W 7323   3.171   4.686   3.851 -0.0743 -0.2160  0.1163
 3580W        W 7324   7.379   6.318  11.651 -0.1354  0.1129 -0.0529
 3581W        W 7325   0.321   2.352  11.542  0.1309 -0.0419  0.2499
 3582W        W 7326   7.699   3.954   8.579 -0.2342  0.0327 -0.2441
 3583W        W 7327   7.861   5.498  10.272 -0.1902 -0.2823  0.3807
 3584W        W 7328   2.278   7.754   9.697 -0.2351 -0.1097  0.0097
 3585W        W 7329   7.223   8.352   1.272 -0.1418 -0.0914 -0.0199
 3586W        W 7330   2.886   4.114  10.800  0.0635  0.0408 -0.2910
 3587W        W 7331   9.035   5.440  12.446 -0.1939  0.2965 -0.1912
 3588W        W 7332   0.301   6.343   1.906  0.2666  0.1738 -0.0117
 3589W        W 7333   8.238   1.354   1.546  0.0731 -0.2422  0.1426
 3590W        W 7334   8.282   9.191   9.317 -0.2101  0.0238 -0.1739
 3591W        W 7335   5.587   6.622  11.219  0.0249  0.0515 -0.1919
 3592W        W 7336   9.521   7.489  10.535 -0.1504 -0.0660  0.0052
 3593W        W 7337   4.621   3.135   8.008 -0.0759  0.0745 -0.1991
 3594W        W 7338   4.722   9.781   3.591 -0.3174 -0.1510 -0.1376
 3595W        W 7339   7.841   0.692  10.840  0.1774  0.0038  0.1074
 3596W        W 7340   1.958   7.905   9.335 -0.3203 -0.0378 -0.1928
 3597W        W 7341   3.522   2.146   4.066 -0.2255 -0.1519 -0.1798
 3598W        W 7342   9.213   5.366  11.623 -0.0293 -0.0550  0.2123
 3599W        W 7343   5.331   9.370   9.423 -0.1590 -0.1926 -0.0670
 3600W        W 7344   4.721   2.579   4.389  0.0158  0.2013 -0.0169
 3601W        W 7345   1.617   1.289   8.847 -0.3025  0.0103 -0.2085
 3602W        W 7346   7.823   4.563   1.203 -0.0666  0.0931  0.1734
 3603W        W 7347   4.770   4.181  11.169  0.1116 -0.1178  0.1564
 3604W        W 7348   4.237   3.406  11.028 -0.0947  0.2410  0.2321
 3605W        W 7349   2.980   8.353   2.223 -0.1671 -0.0092 -0.0359
 3606W        W 7350   8.106   9.704   0.538 -0.0315  0.1241  0.0594
 3607W        W 7351   5.915   8.102   2.436 -0.0062  0.2554 -0.3542
 3608W        W 7352   6.885   2.031   4.293  0.2056 -0.3571 -0.3294
 3609W        W 7353   9.315   0.978   2.438  0.1403  0.1707  0.1017
 3610W        W 7354   2.713   6.328   1.906  0.0486  0.2604 -0.1357
 3611W        W 7355   1.571   2.681   2.765  0.1408  0.4261 -0.0604
 3612W        W 7356   3.654   7.235   0.228 -0.0493  0.0311 -0.3175
 3613W        W 7357   3.229   7.853  10.500 -0.1462 -0.2346 -0.0676
 3614W        W 7358   9.473   2.262   2.470  0.1788  0.4346  0.1641
 3615W        W 7359   4.966   4.628   5.433 -0.1820 -0.1061 -0.4087
 3616W        W 7360   2.296   9.242   4.145  0.0546  0.1893 -0.0096
 3617W        W 7361   9.183   4.085   0.466 -0.0351  0.1128 -0.2034
 3618W        W 7362   2.930   3.739   9.825  0.1421 -0.0198  0.4195
 3619W        W 7363   5.532   0.037   1.120 -0.0226 -0.2643 -0.0011
 3620W        W 7364   6.438   1.028  12.090  0.1273  0.5025 -0.2262
 3621W        W 7365   7.655   1.080   8.345 -0.3155  0.0464  0.0076
 3622W        W 7366   4.090   1.855  11.367 -0.0149 -0.3370  0.0229
 3623W        W 7367   9.000   3.594   9.587  0.1759  0.1309 -0.2764
 3624W        W 7368   4.488   3.315   3.793 -0.3163 -0.1034 -0.3176
 3625W        W 7369   8.999   2.342   2.613  0.2809  0.2809  0.0879
 3626W        W 7370   4.351   6.901   1.298 -0.1451  0.0772  0.1183
 3627W        W 7371   9.450   9.320  11.481  0.0770  0.4221 -0.1503
 3628W        W 7372   6.001   2.270   2.579  0.1456 -0.0778 -0.2005
 3629W        W 7373   9.353   8.181   2.203  0.0783 -0.3650  0.1811
 3630W        W 7374   6.844   8.071   2.641 -0.0665  0.1090 -0.1941
 3631W        W 7375   8.322   5.544  12.435 -0.3602 -0.2123  0.0163
 3632W        W 7376   2.818   9.009   0.276  0.3241 -0.0567  0.2418
 3633W        W 7377   0.312   8.947   3.259 -0.3735  0.1522 -0.0340
 3634W        W 7378   8.304   4.187   1.481  0.2627  0.2214  0.0063
 3635W        W 7379   8.448   9.199   1.422  0.1636  0.1258 -0.1185
 3636W        W 7380   1.429   2.552  10.718  0.0842 -0.0587 -0.2734
 3637W        W 7381   9.640   2.705   2.293  0.1552  0.0069  0.1249
 3638W        W 7382   7.208   7.486  12.070 -0.1205 -0.2436 -0.0641
 3639W        W 7383   8.585   9.217  11.545  0.0305 -0.1736  0.0174
 3640W        W 7384   8.613   3.783  11.602  0.3258 -0.0093 -0.1734
 3641W        W 7385   7.211   9.814   1.679  0.3664  0.0563 -0.3203
 3642W        W 7386   3.304   9.697   9.994  0.2879 -0.4229 -0.2776
 3643W        W 7387   5.200   0.044   4.212  0.3373 -0.2205  0.0729
 3644W        W 7388   6.447   0.731   4.125  0.0926  0.0099  0.0717
 3645W        W 7389   5.964   6.213  11.094 -0.0571 -0.0879  0.0387
 3646W        W 7390   0.484   2.125   8.490 -0.0593 -0.0703 -0.1015
 3647W        W 7391   9.371   8.944   9.036 -0.3218  0.0899 -0.0924
 3648W        W 7392   9.084   5.554  11.178  0.4620 -0.1718  0.1250
 3649W        W 7393   4.946   0.663   0.317  0.0455  0.1127 -0.1327
 3650W        W 7394   9.855   2.382   1.176  0.0563  0.1087  0.0002
 3651W        W 7395   4.370   8.239   4.927 -0.1134 -0.0603 -0.0145
 3652W        W 7396   6.599   2.398   0.479  0.1679  0.0344  0.0250
 3653W        W 7397   7.421   4.172  10.291  0.1867  0.0133 -0.1416
 3654W        W 7398   8.276   2.993   0.108 -0.3759 -0.1090  0.1612
 3655W        W 7399   8.481   2.643   8.137 -0.2348  0.0140 -0.0761
 3656W        W 7400   8.298   8.653   3.412  0.0952  0.2276 -0.0992
 3657W        W 7401   3.593   6.137  12.180  0.2524  0.1797  0.0811
 3658W        W 7402   7.220   8.655   2.082  0.1759  0.0230 -0.0031
 3659W        W 7403   7.631   7.532   9.800  0.2001  0.1948  0.1707
 3660W        W 7404   5.283   2.696   4.527  0.0789  0.1963  0.1415
 3661W        W 7405   7.864   0.965  11.930 -0.1422 -0.3050  0.1365
 3662W        W 7406   6.042   1.888  11.923 -0.0083  0.1309  0.1846
 3663W        W 7407   3.485   3.324   1.808 -0.0964 -0.1296 -0.0882
 3664W        W 7408   7.762   8.083  11.378  0.4225 -0.1529 -0.1152
 3665W        W 7409   5.938   4.562   4.565 -0.1744 -0.2892 -0.0633
 3666W        W 7410   0.030   6.938   1.335 -0.0909  0.3944 -0.0391
 3667W        W 7411   4.740   2.958   4.034  0.3589 -0.3726 -0.1170
 3668W        W 7412   4.193   5.141  11.601 -0.1140  0.1228 -0.0017
 3669W        W 7413   5.997   5.050   3.119  0.0507  0.1621 -0.0339
 3670W        W 7414   6.874   1.866   0.426 -0.2056 -0.0989  0.3188
 3671W        W 7415   6.484   0.731   2.690 -0.2656 -0.2846  0.1834
 3672W        W 7416   6.019   6.829  11.655  0.0242 -0.1500  0.4263
 3673W        W 7417   5.866   7.524  11.293 -0.0697 -0.3850 -0.1318
 3674W        W 7418   4.727   4.445   9.300  0.0802  0.2355  0.0567
 3675W        W 7419   0.263   7.839   0.993  0.1784 -0.0685 -0.1957
 3676W        W 7420   2.454   9.720   1.070 -0.0768  0.0670 -0.1014
 3677W        W 7421   8.885   4.466  10.930 -0.1482 -0.0591  0.0686
 3678W        W 7422   3.328   9.097  11.653  0.1461  0.1873  0.3648
 3679W        W 7423   2.420   8.997  12.712  0.2319  0.1194 -0.1962
 3680W        W 7424   4.089   7.185   2.489  0.4067 -0.1843  0.0221
 3681W        W 7425   3.533   8.994   2.489  0.0230  0.0086  0.1521
 3682W        W 7426   4.663   8.660   9.390 -0.0537  0.1005 -0.1888
 3683W        W 7427   5.362   6.225  10.900  0.0354 -0.2598  0.1585
 3684W        W 7428   8.689   2.710  11.885 -0.0117 -0.0077 -0.0277
 3685W        W 7429   2.464   1.907   0.411  0.0571 -0.0943 -0.2443
 3686W        W 7430   0.674   9.716   2.793  0.3123 -0.3170  0.2626
 3687W        W 7431   8.658   5.785   9.747  0.1405  0.3519  0.0314
 3688W        W 7432   9.465   2.060  11.616 -0.0587 -0.1556 -0.2757
 3689W        W 7433   3.924   6.728  11.997 -0.2267 -0.3669 -0.3539
 3690W        W 7434   8.259   4.212   2.544 -0.3460  0.4201 -0.2875
 3691W        W 7435   0.521   6.182   0.206 -0.2508  0.2875 -0.0251
 3692W        W 7436   1.353   1.490   1.378  0.1464 -0.0256 -0.1029
 3693W        W 7437   3.240   4.680   3.094  0.3532 -0.1753 -0.2903
 3694W        W 7438   8.999   9.348  10.387 -0.0626  0.3758  0.0427
 3695W        W 7439   7.614   8.901   8.488  0.3220 -0.1635 -0.2251
 3696W        W 7440   9.585   8.079   8.827 -0.0431 -0.2112 -0.2286
 3697W        W 7441   0.240   2.816   2.625  0.2422 -0.2406  0.3558
 3698W        W 7442   8.224   3.058  11.613 -0.4201 -0.1514  0.2407
 3699W        W 7443   3.382   6.983  12.620 -0.0320  0.1432  0.2793
 3700W        W 7444   7.772   0.697   2.085  0.0807  0.1048 -0.1286
 3701W        W 7445   4.657   5.777  12.659  0.1049 -0.0868  0.1895
 3702W        W 7446   9.963   2.791  11.400 -0.0571 -0.2585  0.4555
 3703W        W 7447   8.231   9.816   4.342  0.3415  0.0042  0.1900
 3704W        W 7448   3.582   8.203   2.414 -0.0824  0.1476 -0.3106
 3705W        W 7449   5.781   3.023  11.097 -0.1747 -0.2270  0.4628
 3706W        W 7450   6.549   9.829   4.495  0.1448  0.1104 -0.2617
 3707W        W 7451   7.017   6.496   3.441  0.1280  0.1374 -0.0541
 3708W        W 7452   5.283   7.169  10.457  0.0404 -0.2957  0.0047
 3709W        W 7453   5.323   9.660  12.744 -0.0226 -0.2045  0.2701
 3710W        W 7454   5.094   3.792   1.315  0.1257 -0.3791 -0.0392
 3711W        W 7455   6.584   0.774   1.136  0.3700  0.0661 -0.0947
 3712W        W 7456   2.606   8.777   9.092 -0.2240  0.2759  0.1638
 3713W        W 7457   2.210   5.188   0.000 -0.0509 -0.0142  0.2564
 3714W        W 7458   5.841   1.836  10.866  0.0202  0.2826 -0.0231
 3715W        W 7459   9.751   6.163   4.357  0.0636 -0.2170  0.0622
 3716W        W 7460   3.206   2.453   1.292  0.0540 -0.0489  0.2482
 3717W        W 7461   9.066   8.936   3.431  0.2813 -0.2930 -0.2853
 3718W        W 7462   4.638   5.907   4.259  0.4285 -0.3271  0.1854
 3719W        W 7463   4.856   8.252   0.756  0.2252  0.3832 -0.0533
 3720W        W 7464   9.745   2.623   9.643 -0.0217 -0.0366 -0.3112
 3721W        W 7465   1.526   2.571   2.233  0.1121 -0.0459 -0.2191
 3722W        W 7466   5.335   7.423   1.237  0.0329 -0.0224  0.2796
 3723W        W 7467   3.233   1.607  11.082  0.0217  0.0384 -0.0970
 3724W        W 7468   4.318   9.532  10.844  0.0964 -0.0718  0.2501
 3725W        W 7469   8.399   3.495  12.555 -0.1542  0.0259  0.2209
 3726W        W 7470   7.998   6.683   4.544 -0.0602 -0.0515  0.1414
 3727W        W 7471   0.952   0.184   9.304  0.2559 -0.0928  0.1766
 3728W        W 7472   8.963   3.912   0.908 -0.3754 -0.1536 -0.2747
 3729W        W 7473   8.624   5.135  12.475 -0.0952  0.2157  0.0637
 3730W        W 7474   4.243   8.213   1.660 -0.1010  0.0237  0.1665
 3731W        W 7475   6.904   0.422   2.739  0.0082 -0.3614  0.0617
 3732W        W 7476   6.169   3.355   9.868 -0.0746 -0.2425 -0.3340
 3733W        W 7477   1.137   7.159   2.443  0.2229  0.1022  0.3484
 3734W        W 7478   8.436   9.544  10.490 -0.3712 -0.5022  0.0086
 3735W        W 7479   8.179   2.758  12.016  0.1745  0.1517 -0.1764
 3736W        W 7480   5.890   0.012  11.383 -0.0369 -0.2788  0.2639
 3737W        W 7481   0.696   1.610  10.426 -0.1919  0.2856  0.1779
 3738W        W 7482   6.235   7.302   0.569 -0.1911  0.1692 -0.2880
 3739W        W 7483   7.473   5.813  10.680  0.1212  0.0090  0.1638
 3740W        W 7484   9.010   3.559   1.831  0.2494 -0.1630 -0.0277
 3741W        W 7485   7.996   3.592   9.799  0.1111  0.2804 -0.1171
 3742W        W 7486   7.074   6.058  10.384 -0.1110 -0.1392 -0.2118
 3743W        W 7487   8.263   0.652   4.308 -0.0947  0.1906 -0.1332
 3744W        W 7488   8.842   4.670  10.393  0.1086  0.0009 -0.4113
 3745W        W 7489   5.962   0.511  11.351  0.0057 -0.4060  0.1201
 3746W        W 7490   4.744   6.055   9.285  0.1803 -0.2292  0.0073
 3747W        W 7491   3.553   0.575   0.643  0.1459 -0.0682 -0.1215
 3748W        W 7492   0.193   4.609   3.420  0.0538 -0.1321 -0.0395
 3749W        W 7493   9.578   9.045  10.111  0.3055  0.0277 -0.1918
 3750W        W 7494   5.917   7.418  12.751  0.0389  0.1158 -0.1271
 3751W        W 7495   8.481   1.517  12.064  0.2745 -0.0122  0.0872
 3752W        W 7496   1.916   0.360   1.341  0.1212  0.0433  0.0040
 3753W        W 7497   2.829   9.495   7.956 -0.0483  0.2231  0.0540
 3754W        W 7498   1.394   6.181  11.393  0.2461 -0.0360 -0.0191
 3755W        W 7499   4.885   7.745   3.829  0.0014  0.0865  0.2059
 3756W        W 7500   8.693   8.644   9.831 -0.3003  0.0293  0.0134
 3757W        W 7501   0.238   4.393   0.271  0.1905 -0.0845  0.0133
 3758W        W 7502   5.693   2.485   2.145  0.0732 -0.0671 -0.1231
 3759W        W 7503   4.121   0.308  11.543  0.0684  0.0044 -0.0131
 3760W        W 7504   9.489   9.477   4.717  0.0691  0.1875  0.0231
 3761W        W 7505   2.981   3.996  11.746 -0.2158 -0.2659 -0.0757
 3762W        W 7506   8.825   3.223   2.946 -0.0934  0.1632 -0.0075
 3763W        W 7507   6.983   0.155   2.138  0.0021  0.1586 -0.0671
 3764W        W 7508   3.641   2.480   2.391  0.0929  0.0648  0.1190
 3765W        W 7509   2.637   0.737  10.838 -0.0550 -0.1163 -0.1124
 3766W        W 7510   9.694   3.963  10.225 -0.3091  0.0886 -0.2002
 3767W        W 7511   9.427   8.568   0.452 -0.0228  0.1783  0.2624
 3768W        W 7512   3.777   4.224   1.180  0.3370  0.2900 -0.2084
 3769W        W 7513   6.912   0.197   4.608  0.0661  0.1280  0.1476
 3770W        W 7514   9.929   5.675   0.045 -0.1168  0.1306  0.1316
 3771W        W 7515   6.158   2.633   8.991 -0.1786  0.0129  0.2932
 3772W        W 7516   7.264   4.531   5.268  0.0871 -0.4971 -0.2077
 3773W        W 7517   2.449   5.628  11.249 -0.0995  0.2510  0.2366
 3774W        W 7518   9.914   2.395   2.589  0.0997 -0.2160  0.0259
 3775W        W 7519   2.815   1.271   8.953 -0.2166 -0.0611 -0.3197
 3776W        W 7520   1.921   5.911   9.337  0.0266  0.1839 -0.0309
 3777W        W 7521   8.692   5.938   2.177  0.0471  0.0824 -0.0809
 3778W        W 7522   1.547   1.684   1.797  0.1665  0.0715 -0.0889
 3779W        W 7523   9.794   6.049   1.875  0.0336  0.0039  0.2915
 3780W        W 7524   0.452   5.024   2.669 -0.0931  0.0924 -0.0633
 3781W        W 7525   4.722   5.294   0.127 -0.0402  0.0496  0.0383
 3782W        W 7526   7.642   5.418   9.833  0.0721 -0.2691  0.3509
 3783W        W 7527   8.734   0.113   9.325 -0.3648 -0.1697  0.0006
 3784W        W 7528   6.932   7.540  10.495  0.0451 -0.5064 -0.2098
 3785W        W 7529   3.276   9.308   1.957 -0.0796 -0.0349 -0.2659
 3786W        W 7530   3.317   6.182  10.371  0.4195 -0.1798  0.0117
 3787W        W 7531   0.518   2.414   0.471  0.2566 -0.2172  0.0151
 3788W        W 7532   2.839   2.071   3.062  0.1910 -0.1349 -0.0401
 3789W        W 7533   1.657   6.850   9.940 -0.2129  0.0891 -0.0172
 3790W        W 7534   1.188   5.411   0.245 -0.2343  0.1184 -0.0357
 3791W        W 7535   6.696   7.540   2.369  0.1016  0.1210  0.2050
 3792W        W 7536   4.220   5.754   9.818  0.1176 -0.3977  0.0471
 3793W        W 7537   4.680   8.868  12.722  0.1477  0.0177  0.6182
 3794W        W 7538   2.505   6.208  11.055 -0.2491  0.0065 -0.0960
 3795W        W 7539   9.195   0.072   1.914 -0.0831  0.2116 -0.2020
 3796W        W 7540   6.176   0.613  10.025  0.0619  0.0734 -0.0881
 3797W        W 7541   8.745   4.759   1.534  0.1182 -0.2446 -0.1012
 3798W        W 7542   8.636   7.659   2.315  0.1261  0.0674  0.0107
 3799W        W 7543   2.056   5.838   0.588 -0.0750  0.0147  0.1756
 3800W        W 7544   8.204   9.265   2.549 -0.2114 -0.1831 -0.1175
 3801W        W 7545   8.707   7.831   9.184  0.2360  0.2939 -0.2587
 3802W        W 7546   9.814   6.622   3.015 -0.1875  0.1592  0.1820
 3803W        W 7547   4.270   4.321  11.110 -0.1515 -0.0290  0.1254
 3804W        W 7548   3.182   1.481   3.288  0.2529 -0.0150 -0.0970
 3805W        W 7549   3.248   7.986   8.970 -0.0724 -0.1541 -0.1077
 3806W        W 7550   2.600   4.222   1.356 -0.0041 -0.3332  0.1484
 3807W        W 7551   7.526   6.136   2.052 -0.1514 -0.3330 -0.0359
 3808W        W 7552   4.058   8.752   0.979 -0.1508 -0.3018 -0.4000
 3809W        W 7553   7.837   4.446  11.474 -0.0508  0.2955 -0.0505
 3810W        W 7554   3.635   8.829   8.559  0.1584 -0.1442  0.1943
 3811W        W 7555   1.791   8.134  12.616  0.1731  0.0333 -0.3859
 3812W        W 7556   5.611   5.631  11.397 -0.0455 -0.1673 -0.1393
 3813W        W 7557   8.385   4.769   9.691 -0.2940  0.0464  0.1168
 3814W        W 7558   4.750   2.975   0.110  0.1672  0.0925 -0.0320
 3815W        W 7559   1.507   8.370  11.608  0.1888  0.1305  0.1135
 3816W        W 7560   3.225   9.040   3.948 -0.5098  0.1649 -0.1318
 3817W        W 7561   2.376   0.074   0.094 -0.0062  0.1603  0.1711
 3818W        W 7562   7.502   3.855  12.049 -0.2378 -0.0563 -0.0845
 3819W        W 7563   9.698   2.498  12.613 -0.0342  0.0594 -0.1961
 3820W        W 7564   9.699   9.563   3.437 -0.0738 -0.1908 -0.1058
 3821W        W 7565   8.305   4.481   3.487  0.1378 -0.0143  0.5075
 3822W        W 7566   0.767   9.685  10.675 -0.0575  0.0100  0.1016
 3823W        W 7567   6.206   7.569  11.701 -0.0859  0.0753 -0.0310
 3824W        W 7568   3.943   7.687   1.780  0.1563  0.1230 -0.0439
 3825W        W 7569   1.212   6.919   0.508  0.1446  0.0480  0.0695
 3826W        W 7570   6.549   0.149  12.130  0.1543 -0.1298  0.2213
 3827W        W 7571   0.946   0.906  10.978 -0.3006 -0.0813  0.1440
 3828W        W 7572   2.731   2.555  11.995 -0.1642 -0.2058  0.0595
 3829W        W 7573   0.164   3.421   1.854 -0.1524  0.0761  0.1970
 3830W        W 7574   4.819   1.098   9.581 -0.0026  0.0237  0.1223
 3831W        W 7575   9.067   9.169   0.872  0.0644  0.2462  0.0252
 3832W        W 7576   1.424   8.764   1.499  0.0334  0.1732 -0.5324
 3833W        W 7577   1.881   5.279   1.399  0.1017  0.2396 -0.1753
 3834W        W 7578   1.678   1.319   2.273  0.1145  0.1814 -0.2867
 3835W        W 7579   6.077   8.137  10.761  0.1225 -0.0816 -0.1505
 3836W        W 7580   7.307   9.339   1.572  0.1917  0.0661 -0.1137
 3837W        W 7581   5.528   4.661   3.998 -0.0049  0.0185  0.2029
 3838W        W 7582   2.196   2.904  12.601  0.1392 -0.3226 -0.4594
 3839W        W 7583   2.545   1.566   2.291 -0.2842 -0.1169 -0.1608
 3840W        W 7584   2.050   7.838   2.755  0.2752  0.0088 -0.1607
 3841W        W 7585   1.705   5.245  11.472 -0.1253  0.0779 -0.0189
 3842W        W 7586   4.851   8.845  10.777  0.0270 -0.2562  0.0358
 3843W        W 7587   3.560   6.361   3.140 -0.0393  0.2639  0.1288
 3844W        W 7588   1.675   3.040   3.157 -0.2395 -0.0659  0.0899
 3845W        W 7589   3.655   3.027   9.619 -0.4047  0.1920  0.0592
 3846W        W 7590   6.480   9.420   4.289  0.1247  0.3249 -0.1418
 3847W        W 7591   2.944   3.196   0.536 -0.3119 -0.1183  0.1121
 3848W        W 7592   7.161   4.711   4.516  0.3279  0.4067 -0.1647
 3849W        W 7593   3.332   2.650   9.585  0.2250  0.0078  0.0089
 3850W        W 7594   1.084   9.274  10.710 -0.1549  0.2043 -0.0056
 3851W        W 7595   0.477   3.299   3.816 -0.1218 -0.1012 -0.2335
 3852W        W 7596   3.230   2.971   2.158  0.2707 -0.3596 -0.2388
 3853W        W 7597   7.141   6.621   9.574 -0.0139  0.1555 -0.0707
 3854W        W 7598   4.747   6.334   8.737  0.1983 -0.0762  0.0223
 3855W        W 7599   7.065   6.026  11.364  0.0983  0.2031  0.1044
 3856W        W 7600   6.201   3.723   3.216  0.1442 -0.0065 -0.1596
 3857W        W 7601   4.330   3.613   0.614 -0.1053  0.2710 -0.3679
 3858W        W 7602   1.027   8.732   3.891  0.0356  0.3859 -0.1065
 3859W        W 7603   5.195   4.972   3.721  0.0164 -0.1276 -0.1253
 3860W        W 7604   4.839   1.593   1.880 -0.1213  0.3125 -0.1714
 3861W        W 7605   7.696   4.030   1.409 -0.0283 -0.1298  0.3108
 3862W        W 7606   9.393   6.097  10.315 -0.0334 -0.0612 -0.1505
 3863W        W 7607   7.342   5.636   4.831 -0.1038  0.1209  0.0141
 3864W        W 7608   4.833   7.496  10.592 -0.1248 -0.0456  0.0892
 3865W        W 7609   4.223   5.254   4.123  0.5493  0.1282 -0.0459
 3866W        W 7610   1.624   0.979   1.884  0.1635 -0.1717  0.1007
 3867W        W 7611   5.297   8.401   0.903  0.0481  0.3124 -0.1426
 3868W        W 7612   5.112   2.545  12.219  0.1418 -0.0664 -0.2093
 3869W        W 7613   8.683   3.390   9.261 -0.3132  0.1627 -0.4874
 3870W        W 7614   8.265   5.121   1.534  0.0325 -0.1813  0.0373
 3871W        W 7615   4.400   8.501   4.063  0.2011 -0.1532  0.1070
 3872W        W 7616   7.391   7.418   9.336  0.0887 -0.0901  0.0951
 3873W        W 7617   8.734   3.773   2.723  0.1032 -0.3530 -0.2087
 3874W        W 7618   0.553   2.144   3.238  0.0728 -0.0358 -0.0096
 3875W        W 7619   9.607   9.031   1.832 -0.0493  0.3641  0.2637
 3876W        W 7620   6.427   9.080   9.934 -0.0057 -0.2855  0.2853
 3877W        W 7621   0.051   9.402   4.495 -0.0536  0.2201 -0.0972
 3878W        W 7622   1.996   7.658  11.933 -0.0408 -0.0418 -0.0025
 3879W        W 7623   9.177   5.883   0.054  0.1367  0.2414 -0.1599
 3880W        W 7624   4.469   0.299   9.486  0.4603 -0.3802 -0.0275
 3881W        W 7625   9.754   2.480   8.071  0.0129 -0.2504 -0.0846
 3882W        W 7626   5.599   4.042   2.342 -0.0630 -0.0115  0.1771
 3883W        W 7627   4.275   1.206   0.179 -0.1376 -0.0682  0.2628
 3884W        W 7628   2.792   0.527   7.876  0.0704 -0.0237 -0.1204
 3885W        W 7629   7.150   9.753  10.217 -0.1073  0.2001  0.2017
 3886W        W 7630   2.435   4.095   1.851 -0.3637  0.0084 -0.1463
 3887W        W 7631   0.713   2.415  10.951  0.2145  0.1039 -0.2158
 3888W        W 7632   7.355   2.975   1.451  0.2512  0.3449  0.1264
 3889W        W 7633   4.113   0.110   1.307 -0.0774 -0.0772 -0.1533
 3890W        W 7634   5.829   9.206   8.680 -0.0474  0.1278  0.0178
 3891W        W 7635   9.537   1.554   0.213 -0.0236 -0.0623 -0.0923
 3892W        W 7636   6.346   3.072   9.103 -0.1720  0.1248 -0.1717
 3893W        W 7637   3.046   1.884   4.032  0.0020 -0.1681  0.0783
 3894W        W 7638   3.004   5.744  10.624  0.1754 -0.3978 -0.0415
 3895W        W 7639   4.133   3.546   0.091  0.0621  0.0263 -0.1851
 3896W        W 7640   3.691   8.790   0.155  0.0122  0.0297  0.1890
 3897W        W 7641   7.936   2.632   0.028  0.1786  0.0029  0.2741
 3898W        W 7642   3.602   3.173   1.366 -0.1488 -0.1728  0.0328
 3899W        W 7643   4.931   9.355  12.710  0.3030  0.1905  0.4541
 3900W        W 7644   7.960   8.882   1.441 -0.0161 -0.0094 -0.0783
 3901W        W 7645   5.985   1.145   2.771 -0.0622  0.0424  0.0431
 3902W        W 7646   5.008   0.663   9.698 -0.3583  0.4828 -0.1671
 3903W        W 7647   5.336   7.763   4.431  0.2303  0.1130 -0.0662
 3904W        W 7648   9.774   6.412  10.296 -0.2544  0.2729  0.2093
 3905W        W 7649   2.031   9.499  11.002  0.0796 -0.0390 -0.3963
 3906W        W 7650   9.718   3.474   4.595 -0.2611  0.0294 -0.0078
 3907W        W 7651   1.801   3.161   1.974 -0.1900 -0.1563 -0.1008
 3908W        W 7652   2.262   8.702   9.520 -0.1369  0.0210 -0.2016
 3909W        W 7653   2.635   7.563  10.433  0.2607 -0.0872 -0.0432
 3910W        W 7654   2.254   9.804  10.170 -0.0997  0.0749  0.1071
 3911W        W 7655   0.496   1.560  11.950 -0.0334 -0.1869 -0.3193
 3912W        W 7656   0.051   0.972  12.679 -0.0372 -0.1277  0.2596
 3913W        W 7657   2.581   3.346   2.386  0.0172  0.1420  0.1998
 3914W        W 7658   3.495   5.861   3.454  0.1419 -0.0635  0.2058
 3915W        W 7659   5.547   9.803   8.622 -0.2121 -0.0380  0.1685
 3916W        W 7660   4.718   0.391  12.752 -0.0452  0.0669 -0.0294
 3917W        W 7661   7.060   5.154   3.479 -0.1849  0.0237 -0.0027
 3918W        W 7662   0.588   9.547   2.123 -0.1083 -0.1700 -0.0852
 3919W        W 7663   4.054   3.586   4.218  0.1359  0.1298  0.0552
 3920W        W 7664   8.785   0.659  12.433 -0.0791 -0.0910 -0.0764
 3921W        W 7665   4.791   6.782   4.137  0.2562  0.2108 -0.1357
 3922W        W 7666   1.008   5.045   9.674  0.0293  0.0901 -0.0881
 3923W        W 7667   7.567   7.101  12.415  0.1170  0.0483 -0.1631
 3924W        W 7668   9.664   0.421   1.789  0.0528  0.0536  0.1231
 3925W        W 7669   7.655   7.824   1.899  0.0880  0.3473  0.1165
 3926W        W 7670   7.827   1.683   2.533  0.3835 -0.0613  0.0353
 3927W        W 7671   1.106   8.189  11.393  0.3490 -0.2141  0.1210
 3928W        W 7672   3.342   4.749  11.285  0.1889  0.2236  0.2016
 3929W        W 7673   7.207   2.912   8.901 -0.0124  0.1265 -0.1221
 3930W        W 7674   8.909   3.813   9.120 -0.0360  0.1330  0.0346
 3931W        W 7675   4.724   7.451   1.982  0.1065 -0.0509 -0.5060
 3932W        W 7676   9.237   4.515  11.286  0.0533  0.0370 -0.3897
 3933W        W 7677   7.357   8.595   3.085  0.0376  0.2878  0.0146
 3934W        W 7678   2.991   2.942  11.993 -0.2308 -0.1244  0.0394
 3935W        W 7679   5.691   4.934   9.936  0.0638  0.0199 -0.2056
 3936W        W 7680   6.428   3.345   8.222 -0.0274  0.0141 -0.0981
 3937W        W 7681   6.322   8.801   2.448 -0.1807  0.2499  0.2046
 3938W        W 7682   5.954   9.847   0.490  0.4840  0.2178 -0.0793
 3939W        W 7683   7.110   7.870   9.395  0.2458  0.0850 -0.0595
 3940W        W 7684   4.762   3.677   0.927  0.3049  0.2691  0.2508
 3941W        W 7685   8.943   1.468  11.900  0.1287  0.2293  0.3506
 3942W        W 7686   8.020   5.863  12.193  0.1330 -0.0647  0.4276
 3943W        W 7687   2.545   5.662   0.640 -0.1228  0.1121  0.1390
 3944W        W 7688   8.739   7.911   0.554 -0.1920 -0.1416  0.1034
 3945W        W 7689   4.760   4.050  11.956 -0.0033 -0.1077 -0.1097
 3946W        W 7690   7.959   3.753   2.281  0.0977  0.2254 -0.1704
 3947W        W 7691   1.620   0.130  11.407  0.3774  0.0458 -0.1344
 3948W        W 7692   4.382   8.434   0.673 -0.0914 -0.0342 -0.2101
 3949W        W 7693   2.730   0.902   3.782  0.1289  0.2672  0.1381
 3950W        W 7694   0.655   5.414  11.716  0.1077  0.1794  0.2805
 3951W        W 7695   9.793   9.490  12.642 -0.2949 -0.3522 -0.3974
 3952W        W 7696   1.741   6.012   1.846  0.1041 -0.0516  0.0261
 3953W        W 7697   2.056   4.751   1.532 -0.2296 -0.0948 -0.2045
 3954W        W 7698   9.818   9.169  10.654  0.1704  0.1251 -0.3883
 3955W        W 7699   3.767   0.673  11.590  0.2118  0.0330  0.1087
 3956W        W 7700   7.271   7.046   1.391 -0.0259 -0.0847 -0.3991
 3957W        W 7701   0.618   8.541   3.767 -0.0984 -0.2581 -0.3382
 3958W        W 7702   0.263   7.348   1.112  0.0605  0.0385  0.3894
 3959W        W 7703   7.116   1.641   9.941  0.1768  0.1129 -0.1019
 3960W        W 7704   6.739   2.217   3.087  0.1870 -0.1484 -0.1506
 3961W        W 7705   7.913   4.272   1.811 -0.0628 -0.0408  0.3338
 3962W        W 7706   5.777   8.100   9.272 -0.0695 -0.0244  0.1254
 3963W        W 7707   4.530   8.983   3.842 -0.3281 -0.0443 -0.0401
 3964W        W 7708   6.906   7.830   1.003 -0.2490  0.1174  0.0323
 3965W        W 7709   6.606   7.361   8.194  0.1355  0.1000 -0.2442
 3966W        W 7710   2.797   0.419   2.648  0.0140  0.0721  0.1708
 3967W        W 7711   0.487   5.572   3.677  0.0575  0.2668  0.1840
 3968W        W 7712   3.119   6.749   0.798 -0.1521 -0.2454 -0.0562
 3969W        W 7713   8.108   8.608   9.225  0.5500  0.1669  0.3958
 3970W        W 7714   7.292   0.070   9.845 -0.3121  0.1056  0.2916
 3971W        W 7715   1.315   5.865   1.665 -0.1677 -0.0266  0.0004
 3972W        W 7716   7.507   5.817   3.887 -0.1086  0.2698  0.0473
 3973W        W 7717   9.118   2.992  11.785  0.0524  0.5206  0.0478
 3974W        W 7718   5.209   6.859   1.666 -0.0241  0.1653 -0.2426
 3975W        W 7719   0.460   9.325   9.338  0.0002  0.1869 -0.1597
 3976W        W 7720   1.152   0.546  11.613 -0.3253  0.0169  0.0119
 3977W        W 7721   7.490   4.825   3.785 -0.1245 -0.0624  0.0126
 3978W        W 7722   8.981   2.152   1.950  0.0077  0.0933  0.0421
 3979W        W 7723   0.297   2.834   9.642 -0.1345  0.2926  0.2135
 3980W        W 7724   5.101   9.178  11.143 -0.0630 -0.1532 -0.0433
 3981W        W 7725   4.024   1.023   4.019  0.3560 -0.2914  0.0018
 3982W        W 7726   3.440   8.279   3.014 -0.3211 -0.2285 -0.1896
 3983W        W 7727   3.193   4.306  10.479  0.1987 -0.0091 -0.0469
 3984W        W 7728   1.207   1.377   3.091  0.4972 -0.1071 -0.0827
 3985W        W 7729   7.982   4.991   1.081  0.1045  0.0353  0.1339
 3986W        W 7730   6.688   1.714   3.982  0.0922 -0.1672  0.2216
 3987W        W 7731   1.583   6.153  10.862 -0.0335  0.0379 -0.0068
 3988W        W 7732   0.289   9.249   0.080  0.0116  0.3266 -0.0298
 3989W        W 7733   3.174   1.658   4.835 -0.1500 -0.0546  0.3485
 3990W        W 7734   0.125   0.292   0.428  0.0409 -0.0091 -0.0295
 3991W        W 7735   0.219   3.109  10.756  0.0661 -0.3970  0.1747
 3992W        W 7736   3.261   4.083   0.335 -0.2371 -0.0599  0.0356
 3993W        W 7737   9.084   9.757   2.894  0.2673  0.0086  0.3208
 3994W        W 7738   8.352   6.113  11.750  0.0206 -0.0144  0.0081
 3995W        W 7739   3.452   2.894  11.690  0.1529 -0.0572 -0.0590
 3996W        W 7740   1.071   3.829   9.507 -0.4906  0.1833  0.1949
 3997W        W 7741   4.233   0.833   2.560 -0.3873 -0.2183  0.2593
 3998W        W 7742   3.966   3.071  12.388  0.1503  0.0956  0.0173
 3999W        W 7743   3.504   4.568   1.024  0.1726 -0.0838  0.1791
 4000W        W 7744   2.053   6.075  12.480 -0.2551 -0.0685 -0.1559
 4001W        W 7745   5.585   2.992   9.879 -0.2777  0.0810 -0.1380
 4002W        W 7746   1.730   6.598  11.948 -0.3318 -0.0251  0.3563
 4003W        W 7747   9.001   5.746  10.222  0.1469 -0.1437  0.1648
 4004W        W 7748   4.886   3.015  11.944  0.1224  0.0618  0.0885
 4005W        W 7749   6.121   5.461   5.438 -0.0216  0.0849  0.3360
 4006W        W 7750   8.990   7.892   2.017  0.0238 -0.1131  0.3120
 4007W        W 7751   4.671   4.031   1.304  0.0685 -0.2884  0.0734
 4008W        W 7752   7.491   6.148   0.138 -0.2651  0.0529  0.3383
 4009W        W 7753   7.878   7.638   3.394 -0.2268 -0.0786  0.0422
 4010W        W 7754   0.400   1.778   4.839  0.3854 -0.0077  0.0999
 4011W        W 7755   8.865   2.176   9.664  0.1126  0.1477 -0.1790
 4012W        W 7756   4.157   7.838   8.298 -0.1305 -0.4279  0.1085
 4013W        W 7757   4.809   7.291   8.760  0.0767 -0.0564  0.2755
 4014W        W 7758   6.077   5.381  11.662  0.0710 -0.1056  0.1365
 4015W        W 7759   7.313   4.044   3.017 -0.2639  0.0845  0.0811
 4016W        W 7760   7.890   9.380   4.938  0.1399  0.1040  0.3139
 4017W        W 7761   5.161   1.119   2.068 -0.1589  0.1180  0.1127
 4018W        W 7762   9.412   1.536  11.730 -0.3081  0.0777  0.2464
 4019W        W 7763   8.658   2.009   2.851 -0.1278 -0.0486  0.0212
 4020W        W 7764   1.372   9.149   9.321 -0.2373 -0.1380  0.0560
 4021W        W 7765   9.588   6.347   4.801 -0.1081  0.0957  0.1615
 4022W        W 7766   5.451   9.190  12.711 -0.1314 -0.2196 -0.0544
 4023W        W 7767   2.609   5.975   1.069 -0.0155  0.0275  0.0697
 4024W        W 7768   6.239   0.324   4.492  0.0369 -0.4687 -0.1087
 4025W        W 7769   0.684   1.759   3.872 -0.0840  0.0432 -0.0319
 4026W        W 7770   5.262   1.271   1.180  0.3016  0.0263  0.1663
 4027W        W 7771   3.248   7.147   1.645 -0.3267  0.0255  0.1072
 4028W        W 7772   5.222   2.232   3.007 -0.2464 -0.3238  0.2347
 4029W        W 7773   3.630   4.651  10.821 -0.1372 -0.1085  0.3443
 4030W        W 7774   1.639   1.378   2.784  0.2985 -0.2740  0.2410
 4031W        W 7775   9.416   8.563   4.642  0.2658 -0.0007  0.1659
 4032W        W 7776   6.563   9.718  12.438  0.2390 -0.2626 -0.1505
 4033W        W 7777   5.535   5.107   2.281  0.1200  0.2335  0.1478
 4034W        W 7778   3.437   1.489  11.530 -0.0103 -0.0539  0.1661
 4035W        W 7779   7.644   0.755  12.403  0.4748  0.1053 -0.0003
 4036W        W 7780   1.339   0.960   2.794 -0.1274 -0.0518 -0.0580
 4037W        W 7781   6.067   9.532   4.570 -0.0916  0.1530  0.0011
 4038W        W 7782   8.670   2.570   2.250  0.0567  0.3067  0.1687
 4039W        W 7783   4.577   1.808   0.914  0.1708  0.3288  0.0470
 4040W        W 7784   2.913   9.066   8.821 -0.0133 -0.0034  0.0073
 4041W        W 7785   1.336   8.186  12.470  0.0711  0.2030  0.4459
 4042W        W 7786   6.586   1.952   1.705  0.1835  0.0860  0.3472
 4043W        W 7787   1.211   0.118  11.858  0.1602  0.1695  0.3159
 4044W        W 7788   4.269   9.022   9.550  0.0881  0.1213  0.1539
 4045W        W 7789   4.956   7.745   1.420  0.0123  0.0527  0.2292
 4046W        W 7790   6.546   4.898   2.303 -0.0123 -0.0816  0.2023
 4047W        W 7791   8.499   5.008   3.546  0.1199  0.2349 -0.2763
 4048W        W 7792   4.950   1.622   9.365 -0.1809  0.2330 -0.0683
 4049W        W 7793   5.569   0.477   4.383  0.1983 -0.1354  0.1671
 4050W        W 7794   8.928   3.390   0.786  0.1348  0.3638 -0.0404
 4051W        W 7795   2.427   0.182   9.464 -0.1526 -0.1640 -0.1063
 4052W        W 7796   0.313   5.822   3.280 -0.0592 -0.2177 -0.1978
 4053W        W 7797   9.795   1.883  10.291  0.0295  0.1106  0.0510
 4054W        W 7798   8.727   5.338   1.508 -0.0435  0.2098  0.0225
 4055W        W 7799   2.799   2.445   4.678 -0.0222  0.2108 -0.1567
 4056W        W 7800   4.553   1.563   9.837 -0.1390 -0.2380 -0.0253
 4057W        W 7801   7.598   0.651   4.094  0.1198  0.2040 -0.1074
 4058W        W 7802   7.159   1.946   3.871 -0.7022  0.1396  0.0513
 4059W        W 7803   9.741   6.641   4.170  0.1708  0.0071 -0.1229
 4060W        W 7804   8.776   3.189  12.625  0.0110 -0.1349 -0.0335
 4061W        W 7805   1.707   0.161   0.701 -0.1124 -0.0081 -0.2984
 4062W        W 7806   6.746   2.363  10.737  0.3886 -0.4822 -0.0466
 4063W        W 7807   2.449   4.497   9.994  0.2878 -0.0166  0.0209
 4064W        W 7808   2.061   2.014  10.311  0.2533 -0.2575 -0.1108
 4065W        W 7809   1.066   3.500   2.895 -0.2537  0.0287  0.0548
 4066W        W 7810   4.131   1.239   8.823 -0.2448  0.2630  0.1202
 4067W        W 7811   0.407   6.401   3.238  0.1547  0.0606  0.1557
 4068W        W 7812   7.483   1.536   3.159  0.4067  0.1446  0.1943
 4069W        W 7813   6.447   4.703   3.988  0.0670  0.1050  0.2285
 4070W        W 7814   8.062   3.040  12.428  0.2887  0.0511  0.0192
 4071W        W 7815   6.488   4.275  12.035 -0.0581  0.1566 -0.2273
 4072W        W 7816   0.187   0.716   1.831 -0.0206  0.1990  0.1360
 4073W        W 7817   8.310   0.764   9.465  0.0009  0.3775 -0.1952
 4074W        W 7818   1.514   9.513   9.002 -0.1824 -0.1407  0.1620
 4075W        W 7819   6.577   2.952   0.451 -0.4220  0.1025  0.2352
 4076W        W 7820   6.339   6.214  12.042  0.0033 -0.0415 -0.4449
 4077W        W 7821   2.985   8.535   3.213  0.1745 -0.0405  0.1003
 4078W        W 7822   3.682   8.059   3.405  0.0924 -0.0156  0.1011
 4079W        W 7823   8.933   8.294  10.922  0.0957  0.1266  0.0345
 4080W        W 7824   5.755   9.477   2.844  0.0738 -0.1544 -0.2248
 4081W        W 7825   1.857   2.770   9.830 -0.0266 -0.0103 -0.1788
 4082W        W 7826   8.143   2.475  10.984  0.0977  0.0077 -0.0022
 4083W        W 7827   0.636   2.534   2.529  0.0929  0.0510  0.0561
 4084W        W 7828   0.518   7.565  11.488  0.2428 -0.2167 -0.1870
 4085W        W 7829   1.444   5.986   9.944 -0.3653 -0.1512  0.1035
 4086W        W 7830   6.487   1.676   2.118  0.0631  0.4540  0.1848
 4087W        W 7831   6.564   7.199   9.322 -0.0397  0.2620  0.0304
 4088W        W 7832   1.768   5.888   1.297  0.2834 -0.1767 -0.2369
 4089W        W 7833   8.852   8.872  10.612 -0.0166  0.0105  0.2537
 4090W        W 7834   6.231   5.724  10.206 -0.0268  0.2064 -0.0683
 4091W        W 7835   9.735   5.396  10.616  0.1455 -0.2916 -0.0126
 4092W        W 7836   5.072   8.157   2.741  0.0686  0.0819  0.0731
 4093W        W 7837   1.424   3.732  10.225 -0.2601 -0.0523 -0.0607
 4094W        W 7838   5.656   6.112   1.364 -0.2851  0.3591 -0.0748
 4095W        W 7839   8.985   1.655   1.919 -0.0029  0.1679  0.0135
 4096W        W 7840   4.018   3.256   3.341 -0.1285 -0.0276  0.0990
 4097W        W 7841   7.130   6.459   0.671  0.1674 -0.1080 -0.0205
 4098W        W 7842   3.173   4.241   9.870 -0.0391 -0.0291 -0.1441
 4099W        W 7843   8.137   2.888   2.828 -0.0334 -0.3231 -0.0667
 4100W        W 7844   2.392   9.899  10.654  0.2322 -0.2154  0.0879
 4101W        W 7845   4.819   8.228   3.966  0.1086 -0.0597  0.0568
 4102W        W 7846   1.129   0.831   1.674 -0.1684  0.0089  0.1827
 4103W        W 7847   9.916   1.656   4.548 -0.0513  0.1928  0.1135
 4104W        W 7848   2.113   6.723   1.245 -0.0488  0.1276  0.0869
 4105W        W 7849   3.934   3.104  10.729 -0.2027 -0.0913 -0.1326
 4106W        W 7850   1.627   8.128   1.404  0.3236  0.1916  0.0254
 4107W        W 7851   6.991   2.436   4.028  0.0697  0.1154  0.0337
 4108W        W 7852   1.173   6.144   3.074  0.2020 -0.0769 -0.1977
 4109W        W 7853   6.177   4.315   1.184 -0.0728 -0.0455  0.0174
 4110W        W 7854   6.239   8.749   0.219  0.0131 -0.0604 -0.0546
 4111W        W 7855   0.689   0.135   2.424 -0.1544 -0.3898  0.3776
 4112W        W 7856   3.232   2.939   0.167 -0.0715 -0.2058  0.1215
 4113W        W 7857   6.500   4.309  12.585  0.0659 -0.0630  0.0992
 4114W        W 7858   7.720   7.079  10.082  0.2168  0.1008  0.1497
 4115W        W 7859   7.437   7.849  11.003 -0.3340  0.2235  0.4202
 4116W        W 7860   8.693   0.666   3.863  0.1245 -0.1115  0.1181
 4117W        W 7861   6.891   2.732   0.083  0.0475 -0.0846  0.2107
 4118W        W 7862   0.843   0.141   0.093  0.1508  0.0253 -0.3197
 4119W        W 7863   8.430   3.807   9.266  0.1050  0.0525 -0.1963
 4120W        W 7864   5.750   5.511  10.443  0.0460  0.0599  0.2177
 4121W        W 7865   0.068   5.416   2.440  0.0543 -0.2330 -0.1222
 4122W        W 7866   4.715   2.414   9.464 -0.2083 -0.2003 -0.0363
 4123W        W 7867   2.083   6.148  10.734 -0.0839 -0.0636  0.0756
 4124W        W 7868   9.383   2.690   2.708  0.4539  0.0437 -0.0404
 4125W        W 7869   6.643   6.921   3.457 -0.1120  0.0045 -0.0735
 4126W        W 7870   4.475   4.706   2.855 -0.0352  0.0276  0.2358
 4127W        W 7871   8.536   8.887   3.036 -0.2477 -0.3981 -0.0225
 4128W        W 7872   9.213   7.904   9.662  0.0340  0.0863 -0.1480
 4129W        W 7873   9.240   9.359   1.785 -0.1997 -0.0403  0.2517
 4130W        W 7874   3.593   5.767  11.332  0.1006  0.2461  0.2010
 4131W        W 7875   3.054   3.309   1.477 -0.0185 -0.2823  0.3083
 4132W        W 7876   6.155   8.978   4.397 -0.0386 -0.1629  0.1495
 4133W        W 7877   2.392   9.434   8.080  0.1496  0.0846  0.0033
 4134W        W 7878   6.331   0.074   0.919 -0.2651 -0.0176 -0.1333
 4135W        W 7879   0.156   6.920  10.205 -0.0546  0.1874 -0.2016
 4136W        W 7880   9.191   8.447  10.437 -0.0674 -0.1490 -0.2155
 4137W        W 7881   9.294   7.368   1.613 -0.2830 -0.1027  0.1242
 4138W        W 7882   2.665   8.152   3.292 -0.1054 -0.0687 -0.0496
 4139W        W 7883   9.511   9.071  11.021  0.2217 -0.0582 -0.1206
 4140W        W 7884   5.294   7.080   8.814  0.2069  0.0080  0.1264
 4141W        W 7885   0.199   8.526  11.163 -0.2296  0.0586  0.2317
 4142W        W 7886   1.221   7.648  10.661  0.0133  0.1988  0.3143
 4143W        W 7887   2.388   0.552  12.167 -0.2511  0.3088  0.2646
 4144W        W 7888   6.367   1.240   4.376 -0.0182 -0.2807  0.2461
 4145W        W 7889   8.973   9.358   4.270 -0.0260 -0.0738 -0.1434
 4146W        W 7890   3.248   1.996   3.332  0.1285 -0.1163 -0.0543
 4147W        W 7891   6.298   3.207   5.064  0.1640 -0.1554 -0.0640
 4148W        W 7892   1.269   3.994   1.681 -0.2882  0.2485 -0.0402
 4149W        W 7893   2.214   7.307  12.282 -0.0000  0.0090 -0.2253
 4150W        W 7894   9.468   1.115   3.945 -0.1918  0.1185 -0.1735
 4151W        W 7895   8.349   2.131   8.933 -0.4226  0.0629 -0.1417
 4152W        W 7896   9.072   2.395  11.756  0.0310  0.0660  0.1611
 4153W        W 7897   6.303   6.547  11.275 -0.2834 -0.1012 -0.0816
 4154W        W 7898   9.100   7.891   3.159 -0.0996 -0.2581  0.1095
 4155W        W 7899   5.797   6.790  10.782 -0.3297 -0.1618  0.0585
 4156W        W 7900   5.881   9.262   0.664 -0.2406  0.2419 -0.1602
 4157W        W 7901   2.408   3.929  11.156  0.1463  0.1114 -0.0625
 4158W        W 7902   9.186   6.914   3.990 -0.1245 -0.1406 -0.0110
 4159W        W 7903   0.956   7.737   9.891 -0.1754 -0.3743  0.0321
 4160W        W 7904   4.201   1.313   0.767 -0.3050  0.2174  0.2119
 4161W        W 7905   7.074   7.158   3.593 -0.0543 -0.0842 -0.1945
 4162W        W 7906   5.061   8.602   9.052  0.0255  0.4539 -0.0323
 4163W        W 7907   9.325   9.346   3.164  0.1425  0.0268 -0.1104
 4164W        W 7908   9.669   6.526  12.437  0.1978  0.2357  0.2466
 4165W        W 7909   4.551   0.383  11.812  0.0718  0.1404 -0.0165
 4166W        W 7910   7.563   4.725   4.760 -0.0456  0.1704 -0.2145
 4167W        W 7911   6.130   5.953   3.796  0.1084 -0.5052 -0.1274
 4168W        W 7912   6.618   8.470  10.687 -0.5479  0.3135 -0.1501
 4169W        W 7913   3.472   8.576   3.795 -0.0861  0.0578 -0.1299
 4170W        W 7914   7.675   8.645  11.266 -0.1564 -0.2397 -0.0575
 4171W        W 7915   6.313   6.471   0.718  0.0508  0.2989 -0.3947
 4172W        W 7916   6.176   9.812   9.947 -0.0527 -0.0863  0.2747
 4173W        W 7917   3.519   9.706   3.355 -0.0533 -0.1855  0.0051
 4174W        W 7918   4.311   3.251   0.928 -0.2302  0.1607 -0.1532
 4175W        W 7919   9.573   6.397  11.373 -0.0714  0.0667 -0.2887
 4176W        W 7920   3.170   5.208   2.443  0.2348  0.2669 -0.1616
 4177W        W 7921   2.796   6.711   1.571 -0.1287 -0.1383 -0.1193
 4178W        W 7922   6.332   5.978   8.738  0.1514 -0.0795  0.1689
 4179W        W 7923   9.414   2.065   3.464  0.1084 -0.0540 -0.0818
 4180W        W 7924   7.078   3.459   3.818 -0.0424 -0.1904 -0.0152
 4181W        W 7925   9.454   9.206   3.669  0.0755 -0.1201 -0.1100
 4182W        W 7926   0.030   3.479  11.980 -0.1477  0.2469  0.0132
 4183W        W 7927   8.861   4.675  12.589 -0.1498 -0.2995 -0.0171
 4184W        W 7928   1.318   9.159   0.181  0.3376  0.3035 -0.2910
 4185W        W 7929   4.426   4.344   0.110 -0.1150  0.3226  0.3214
 4186W        W 7930   2.487   6.590   3.797  0.0261  0.1287  0.1253
 4187W        W 7931   2.691   1.669  10.897 -0.1099  0.0172  0.4837
 4188W        W 7932   8.773   2.463  10.464 -0.1852  0.2200 -0.3289
 4189W        W 7933   9.424   7.125   2.036  0.1580  0.2886  0.0539
 4190W        W 7934   5.735   8.077   4.390 -0.0808  0.1033  0.0532
 4191W        W 7935   8.291   2.361  10.548  0.1713  0.4122 -0.1534
 4192W        W 7936   8.489   4.927  10.668 -0.3526 -0.0410  0.0329
 4193W        W 7937   6.236   4.898   1.877  0.2761 -0.1881  0.0104
 4194W        W 7938   9.437   2.309   8.399 -0.0213 -0.1027  0.3307
 4195W        W 7939   8.559   9.070   4.493 -0.1217 -0.0809 -0.0608
 4196W        W 7940   5.411   4.555   2.479  0.1265  0.0047  0.0239
 4197W        W 7941   5.400   2.735   9.506 -0.3709  0.1694 -0.1394
 4198W        W 7942   2.663   2.996   3.456 -0.0322 -0.1572  0.3313
 4199W        W 7943   3.877   8.360   4.083 -0.0368 -0.0467 -0.2859
 4200W        W 7944   6.586   9.532   9.721 -0.0236 -0.2799 -0.3565
 4201W        W 7945   2.791   0.962   1.484 -0.2450 -0.1813 -0.0978
 4202W        W 7946   9.841   9.065   2.578 -0.0311 -0.0120 -0.0398
 4203W        W 7947   3.199   8.909   9.767 -0.0584 -0.1384  0.2409
 4204W        W 7948   8.807   8.842   1.168  0.0400  0.2401  0.0435
 4205W        W 7949   2.361   0.108   3.508 -0.1573  0.1946  0.1908
 4206W        W 7950   1.663   1.672  11.326  0.4111  0.2066  0.1693
 4207W        W 7951   0.983   6.015   9.781  0.3516  0.0017 -0.2223
 4208W        W 7952   1.676   3.573   2.349  0.0312  0.1544 -0.1250
 4209W        W 7953   6.140   7.540   9.029 -0.2803 -0.0459 -0.1657
 4210W        W 7954   2.340   1.367   9.429  0.0062  0.1086 -0.0442
 4211W        W 7955   4.788   8.767  11.866 -0.2633  0.0064 -0.3053
 4212W        W 7956   7.896   8.734   0.171 -0.1868 -0.1309 -0.1312
 4213W        W 7957   9.547   0.498   3.859 -0.1331 -0.0927  0.0004
 4214W        W 7958   6.177   2.109   2.096  0.2027 -0.0572 -0.1581
 4215W        W 7959   8.034   5.082  10.909 -0.0441 -0.2108  0.0165
 4216W        W 7960   3.657   2.391   0.632  0.3676 -0.1446  0.2138
 4217W        W 7961   3.748   9.270   3.164  0.1325  0.0803  0.0557
 4218W        W 7962   3.789   8.896  10.288  0.1117  0.1556  0.0391
 4219W        W 7963   7.167   7.655   2.369  0.0278 -0.3223  0.2495
 4220W        W 7964   3.804   9.026   0.611  0.4584  0.2888  0.0008
 4221W        W 7965   3.855   2.367  12.176 -0.2102 -0.0217 -0.1732
 4222W        W 7966   5.805   0.309  12.411  0.1929  0.3937  0.1878
 4223W        W 7967   5.687   7.541   4.092 -0.2043  0.3764 -0.3899
 4224W        W 7968   0.158   9.509   2.730  0.2588  0.0703  0.4257
 4225W        W 7969   6.677   9.896   1.706 -0.1617 -0.0780  0.0622
 4226W        W 7970   2.030   2.742   2.775 -0.2779 -0.0915 -0.1171
 4227W        W 7971   2.215   6.637  10.990 -0.0431  0.1218  0.0425
 4228W        W 7972   3.507   4.770  12.394  0.0660 -0.4711  0.1742
 4229W        W 7973   9.477   0.089   2.581  0.1680 -0.0228 -0.1410
 4230W        W 7974   8.261   9.556   3.587 -0.0640 -0.1229 -0.2669
 4231W        W 7975   8.626   6.445  11.378  0.0931  0.4837  0.2116
 4232W        W 7976   6.908   3.157   3.453  0.1989  0.3257 -0.0458
 4233W        W 7977   1.193   8.906   2.438 -0.0453  0.1494  0.1160
 4234W        W 7978   5.667   5.439   3.257  0.1917 -0.3142  0.0827
 4235W        W 7979   1.238   8.434   8.197 -0.2372 -0.0793  0.1227
 4236W        W 7980   9.363   6.187  12.505  0.1133  0.3218  0.0497
 4237W        W 7981   3.109   5.636   0.180 -0.2577 -0.0473  0.0607
 4238W        W 7982   9.508   7.243   9.065 -0.0355  0.1540 -0.1521
 4239W        W 7983   6.206   9.672  11.019 -0.1012  0.1715  0.1676
 4240W        W 7984   9.128   4.495   3.215  0.0564 -0.4345 -0.0818
 4241W        W 7985   1.464   1.395  11.704  0.0967 -0.0199  0.3312
 4242W        W 7986   7.627   5.794   1.100  0.1341 -0.0085 -0.0720
 4243W        W 7987   4.202   0.464   8.147  0.0545  0.0060  0.2789
 4244W        W 7988   5.295   9.687  10.547 -0.2024  0.3247 -0.1448
 4245W        W 7989   6.846   5.662   3.225 -0.0314 -0.2767  0.0478
 4246W        W 7990   5.857   6.180   8.818  0.1951  0.0848 -0.2718
 4247W        W 7991   8.019   7.151   2.952  0.1278 -0.0581  0.0700
 4248W        W 7992   0.695   0.164  11.603 -0.0196 -0.2019 -0.0423
 4249W        W 7993   5.352   5.207  10.563  0.0972  0.0351  0.0946
 4250W        W 7994   0.653   0.305   1.238  0.0662  0.0237  0.1139
 4251W        W 7995   2.330   2.052   3.279  0.0952  0.3051 -0.2636
 4252W        W 7996   6.474   6.680  11.940 -0.2018  0.0459 -0.3602
 4253W        W 7997   3.512   1.976   2.328 -0.0175  0.1968  0.1690
 4254W        W 7998   0.072   1.078  10.723 -0.0063 -0.3527 -0.0079
 4255W        W 7999   6.188   0.197  10.292 -0.0021  0.1725 -0.2598
 4256W        W 8000   6.542   1.161   3.869  0.1050  0.0913  0.1871
 4257W        W 8001   6.535   0.606   9.038  0.3766 -0.0392 -0.0586
 4258W        W 8002   5.035   5.481  11.743  0.0446  0.1462 -0.1523
 4259W        W 8003   3.995   4.977   2.843  0.2252 -0.1920 -0.1849
 4260W        W 8004   5.020   4.615   9.738  0.0489  0.2256 -0.0068
 4261W        W 8005   3.074   6.348  12.331  0.1420 -0.1420  0.3517
 4262W        W 8006   5.567   7.154  11.314 -0.0517  0.2356 -0.1753
 4263W        W 8007   8.603   5.466   2.011  0.0177  0.0476  0.0362
 4264W        W 8008   1.700   9.881   4.334  0.3027 -0.1989 -0.1779
 4265W        W 8009   8.958   7.289  12.672  0.3139  0.1526  0.0508
 4266W        W 8010   7.911   6.983  10.912 -0.2985 -0.0280  0.1695
 4267W        W 8011   8.354   8.291   1.826  0.2881  0.2373  0.1161
 4268W        W 8012   2.083   1.670   4.002  0.0446 -0.0524 -0.0528
 4269W        W 8013   8.008   2.330   1.786  0.4474 -0.0000 -0.1920
 4270W        W 8014   0.108   2.417   3.980 -0.0130  0.1294 -0.2032
 4271W        W 8015   7.214   8.990   4.183 -0.2738 -0.2705 -0.1405
 4272W        W 8016   2.966   3.073   2.591 -0.0407  0.3001 -0.2566
 4273W        W 8017   2.867   3.797   1.487 -0.2496  0.0381  0.1278
 4274W        W 8018   8.030   5.601   3.755  0.2598 -0.0596  0.0835
 4275W        W 8019   6.185   7.395   4.041  0.0886 -0.1240 -0.3365
 4276W        W 8020   8.094   9.109   3.132 -0.0708  0.1603  0.1849
 4277W        W 8021   2.709   2.238   2.643 -0.0549 -0.2181 -0.0273
 4278W        W 8022   2.487   8.861   0.669 -0.0287 -0.2092 -0.0511
 4279W        W 8023   5.030   2.485  10.628  0.1935  0.2563 -0.1500
 4280W        W 8024   3.070   4.470  12.521  0.1410  0.0114  0.0744
 4281W        W 8025   4.786   1.172   0.358 -0.1967  0.1427 -0.0269
 4282W        W 8026   1.804   5.426  11.967  0.0999  0.0011  0.2128
 4283W        W 8027   0.828   3.893   2.748  0.0374  0.0868 -0.1482
 4284W        W 8028   3.384   2.523  12.112 -0.3302 -0.3079 -0.2195
 4285W        W 8029   0.224   1.364   9.588 -0.4278  0.5938  0.2234
 4286W        W 8030   7.655   2.410  10.505 -0.0951  0.0255  0.0132
 4287W        W 8031   4.769   7.767   2.593  0.1206  0.0081  0.1881
 4288W        W 8032   8.144   8.904   4.298  0.0889 -0.4788  0.0779
 4289W        W 8033   4.837   6.410  12.489  0.2690 -0.2112  0.0545
 4290W        W 8034   6.266   9.225  11.130 -0.1129  0.0383 -0.0414
 4291W        W 8035   2.253   3.447   4.105  0.0062 -0.2232  0.2873
 4292W        W 8036   5.659   3.080  12.694  0.0230  0.0768 -0.0699
 4293W        W 8037   7.348   3.046   9.530 -0.1125 -0.0568  0.0222
 4294W        W 8038   9.769   1.459  10.859  0.1282 -0.1944  0.0017
 4295W        W 8039   7.904   6.367   0.267 -0.2364 -0.0385 -0.2251
 4296W        W 8040   5.458   3.559   1.598 -0.2495  0.3407  0.0146
 4297W        W 8041   0.354   1.311   3.835 -0.4361 -0.1588 -0.1026
 4298W        W 8042   5.491   0.993  12.372 -0.2433 -0.1084  0.1363
 4299W        W 8043   6.283   2.292   9.833  0.0716 -0.1022  0.2248
 4300W        W 8044   3.271   3.757   3.478  0.0411  0.1130  0.2468
 4301W        W 8045   2.976   8.627   3.861  0.2177  0.1475  0.2301
 4302W        W 8046   6.282   4.187   3.038  0.0292  0.2075  0.1612
 4303W        W 8047   4.102   3.670   3.727 -0.3279  0.2058 -0.0222
 4304W        W 8048   7.557   3.064  12.710 -0.2982 -0.1562 -0.2688
 4305W        W 8049   1.748   8.766   2.405 -0.2048 -0.1821  0.0387
 4306W        W 8050   4.884   5.032   1.569 -0.2072  0.2972 -0.0136
 4307W        W 8051   1.279   2.456   4.330  0.2434 -0.0185 -0.1668
 4308W        W 8052   5.190   8.802   0.059  0.1417  0.1644  0.2498
 4309W        W 8053   5.382   6.693   0.735 -0.0850 -0.3687  0.0062
 4310W        W 8054   4.415   3.332   9.311  0.0470 -0.0318  0.1776
 4311W        W 8055   2.504   1.705   9.009 -0.0717 -0.2874  0.1080
 4312W        W 8056   2.876   9.679  11.951  0.0622 -0.0121 -0.0468
 4313W        W 8057   4.482   4.545   9.712  0.0877  0.1040  0.0063
 4314W        W 8058   3.691   9.669   9.664 -0.1280 -0.3004 -0.0321
 4315W        W 8059   1.252   8.562   8.726 -0.0621  0.1762 -0.1218
 4316W        W 8060   8.921   7.414   2.005  0.1251 -0.0318  0.3253
 4317W        W 8061   5.829   9.788   1.484 -0.1932  0.0893  0.1277
 4318W        W 8062   1.943   5.503   9.057  0.1300  0.2389 -0.1197
 4319W        W 8063   4.166   7.218   0.194 -0.1202  0.0540  0.0335
 4320W        W 8064   0.618   8.072   3.604  0.2389  0.1769 -0.3109
 4321W        W 8065   6.743   6.235   2.286 -0.0256  0.3637 -0.0551
 4322W        W 8066   2.515   1.774   1.816 -0.2597 -0.0300  0.0024
 4323W        W 8067   8.232   4.278  12.155  0.1246  0.1188  0.1511
 4324W        W 8068   4.582   9.865  10.602 -0.2422  0.4824  0.2749
 4325W        W 8069   0.993   4.234  11.386  0.0786  0.1544  0.3336
 4326W        W 8070   6.915   8.037   1.513 -0.0021  0.1497  0.0499
 4327W        W 8071   9.122   4.998  11.253  0.1200  0.0525  0.1380
 4328W        W 8072   2.553   6.313  10.529  0.1526  0.1850  0.0345
 4329W        W 8073   8.190   0.038   3.237  0.5809 -0.0609 -0.1749
 4330W        W 8074   6.043   3.487   9.139  0.1729  0.0739 -0.1521
 4331W        W 8075   6.060   4.031   0.005 -0.0268 -0.2712  0.0389
 4332W        W 8076   8.618   7.954   0.069  0.0572 -0.1374  0.1689
 4333W        W 8077   4.758   7.225   4.285  0.0181 -0.4452  0.1930
 4334W        W 8078   9.347   0.199   3.017 -0.1868 -0.1351 -0.2657
 4335W        W 8079   0.612   4.424  11.030 -0.1213  0.1334 -0.0985
 4336W        W 8080   0.952   0.728   3.766 -0.2115 -0.0125 -0.0859
 4337W        W 8081   1.220   0.079   4.156 -0.2433 -0.1486 -0.1917
 4338W        W 8082   4.436   7.521   3.967  0.0271 -0.0975  0.0012
 4339W        W 8083   2.604   3.439   1.785  0.3231 -0.2734  0.0433
 4340W        W 8084   8.286   2.574   0.397 -0.2770  0.1843 -0.1294
 4341W        W 8085   0.981   2.591  10.538  0.0394  0.1936 -0.2567
 4342W        W 8086   7.844   0.433  12.076 -0.2309  0.2200  0.0425
 4343W        W 8087   7.276   9.211   8.739  0.4975  0.0236 -0.0117
 4344W        W 8088   5.318   5.814  10.571 -0.5293 -0.1502 -0.0298
 4345W        W 8089   5.813   4.535   0.508 -0.1859 -0.1362  0.0043
 4346W        W 8090   0.149   9.380  11.747  0.0114 -0.0868  0.3736
 4347W        W 8091   7.247   9.002   3.556  0.2059  0.1638  0.2913
 4348W        W 8092   1.977   6.497   3.131 -0.2764 -0.1825  0.3015
 4349W        W 8093   4.758   9.912  11.526 -0.1232 -0.2058  0.0153
 4350W        W 8094   7.811   5.414   0.827  0.2838 -0.1104 -0.0511
 4351W        W 8095   8.953   9.035   3.918  0.0027 -0.0571  0.0013
 4352W        W 8096   4.506   5.740  10.394 -0.0425  0.1567  0.0798
 4353W        W 8097   8.916   3.823   2.231  0.0161 -0.2794 -0.1976
 4354W        W 8098   4.237   4.901   9.462  0.0245  0.2969  0.0086
 4355W        W 8099   1.872   9.452  10.123 -0.1552  0.0493 -0.1425
 4356W        W 8100   7.932   9.368  11.360  0.0147  0.0389 -0.0375
 4357W        W 8101   6.744   1.110  12.540  0.2154  0.0320  0.0991
 4358W        W 8102   1.293   6.635  12.335 -0.0512  0.1058 -0.1856
 4359W        W 8103   2.610   1.887  11.962 -0.3940  0.2699 -0.0619
 4360W        W 8104   1.625   1.946   4.001 -0.1798 -0.2039 -0.1488
 4361W        W 8105   7.699   3.324   1.561 -0.5369 -0.1362 -0.2849
 4362W        W 8106   0.768   0.019   4.449 -0.2047  0.1772 -0.2371
 4363W        W 8107   3.164   1.770  10.032  0.0209 -0.1559  0.1206
 4364W        W 8108   8.199   8.849   9.681 -0.1014  0.1878  0.1734
 4365W        W 8109   0.706   9.173   1.699  0.0918  0.2611  0.1507
 4366W        W 8110   9.415   4.932  12.449 -0.3604 -0.1395  0.3631
 4367W        W 8111   5.579   7.014   8.389  0.2137  0.2746 -0.0226
 4368W        W 8112   7.629   7.509   1.478 -0.0121  0.1477 -0.1185
 4369W        W 8113   4.713   0.612   2.821  0.1691 -0.1161  0.2717
 4370W        W 8114   0.543   1.748  11.493 -0.0394 -0.3724 -0.1087
 4371W        W 8115   1.093   4.568  12.252 -0.3138 -0.0967  0.0635
 4372W        W 8116   2.338   1.284   1.395  0.1462 -0.1514 -0.0222
 4373W        W 8117   6.853   7.930  11.176 -0.3630  0.0651 -0.2428
 4374W        W 8118   8.193   3.932   3.393 -0.1609 -0.1399 -0.2299
 4375W        W 8119   0.345   9.551   3.241  0.2173 -0.1264  0.0653
 4376W        W 8120   5.451   0.781   1.163  0.0399  0.1915 -0.1989
 4377W        W 8121   8.275   0.238  10.284  0.1000 -0.1391  0.0436
 4378W        W 8122   2.208   5.441   1.750  0.2053  0.1830  0.2738
 4379W        W 8123   9.247   7.479   2.383  0.4486 -0.2437 -0.0502
 4380W        W 8124   3.554   4.303   3.169 -0.2415 -0.0523 -0.1124
 4381W        W 8125   9.275   2.928  12.702  0.2975  0.0876 -0.0138
 4382W        W 8126   5.759   7.366  11.726  0.0476  0.0792  0.0499
 4383W        W 8127   9.272   3.100   2.426 -0.3462 -0.0496  0.0141
 4384W        W 8128   1.801   4.237   0.916 -0.3791  0.1391 -0.3284
 4385W        W 8129   5.751   1.645   3.901  0.1399 -0.3249 -0.0343
 4386W        W 8130   9.184   4.483  11.789 -0.0312  0.0379  0.2334
 4387W        W 8131   5.619   2.219   4.982 -0.1382 -0.0505 -0.0284
 4388W        W 8132   0.398   8.646   4.190  0.4382 -0.0618  0.2043
 4389W        W 8133   0.228   3.033   3.420 -0.0684  0.0099  0.0734
 4390W        W 8134   2.375   7.641   3.820  0.0179 -0.3149  0.4199
 4391W        W 8135   9.267   1.820   9.534 -0.0008 -0.0489  0.3189
 4392W        W 8136   2.966   8.280   0.081 -0.2103  0.3425  0.0910
 4393W        W 8137   6.549   3.346  11.168 -0.2729  0.2031  0.0597
 4394W        W 8138   3.694   6.223  11.719  0.1097 -0.1044 -0.1386
 4395W        W 8139   3.193   4.707  11.994 -0.0943 -0.2807  0.1285
 4396W        W 8140   7.434   9.356   4.699 -0.2596  0.0674  0.0600
 4397W        W 8141   3.177   3.978  12.573 -0.2489 -0.2344 -0.2674
 4398W        W 8142   8.969   2.985   9.427 -0.3220 -0.2724  0.1271
 4399W        W 8143   2.889   2.459   0.064  0.0565  0.0951  0.1076
 4400W        W 8144   6.822   2.370  11.413 -0.2276  0.2522  0.1074
 4401W        W 8145   5.116   2.096   1.568 -0.0219 -0.0691 -0.1535
 4402W        W 8146   2.665   2.596   3.910  0.1744  0.1795  0.0365
 4403W        W 8147   5.650   4.381  11.838 -0.1261  0.0503  0.1032
 4404W        W 8148   2.649   8.071   0.335 -0.2662 -0.1995  0.1402
 4405W        W 8149   7.116   2.250   4.720  0.2124 -0.0683  0.0836
 4406W        W 8150   8.469   4.019  12.543 -0.0294 -0.2845 -0.1196
 4407W        W 8151   1.077   4.674  10.296 -0.3913 -0.0929 -0.1505
 4408W        W 8152   5.698   9.093   9.660 -0.0564 -0.1905 -0.0272
 4409W        W 8153   1.190   9.760   1.556  0.0156 -0.1463 -0.2153
 4410W        W 8154   8.940   6.079  11.138  0.4436  0.2699  0.0082
 4411W        W 8155   0.484   3.451   1.471  0.1082  0.0476  0.0733
 4412W        W 8156   5.771   5.842  11.797 -0.3509 -0.1991  0.4920
 4413W        W 8157   4.469   6.495   2.595  0.0419 -0.3086 -0.1190
 4414W        W 8158   8.321   9.309   8.339 -0.0434  0.0358 -0.0159
 4415W        W 8159   0.394   9.854   9.357  0.1551 -0.1398  0.2481
 4416W        W 8160   0.900   4.288   1.863  0.1265  0.1793  0.1011
 4417W        W 8161   9.702   7.306   1.193 -0.2065 -0.1235 -0.2384
 4418W        W 8162   9.582   1.014   2.959 -0.1383  0.0626  0.3883
 4419W        W 8163   9.402   9.571   9.514 -0.2147  0.2358  0.1057
 4420W        W 8164   6.604   7.036  11.600 -0.1925 -0.1513  0.2582
 4421W        W 8165   4.866   6.125   2.506 -0.2463  0.1526  0.2194
 4422W        W 8166   8.849   4.209  12.341  0.0299 -0.3703  0.1399
 4423W        W 8167   9.703   4.028   4.315 -0.1437  0.2585 -0.1034
 4424W        W 8168   4.961   5.970   0.625  0.3232 -0.0490  0.0115
 4425W        W 8169   5.571   5.720   9.030 -0.2407  0.0674  0.0313
 4426W        W 8170   5.794   4.191  10.277 -0.0777  0.2113  0.4615
 4427W        W 8171   1.841   5.226   2.845  0.2144  0.2189 -0.0271
 4428W        W 8172   6.524   3.091   9.561  0.0081 -0.0419 -0.0376
 4429W        W 8173   1.385   6.251  12.648  0.0893  0.1205  0.1635
 4430W        W 8174   5.363   4.284   0.490 -0.0623 -0.0755 -0.1206
 4431W        W 8175   3.208   6.754   1.283 -0.0022  0.0763  0.0132
 4432W        W 8176   7.305   0.336   2.442 -0.2216  0.0356 -0.2055
 4433W        W 8177   6.459   8.435   3.280 -0.3175  0.2027 -0.0565
 4434W        W 8178   1.380   4.252  10.983  0.4462  0.4117  0.0408
 4435W        W 8179   9.786   1.075   9.651 -0.0878 -0.1150  0.1423
 4436W        W 8180   7.417   3.882   3.523 -0.2254  0.4995  0.1686
 4437W        W 8181   9.942   6.429   2.273 -0.1188 -0.0110 -0.2394
 4438W        W 8182   6.052   2.930   1.827  0.1286  0.1752  0.2180
 4439W        W 8183   4.846   0.604   3.306  0.0683  0.0417 -0.2197
 4440W        W 8184   4.278   5.877  10.904  0.0691  0.0459 -0.1045
 4441W        W 8185   1.894   9.776   3.343 -0.1457 -0.1239 -0.2173
 4442W        W 8186   6.083   7.370   1.865  0.0750  0.0492 -0.0193
 4443W        W 8187   3.890   7.244   2.950 -0.3924  0.1224  0.0898
 4444W        W 8188   9.257   5.454   1.917 -0.0462 -0.0912 -0.1726
 4445W        W 8189   2.172   2.506  11.251 -0.0810 -0.1847  0.1518
 4446W        W 8190   2.444   6.318   9.826 -0.0138 -0.3920 -0.1551
 4447W        W 8191   5.849   2.836   3.272 -0.2724  0.2704  0.1461
 4448W        W 8192   8.745   1.007  11.499 -0.1903  0.2882 -0.2786
 4449W        W 8193   3.397   2.672   3.944 -0.0478  0.0769  0.3405
 4450W        W 8194   6.068   6.656  10.369 -0.1074 -0.0030 -0.0911
 4451W        W 8195   6.159   6.349   1.163 -0.0837  0.4075  0.1020
 4452W        W 8196   7.109   7.525   0.227  0.2178 -0.0028  0.0896
 4453W        W 8197   1.633   7.949   2.427  0.2844  0.0995  0.1979
 4454W        W 8198   0.085   3.630  10.921 -0.0956  0.1736 -0.3653
 4455W        W 8199   6.202   1.053   3.260  0.1139  0.1370 -0.1527
 4456W        W 8200   6.846   3.102   2.398  0.1578  0.1297 -0.1573
 4457W        W 8201   5.139   4.703   9.184  0.0483  0.2559 -0.0928
 4458W        W 8202   1.698   1.912   9.958 -0.0166 -0.0451  0.2514
 4459W        W 8203   3.925   4.539  12.604 -0.1180 -0.1835  0.1435
 4460W        W 8204   4.780   6.077  10.759  0.3634 -0.0712 -0.0867
 4461W        W 8205   6.397   4.691   3.076 -0.0419  0.0948 -0.0296
 4462W        W 8206   8.549   6.750   9.689 -0.1366  0.3352 -0.0559
 4463W        W 8207   4.229   6.758   0.324  0.1823  0.0192 -0.0005
 4464W        W 8208   0.754   3.533   0.042 -0.0990  0.0189 -0.2235
 4465W        W 8209   2.068   2.838  12.107 -0.0971  0.1274 -0.0057
 4466W        W 8210   1.858   7.730   0.113  0.4713  0.1772 -0.6088
 4467W        W 8211   1.930   2.548   9.413  0.1636 -0.2810 -0.2186
 4468W        W 8212   2.708   1.166   0.997  0.3977 -0.1563 -0.1507
 4469W        W 8213   6.982   3.996  10.429  0.0748  0.2120 -0.2357
 4470W        W 8214   1.488   2.343   4.780  0.2467  0.0043  0.1495
 4471W        W 8215   1.443   5.483  10.440 -0.2170  0.3527  0.5920
 4472W        W 8216   3.960   8.555  11.689 -0.0179  0.1068 -0.1475
 4473W        W 8217   7.899   1.609   3.489  0.0125 -0.1499  0.1123
 4474W        W 8218   5.488   3.718   0.317  0.4069 -0.0587 -0.1538
 4475W        W 8219   7.492   0.283   1.476 -0.0786  0.0861 -0.4288
 4476W        W 8220   8.877   6.596   9.195  0.1025  0.0196  0.0819
 4477W        W 8221   7.671   4.541   3.306  0.1739 -0.0788 -0.1672
 4478W        W 8222   5.660   3.316   0.575  0.7427 -0.0705  0.0270
 4479W        W 8223   1.170   8.399   1.225  0.2863  0.0055 -0.1383
 4480W        W 8224   2.450   3.676   9.672  0.2935  0.0178 -0.4000
 4481W        W 8225   9.814   9.632  12.175 -0.0630  0.1231  0.1048
 4482W        W 8226   7.462   2.389   0.794 -0.0425 -0.2135 -0.4592
 4483W        W 8227   9.875   4.825   9.792 -0.0373 -0.0834 -0.0397
 4484W        W 8228   5.994   7.580   4.485  0.0628  0.0287 -0.1922
 4485W        W 8229   6.998   0.448  12.451 -0.1243  0.0856 -0.1407
 4486W        W 8230   9.313   4.721   3.695  0.1274 -0.1495 -0.0654
 4487W        W 8231   3.412   8.261   0.980 -0.0897  0.5217 -0.1041
 4488W        W 8232   1.329   5.231  12.546 -0.0704  0.0974 -0.1007
 4489W        W 8233   3.996   6.494   1.348 -0.0909 -0.0469 -0.0776
 4490W        W 8234   6.177   8.500   9.247 -0.2008 -0.2169 -0.1633
 4491W        W 8235   8.344   0.145   1.543  0.0837  0.3422 -0.3786
 4492W        W 8236   8.259   5.435  10.537  0.0068  0.2086 -0.0541
 4493W        W 8237   0.428   6.149  12.471 -0.3058 -0.1270  0.2946
 4494W        W 8238   0.442   5.013   3.611  0.0402  0.0140  0.1229
 4495W        W 8239   6.380   1.845   2.563 -0.1012 -0.1813 -0.2676
 4496W        W 8240   7.270   9.286   2.120 -0.0182  0.0530  0.2554
 4497W        W 8241   5.453   4.139   3.753 -0.1509 -0.0550  0.1525
 4498W        W 8242   2.636   0.795   2.968  0.1665 -0.2457  0.0451
 4499W        W 8243   8.307   4.390   4.401  0.1673  0.0786  0.4567
 4500W        W 8244   1.431   0.335   9.239  0.0498 -0.1509  0.1024
 4501W        W 8245   5.248   6.188  10.289  0.1083 -0.1476  0.0837
 4502W        W 8246   6.140   6.592   4.431 -0.1592 -0.0774  0.6973
 4503W        W 8247   0.368   7.396   1.654 -0.3217  0.1108 -0.0214
 4504W        W 8248   6.898   0.204  10.680  0.3001  0.0157 -0.2174
 4505W        W 8249   4.888   9.091   2.764  0.0773  0.1607 -0.2562
 4506W        W 8250   0.410   7.353  12.341  0.2895 -0.0088  0.0186
 4507W        W 8251   5.049   4.503   3.904  0.0939  0.0522  0.0177
 4508W        W 8252   9.174   7.636  11.954 -0.1695 -0.0767  0.0932
 4509W        W 8253   4.787   4.989   9.348 -0.3624  0.0155 -0.0358
 4510W        W 8254   9.359   7.691  10.045 -0.1338  0.2092 -0.1776
 4511W        W 8255   3.486   0.419  12.044  0.1148  0.2815 -0.0144
 4512W        W 8256   2.557   3.098   2.892 -0.0396  0.1076 -0.4263
 4513W        W 8257   7.727   1.381   9.738 -0.3504 -0.1694 -0.2208
 4514W        W 8258   3.414   6.952   8.786  0.1396 -0.0818  0.0153
 4515W        W 8259   4.342   3.768  11.819 -0.1110 -0.3401 -0.2594
 4516W        W 8260   8.078   0.188  12.510  0.0441 -0.0081  0.0258
 4517W        W 8261   3.765   6.361  10.436  0.1158  0.0573  0.0002
 4518W        W 8262   3.874   3.661   0.528  0.5501  0.0480 -0.5592
 4519W        W 8263   6.106   5.963  10.625  0.3393 -0.0396 -0.3536
 4520W        W 8264   4.782   1.944   2.199  0.3520 -0.1650  0.0308
 4521W        W 8265   5.434   6.105   3.981  0.0867 -0.0636  0.3824
 4522W        W 8266   0.078   1.316   0.961  0.3261 -0.1271 -0.1888
 4523W        W 8267   6.954   8.904  10.104 -0.3273 -0.0011  0.1386
 4524W        W 8268   1.301   5.141   2.019 -0.1222  0.3052  0.2934
 4525W        W 8269   2.974   9.823  11.314  0.1372  0.2705 -0.1597
 4526W        W 8270   8.014   7.889   9.736 -0.3111 -0.0263 -0.2931
 4527W        W 8271   3.284   4.734   2.351 -0.0291 -0.0241  0.1479
 4528W        W 8272   0.592   0.624   0.873  0.1388  0.0486 -0.0906
 4529W        W 8273   5.286   2.445   3.661  0.1192  0.1436 -0.0285
 4530W        W 8274   6.129   3.823   2.748  0.0207 -0.2012  0.0469
 4531W        W 8275   4.984   6.883  11.766 -0.0593 -0.1763 -0.2044
 4532W        W 8276   1.244   7.729   0.673 -0.1182 -0.4635 -0.1715
 4533W        W 8277   7.534   5.031   3.249  0.0058 -0.2396 -0.5848
 4534W        W 8278   7.754   1.093   8.920  0.1870  0.0978  0.1736
 4535W        W 8279   6.462   9.010   5.166 -0.2372  0.0680 -0.3252
 4536W        W 8280   6.985   6.872   0.446  0.1241 -0.0624 -0.0344
 4537W        W 8281   2.783   9.786   2.414 -0.2309  0.1121  0.0542
 4538W        W 8282   3.698   4.381   2.238 -0.1412  0.0895  0.0859
 4539W        W 8283   2.394   7.634  11.234 -0.0186 -0.0341 -0.0357
 4540W        W 8284   3.531   9.752   2.018  0.0055  0.2366  0.0451
 4541W        W 8285   6.862   8.515   9.694 -0.0315  0.1623 -0.1645
 4542W        W 8286   6.186   8.565  10.499  0.0314 -0.0891  0.0970
 4543W        W 8287   6.331   6.877   1.030 -0.1576 -0.0494  0.0246
 4544W        W 8288   0.489   2.589   1.772 -0.0787  0.2463  0.2104
 4545W        W 8289   6.937   2.264   5.323 -0.3922 -0.1406 -0.2233
 4546W        W 8290   6.831   9.473   1.483  0.0534 -0.1690  0.0779
 4547W        W 8291   4.361   8.568   3.459 -0.2890 -0.2549 -0.0246
 4548W        W 8292   5.046   4.756  10.628 -0.1308  0.0493 -0.2750
 4549W        W 8293   0.745   7.844   0.640 -0.0523  0.1201  0.3178
 4550W        W 8294   2.497   2.125   9.798 -0.0471 -0.3120 -0.0645
 4551W        W 8295   6.667   9.688   0.181 -0.4197 -0.1433 -0.1717
 4552W        W 8296   1.198   4.822   0.492  0.2932  0.2181  0.0241
 4553W        W 8297   5.727   1.954   2.133  0.1559 -0.0401 -0.0167
 4554W        W 8298   4.366   6.530   3.139 -0.1026  0.1577 -0.0532
 4555W        W 8299   8.195   7.742  11.980 -0.2282  0.3121  0.2772
 4556W        W 8300   4.851   6.828   1.272 -0.1386 -0.0841 -0.4580
 4557W        W 8301   8.985   0.432   7.982 -0.1109 -0.1348  0.1483
 4558W        W 8302   6.356   4.926  12.778 -0.0868  0.0041 -0.3259
 4559W        W 8303   9.561   0.631   4.697  0.1733 -0.0512 -0.2135
 4560W        W 8304   0.702   7.107   1.465 -0.2799 -0.1373  0.0622
 4561W        W 8305   7.092   8.881   9.204  0.0810  0.0182 -0.1181
 4562W        W 8306   5.392   6.216   0.357 -0.0598  0.1929 -0.3269
 4563W        W 8307   8.801   1.738  11.081 -0.1572 -0.1352 -0.2749
 4564W        W 8308   4.532   8.025   3.510 -0.1840  0.2467  0.0320
 4565W        W 8309   8.443   1.644   9.163 -0.1941  0.0811  0.3189
 4566W        W 8310   2.064   4.643  10.313  0.1511 -0.2391  0.0382
 4567W        W 8311   4.402   7.279   0.675 -0.0318  0.1163 -0.0678
 4568W        W 8312   0.624   2.103   9.371 -0.0378 -0.1888 -0.2452
 4569W        W 8313   4.318   8.426   1.246  0.1609  0.1565  0.0928
 4570W        W 8314   1.025   8.744   1.859 -0.2477 -0.0235  0.0099
 4571W        W 8315   6.353   0.145   8.947  0.2210 -0.2445  0.2410
 4572W        W 8316   2.990   5.375  12.058 -0.4163 -0.0301 -0.2392
 4573W        W 8317   5.028   9.769   0.859 -0.3412  0.3508  0.0045
 4574W        W 8318   5.654   0.633   3.000  0.1430 -0.2598  0.0953
 4575W        W 8319   0.714   1.400  11.176  0.1354  0.0740  0.1758
 4576W        W 8320   5.002   7.048   2.101 -0.1099 -0.0257 -0.0678
 4577W        W 8321   7.528   4.474   0.072  0.0858  0.1601  0.0308
 4578W        W 8322   2.941   4.974  12.372  0.0789  0.2027 -0.0065
 4579W        W 8323   2.365   5.329  10.787  0.0488  0.1141  0.1374
 4580W        W 8324   0.221   9.864   8.375  0.2777  0.0423  0.0416
 4581W        W 8325   6.077   3.493  10.979 -0.1192 -0.0024  0.1342
 4582W        W 8326   4.913   1.605  10.443  0.4622  0.2874  0.2048
 4583W        W 8327   6.439   8.164   1.765 -0.2558 -0.0901 -0.1993
 4584W        W 8328   4.373   8.823   0.293  0.0493  0.3607  0.2584
 4585W        W 8329   3.669   8.278   8.589 -0.2933  0.0703 -0.0102
 4586W        W 8330   8.582   8.737   2.150 -0.1856 -0.0719 -0.0147
 4587W        W 8331   0.818   5.342   2.784  0.0477  0.1890 -0.1701
 4588W        W 8332   2.943   1.916   2.345 -0.1809 -0.1669  0.0042
 4589W        W 8333   4.057   0.135   1.863 -0.0426 -0.0185  0.2389
 4590W        W 8334   0.820   0.751   2.107 -0.0373  0.0026  0.0418
 4591W        W 8335   0.035   0.428   3.652  0.0467  0.1300  0.2159
 4592W        W 8336   3.067   1.127  12.113  0.0092  0.1827 -0.2163
 4593W        W 8337   2.627   6.245   3.349 -0.0536 -0.3247  0.0055
 4594W        W 8338   6.104   2.563  12.238 -0.2645  0.3599 -0.2465
 4595W        W 8339   6.119   3.044   3.902  0.1438  0.0105  0.0010
 4596W        W 8340   6.010   1.580   2.314 -0.1802  0.1774 -0.3042
 4597W        W 8341   8.048   4.755   1.943  0.0892 -0.0148 -0.2510
 4598W        W 8342   1.747   0.254   2.132 -0.2496 -0.0669 -0.3896
 4599W        W 8343   1.367   2.321   3.096 -0.2521 -0.1831  0.2520
 4600W        W 8344   0.303   5.356  10.938 -0.2349  0.1619 -0.1518
 4601W        W 8345   4.193   3.979  12.568  0.2729 -0.0955 -0.2487
 4602W        W 8346   9.459   1.469   2.621  0.0552  0.0512 -0.3207
 4603W        W 8347   3.227   3.802  10.604  0.1930 -0.3288  0.1892
 4604W        W 8348   0.767   3.024   9.454 -0.0208 -0.2015 -0.0575
 4605W        W 8349   9.850   0.446   2.885  0.2877  0.2246 -0.1618
 4606W        W 8350   7.251   8.329  11.234  0.2630  0.0596  0.2110
 4607W        W 8351   3.875   1.155  12.401 -0.0887  0.2098 -0.0394
 4608W        W 8352   5.952   9.418  12.092  0.0050  0.3582 -0.0339
 4609W        W 8353   2.262   2.276  12.082 -0.0850  0.2302 -0.0941
 4610W        W 8354   7.850   6.193  11.867  0.4898  0.2441  0.2112
 4611W        W 8355   2.628   0.345  10.517  0.0012 -0.2852  0.2545
 4612W        W 8356   5.566   1.774  10.205  0.1448 -0.2828 -0.2855
 4613W        W 8357   2.386   6.898  12.653 -0.0886 -0.0340  0.2074
 4614W        W 8358   1.577   3.404   2.857  0.1495 -0.1368  0.0498
 4615W        W 8359   6.840   2.686   3.572  0.0590  0.1624 -0.0826
 4616W        W 8360   0.321   5.232   3.211  0.1154  0.3505  0.1536
 4617W        W 8361   3.610   0.416   1.430 -0.0222  0.3977 -0.0633
 4618W        W 8362   0.151   1.756   0.626  0.0080  0.1259  0.0446
 4619W        W 8363   6.191   3.071  11.424 -0.0849  0.1006  0.2298
 4620W        W 8364   9.682   6.798  11.002  0.2221  0.2222 -0.1723
 4621W        W 8365   9.231   6.662  12.196  0.1800 -0.3865  0.1267
 4622W        W 8366   5.795   6.747   3.417 -0.1230  0.3155  0.1967
 4623W        W 8367   8.403   2.142   8.416  0.0074 -0.1618 -0.0735
 4624W        W 8368   1.360   0.848   8.962 -0.1293  0.2616 -0.0577
 4625W        W 8369   2.912   5.926  11.826 -0.0528  0.3413  0.1656
 4626W        W 8370   0.462   2.575   3.020 -0.0801  0.1038  0.0733
 4627W        W 8371   9.080   8.617   0.781  0.0726  0.0839 -0.0218
 4628W        W 8372   0.956   8.818   1.349  0.3952  0.0032  0.1587
 4629W        W 8373   9.153   7.420   1.103  0.1885  0.0647 -0.0698
 4630W        W 8374   5.260   3.729  11.320  0.0218 -0.1435 -0.0905
 4631W        W 8375   9.855   5.928  10.649  0.0143  0.4988 -0.2837
 4632W        W 8376   1.436   4.718  11.180  0.0193 -0.1591 -0.0766
 4633W        W 8377   1.982   3.284   0.537 -0.0238 -0.0089 -0.0152
 4634W        W 8378   6.842   9.578   2.053 -0.2304 -0.3627 -0.3072
 4635W        W 8379   5.487   4.816  10.960  0.0320 -0.3242 -0.0942
 4636W        W 8380   2.347   4.532   9.467  0.3304 -0.1596 -0.1158
 4637W        W 8381   4.057   7.355   9.082  0.0106  0.3365 -0.1871
 4638W        W 8382   8.701   2.276  12.762  0.1720 -0.0710  0.1592
 4639W        W 8383   5.215   5.192   9.172  0.0037 -0.4530  0.0509
 4640W        W 8384   5.039   3.330   1.734  0.3405 -0.1137  0.1503
 4641W        W 8385   2.862   0.813   4.664 -0.3280 -0.0572  0.2620
 4642W        W 8386   6.720   3.709   1.612  0.0983  0.0733  0.1165
 4643W        W 8387   4.704   9.956  10.083 -0.2486  0.2762  0.1480
 4644W        W 8388   8.377   9.764   2.255  0.3235 -0.1446 -0.2186
 4645W        W 8389   0.762   1.600   1.514  0.2249 -0.0427 -0.0141
 4646W        W 8390   9.521   7.011   3.162 -0.4388  0.0207 -0.2720
 4647W        W 8391   2.667   1.299   1.857  0.2656 -0.3930 -0.1723
 4648W        W 8392   6.718   5.096   3.838 -0.1193  0.0344  0.0642
 4649W        W 8393   6.891   3.191   9.242  0.0239  0.5020 -0.1174
 4650W        W 8394   8.557   0.271  12.258  0.1279  0.2089  0.2977
 4651W        W 8395   9.362   1.331   1.087  0.0512  0.1122  0.0707
 4652W        W 8396   7.730   4.556  10.419  0.4787  0.1438 -0.3378
 4653W        W 8397   9.234   1.837   3.967  0.0478  0.0772 -0.1059
 4654W        W 8398   5.588   6.459   4.643  0.2959 -0.1379 -0.3149
 4655W        W 8399   6.135   0.365   2.837  0.4291  0.3497 -0.2806
 4656W        W 8400   9.343   8.187   1.675 -0.0496  0.0129  0.0074
 4657W        W 8401   9.165   0.914   3.638  0.0961  0.1915  0.1723
 4658W        W 8402   9.015   1.916  11.512 -0.1019  0.1269  0.0100
 4659W        W 8403   6.429   0.435  10.712  0.0664 -0.0379  0.0776
 4660W        W 8404   3.614   2.903   2.986 -0.2717 -0.0478  0.0079
 4661W        W 8405   5.137   6.335   9.063  0.0742 -0.0305 -0.0331
 4662W        W 8406   7.566   3.547   3.856 -0.1429  0.2595  0.1064
 4663W        W 8407   1.906   8.071  11.659 -0.0677  0.0882  0.1711
 4664W        W 8408   3.028   0.831   3.355 -0.1878 -0.0710  0.2064
 4665W        W 8409   9.027   6.003   4.027  0.1603  0.0212 -0.2438
 4666W        W 8410   9.276   8.886   8.472 -0.0155  0.0577  0.0844
 4667W        W 8411   0.084   7.724   3.028  0.0640 -0.1935  0.0622
 4668W        W 8412   8.674   8.980   8.509 -0.1939 -0.3226 -0.0062
 4669W        W 8413   6.469   4.513   2.641  0.2464 -0.1593  0.2611
 4670W        W 8414   6.145   6.604   3.065 -0.0728 -0.0382  0.0378
 4671W        W 8415   5.371   4.839  12.016  0.1225  0.2538  0.0748
 4672W        W 8416   7.095   1.403   9.004  0.1020 -0.2928  0.2690
 4673W        W 8417   7.469   7.401   3.311  0.1052  0.0927 -0.0723
 4674W        W 8418   8.661   2.094   2.357  0.1872 -0.0197  0.1995
 4675W        W 8419   5.015   0.127  11.071 -0.1738  0.3059 -0.1740
 4676W        W 8420   1.158   6.848   1.019  0.3968  0.1479  0.0511
 4677W        W 8421   0.267   4.625   2.287 -0.1757 -0.0190 -0.0245
 4678W        W 8422   3.634   6.242   2.426 -0.1626 -0.1291  0.1023
 4679W        W 8423   6.362   3.916   3.787  0.0086  0.1060  0.3392
 4680W        W 8424   8.485   3.856  10.988  0.4324 -0.0143  0.0380
 4681W        W 8425   1.604   5.142   0.612  0.0772 -0.1884 -0.2507
 4682W        W 8426   0.136   2.670   0.208  0.0790 -0.1330  0.0024
 4683W        W 8427   5.426   9.861  11.483 -0.0187  0.0060  0.2669
 4684W        W 8428   9.294   0.204   0.406  0.2333 -0.0981  0.0044
 4685W        W 8429   7.392   9.492   2.746  0.3052 -0.1654 -0.0669
 4686W        W 8430   4.145   7.576  11.978 -0.0792  0.2671 -0.0971
 4687W        W 8431   3.361   2.425   1.937  0.1448 -0.2988 -0.1124
 4688W        W 8432   7.776   5.519  11.935 -0.1745 -0.0969  0.1530
 4689W        W 8433   6.351   3.377  10.521  0.0352 -0.0404 -0.0119
 4690W        W 8434   0.227   1.957   2.203 -0.1592 -0.0609  0.1330
 4691W        W 8435   3.490   5.995   0.372 -0.1058  0.1164  0.2164
 4692W        W 8436   5.318   9.481   1.436  0.0755 -0.0066  0.0150
 4693W        W 8437   3.213   4.988  10.845  0.0211  0.0374 -0.1987
 4694W        W 8438   7.210   4.143   1.168 -0.1227  0.0639  0.2539
 4695W        W 8439   2.167   8.231   9.686  0.0024 -0.0809 -0.3437
 4696W        W 8440   1.525   0.686   2.362  0.0819 -0.0502  0.0134
 4697W        W 8441   9.578   8.016  10.382 -0.1382  0.0977 -0.0111
 4698W        W 8442   8.154   2.460   2.240  0.2017 -0.0270  0.1680
 4699W        W 8443   4.896   6.537  10.575  0.2312  0.0852  0.0009
 4700W        W 8444   4.432   4.090   3.261  0.0213  0.0766 -0.0501
 4701W        W 8445   2.341   0.623   8.686  0.2536  0.4558 -0.0086
 4702W        W 8446   4.541   8.905   1.283 -0.0036 -0.2567 -0.1405
 4703W        W 8447   2.888   8.715  10.605 -0.3623 -0.3126  0.1438
 4704W        W 8448   1.121   0.130  11.309 -0.1159 -0.1603  0.0055
 4705W        W 8449   4.565   2.598  10.749  0.0084 -0.1759  0.0841
 4706W        W 8450   9.606   0.630  11.948 -0.2475  0.1561  0.0423
 4707W        W 8451   7.412   7.327   2.654 -0.1437  0.0707 -0.1784
 4708W        W 8452   4.340   7.074   3.909 -0.0942 -0.3423  0.3694
 4709W        W 8453   2.473   3.421  11.272  0.2588  0.0244  0.1796
 4710W        W 8454   7.955   3.597  10.965 -0.4191  0.1015  0.1387
 4711W        W 8455   9.622   7.765   2.683 -0.1311 -0.2919  0.3625
 4712W        W 8456   4.925   6.759   8.894 -0.1322  0.2809 -0.1561
 4713W        W 8457   8.125   4.801   3.168 -0.0238 -0.3252 -0.1707
 4714W        W 8458   4.827   9.128   9.481 -0.3974 -0.0727  0.3434
 4715W        W 8459   4.514   0.356   8.902 -0.1173  0.1428  0.0230
 4716W        W 8460   4.059   9.592   1.993 -0.1371 -0.2470 -0.1036
 4717W        W 8461   5.124   8.530  10.482  0.1779  0.1447  0.2720
 4718W        W 8462   2.358   0.950   9.061 -0.3685  0.0132  0.0693
 4719W        W 8463   5.746   6.559  12.533  0.1938 -0.3856 -0.1610
 4720W        W 8464   4.119   6.744   9.306  0.1751  0.0700 -0.1525
 4721W        W 8465   0.378   8.912   4.599  0.0628  0.0541  0.3320
 4722W        W 8466   5.249   3.822  11.838 -0.0881 -0.1836 -0.1243
 4723W        W 8467   6.582   1.071  11.561  0.2179  0.2116  0.2845
 4724W        W 8468   6.679   9.023   2.769 -0.0898  0.3605  0.0408
 4725W        W 8469   8.369   0.112   0.301  0.0270  0.0485  0.2638
 4726W        W 8470   9.820   9.540   0.328 -0.2404  0.0315  0.0278
 4727W        W 8471   7.334   0.787   2.162 -0.0087 -0.1748 -0.2328
 4728W        W 8472   3.723   7.636   2.461  0.1511  0.1704  0.2766
 4729W        W 8473   1.804   0.155   0.172 -0.1922 -0.4423 -0.0412
 4730W        W 8474   8.301   3.369   3.162  0.0626 -0.2824 -0.1221
 4731W        W 8475   5.222   1.810   8.819  0.1786 -0.0659  0.1189
 4732W        W 8476   1.691   8.674   4.548  0.0411  0.0342 -0.2217
 4733W        W 8477   6.010   0.400   0.423  0.4918 -0.0730 -0.2840
 4734W        W 8478   3.589   2.766  12.480  0.0880  0.0857  0.0563
 4735W        W 8479   3.882   1.167  11.610 -0.2651 -0.0668 -0.2055
 4736W        W 8480   4.165   8.556   8.592 -0.0738  0.2042 -0.0199
 4737W        W 8481   6.525   7.463   3.644 -0.4062 -0.1555 -0.0271
 4738W        W 8482   0.787   1.954  11.054 -0.1094  0.1926 -0.2770
 4739W        W 8483   4.692   2.829   9.903  0.4631 -0.0206 -0.0517
 4740W        W 8484   2.577   5.418   0.216  0.0584  0.0667  0.0494
 4741W        W 8485   7.040   9.168  10.589 -0.1807 -0.0143  0.0474
 4742W        W 8486   9.117   3.058   1.948  0.0848  0.0293 -0.0598
 4743W        W 8487   9.488   7.104   0.768 -0.0085 -0.3388 -0.0077
 4744W        W 8488   3.033   1.308   3.823 -0.2327  0.3740  0.1391
 4745W        W 8489   6.337   9.877   2.180 -0.0365 -0.0154  0.3091
 4746W        W 8490   3.587   1.891  11.251 -0.0073  0.1611  0.0298
 4747W        W 8491   9.350   3.949  12.392 -0.2470 -0.0841 -0.2924
 4748W        W 8492   5.719   7.616   9.429 -0.0150  0.1852  0.0544
 4749W        W 8493   1.337   3.713   0.120 -0.0242  0.0526  0.2410
 4750W        W 8494   7.108   0.645   0.522  0.4303  0.0833 -0.0571
 4751W        W 8495   8.148   9.908   2.710  0.2447 -0.0074 -0.0358
 4752W        W 8496   6.753   4.787   1.789 -0.0941  0.2793 -0.0441
 4753W        W 8497   2.038   7.876   2.203 -0.0967  0.0381 -0.0656
 4754W        W 8498   8.289   2.128   9.411 -0.1954 -0.0767  0.0504
 4755W        W 8499   3.670   9.084   3.627  0.1869  0.3334  0.0181
 4756W        W 8500   4.386   2.926  11.143 -0.0306 -0.1389  0.0425
 4757W        W 8501   7.278   4.908   1.617  0.2710  0.1526 -0.0891
 4758W        W 8502   5.868   8.699   0.690  0.3065  0.0954 -0.4255
 4759W        W 8503   6.024   5.935   1.658 -0.1107  0.0323 -0.1337
 4760W        W 8504   2.296   1.099  11.603  0.0162 -0.2760  0.0627
 4761W        W 8505   5.883   3.353   3.421 -0.0600 -0.0486  0.1233
 4762W        W 8506   7.016   8.650  11.902  0.0807  0.3916  0.0930
 4763W        W 8507   8.471   9.557   0.234 -0.1654 -0.1027 -0.0761
 4764W        W 8508   0.403   6.908  12.098 -0.0391  0.2098  0.0362
 4765W        W 8509   1.832   0.938   2.661  0.0054  0.4939 -0.1814
 4766W        W 8510   1.951   3.525   9.484 -0.0107 -0.2078  0.1610
 4767W        W 8511   4.891   7.399   9.664  0.0828  0.1301 -0.3827
 4768W        W 8512   4.915   3.472  11.125 -0.1453  0.2712  0.3798
 4769W        W 8513   1.549   4.146  11.546  0.2328 -0.0665 -0.1484
 4770W        W 8514   0.943   0.959   0.791 -0.1852  0.0580 -0.0581
 4771W        W 8515   6.425   7.016   2.928  0.3034 -0.0657 -0.3570
 4772W        W 8516   2.019   4.246   0.427  0.0124 -0.1267 -0.0263
 4773W        W 8517   9.602   5.187   0.601 -0.2091  0.1267 -0.0491
 4774W        W 8518   6.645   6.388   1.813  0.1329 -0.1221  0.0641
 4775W        W 8519   7.893   1.806   9.978 -0.4174 -0.0827 -0.0541
 4776W        W 8520   4.857   4.917  12.490 -0.0345  0.2366  0.1219
 4777W        W 8521   4.044   8.615   9.919  0.1701 -0.0077  0.3010
 4778W        W 8522   2.789   2.524   0.941  0.2478 -0.2204 -0.2049
 4779W        W 8523   8.651   2.044   4.129  0.0154  0.4049  0.2917
 4780W        W 8524   0.015   3.504   1.318  0.0715 -0.1928  0.2015
 4781W        W 8525   4.508   3.275  10.132  0.0118  0.1443  0.2303
 4782W        W 8526   6.994   2.153  11.966  0.3469 -0.1210 -0.1737
 4783W        W 8527   6.634   3.253   0.917 -0.3515  0.2392  0.0640
 4784W        W 8528   4.202   2.255   4.033 -0.0702  0.1447  0.3863
 4785W        W 8529   6.597   4.758  11.904 -0.3245 -0.1750 -0.1216
 4786W        W 8530   8.932   5.236   9.647  0.1008  0.2059  0.0648
 4787W        W 8531   1.271   9.876   3.256  0.0727  0.0989  0.0299
 4788W        W 8532   8.631   8.713   9.320 -0.2254 -0.1242  0.1022
 4789W        W 8533   6.462   1.997   9.496 -0.0644  0.0568  0.0588
 4790W        W 8534   3.381   7.666   0.269 -0.2826 -0.1227  0.3290
 4791W        W 8535   3.306   2.729   2.639  0.2905  0.0611 -0.2255
 4792W        W 8536   6.653   4.099   1.230 -0.2219  0.3015 -0.3271
 4793W        W 8537   7.670   1.217   1.828  0.0230 -0.3483  0.0404
 4794W        W 8538   5.390   9.930   9.149 -0.0110  0.2955 -0.1041
 4795W        W 8539   8.031   3.804  12.075 -0.1933 -0.0732  0.2666
 4796W        W 8540   0.056   0.098   9.862  0.0773 -0.0206  0.1656
 4797W        W 8541   7.516   5.643   2.119 -0.2704 -0.1412 -0.1334
 4798W        W 8542   6.406   5.832  11.038 -0.2456 -0.0560  0.2605
 4799W        W 8543   8.157   8.438   2.307 -0.2668 -0.1044 -0.2836
 4800W        W 8544   7.488   0.020   3.931  0.0342  0.0363 -0.0879
 4801W        W 8545   5.293   3.262   2.232 -0.0658  0.1491 -0.5270
 4802W        W 8546   1.846   1.138  11.338  0.0305 -0.0269  0.1015
 4803W        W 8547   1.179   1.087   9.852  0.3358 -0.1421  0.3000
 4804W        W 8548   7.938   0.160  10.662  0.2138 -0.0245  0.2970
 4805W        W 8549   3.373   0.219   0.224 -0.0638 -0.0628  0.0046
 4806W        W 8550   5.843   2.252  11.495  0.2008 -0.2211  0.0330
 4807W        W 8551   1.192   6.781   8.646  0.2430 -0.1170  0.2988
 4808W        W 8552   0.243   0.378  11.265 -0.1465 -0.1764 -0.3857
 4809W        W 8553   2.322   9.078  11.831 -0.1352 -0.0440  0.0926
 4810W        W 8554   9.744   6.589   0.485 -0.1731 -0.0086  0.0584
 4811W        W 8555   3.998   8.488   9.444 -0.1198  0.4111  0.0076
 4812W        W 8556   1.437   1.214   0.909 -0.0141  0.2860 -0.2351
 4813W        W 8557   0.378   7.872  12.439 -0.0256 -0.1160 -0.2487
 4814W        W 8558   3.406   4.644   4.284  0.3516  0.3050 -0.0767
 4815W        W 8559   8.675   0.587  11.890 -0.1062  0.0886  0.1145
 4816W        W 8560   0.845   7.541   2.190  0.0731  0.1957 -0.2090
 4817W        W 8561   4.783   9.895  11.993  0.1095  0.3539  0.3513
 4818W        W 8562   4.386   9.907  11.239 -0.1018 -0.0917  0.1602
 4819W        W 8563   2.405   4.138   2.802  0.0841  0.0192 -0.3158
 4820W        W 8564   2.061   4.273  10.647 -0.1408  0.0562  0.1322
 4821W        W 8565   6.834   9.024   2.243  0.2061  0.2387  0.0845
 4822W        W 8566   4.475   0.109   4.988 -0.2488 -0.0422 -0.0980
 4823W        W 8567   3.830   4.782   3.233  0.2001  0.0928 -0.4198
 4824W        W 8568   8.255   7.786  10.832  0.1712  0.1558 -0.0716
 4825W        W 8569   9.004   2.805  12.285  0.0470  0.0223 -0.1801
 4826W        W 8570   7.848   6.781  10.476  0.0779 -0.0768  0.1682
 4827W        W 8571   6.382   4.853   1.378  0.0253  0.0685 -0.2474
 4828W        W 8572   8.044   4.524   9.973  0.2563 -0.0620  0.0192
 4829W        W 8573   5.076   3.557   8.807 -0.0760 -0.1236 -0.0795
 4830W        W 8574   3.988   0.413   8.596 -0.2604  0.1582  0.0618
 4831W        W 8575   4.938   6.116   0.154  0.3136 -0.2032 -0.0151
 4832W        W 8576   7.629   9.900  12.633  0.0160 -0.0765  0.1344
 4833W        W 8577   6.267   3.384   1.757  0.2051  0.0962 -0.5710
 4834W        W 8578   8.717   6.588   1.210 -0.4502 -0.1097  0.0955
 4835W        W 8579   9.022   1.306   2.328  0.0535 -0.3557  0.4139
 4836W        W 8580   1.367   6.626   2.532 -0.2093  0.1943 -0.0516
 4837W        W 8581   8.778   6.855  12.384  0.0983 -0.1038 -0.0462
 4838W        W 8582   4.956   8.512   9.760 -0.0130  0.0540  0.0642
 4839W        W 8583   6.767   6.554  11.492  0.1789  0.1017 -0.0664
 4840W        W 8584   9.148   6.664  12.704 -0.3217 -0.1010 -0.0498
 4841W        W 8585   6.968   2.213   1.791  0.0075 -0.1201  0.0528
 4842W        W 8586   8.416   9.387  12.462 -0.1863 -0.1204  0.4280
 4843W        W 8587   6.696   3.368   1.987  0.2591  0.1478  0.2192
 4844W        W 8588   9.225   0.355   1.420 -0.1167 -0.0305  0.0586
 4845W        W 8589   1.883   0.775   3.653 -0.0959  0.1015 -0.1244
 4846W        W 8590   4.330   2.119   0.333  0.0287 -0.0826  0.1341
 4847W        W 8591   2.959   1.614  12.333  0.0835 -0.0951 -0.0009
 4848W        W 8592   9.205   1.226  12.729 -0.2148 -0.3117  0.1393
 4849W        W 8593   7.216   4.005   0.633  0.0629 -0.0228  0.0466
 4850W        W 8594   6.901   7.435   9.642  0.2305 -0.0446  0.0123
 4851W        W 8595   0.040   8.789   2.107  0.1195  0.1386  0.2867
 4852W        W 8596   0.311   8.972   8.468  0.4296  0.2163 -0.0094
 4853W        W 8597   5.635   3.448   2.516 -0.2422  0.0044 -0.0765
 4854W        W 8598   8.167   5.166   0.614 -0.3857  0.0353 -0.0352
 4855W        W 8599   3.321   3.003   9.236 -0.0509  0.0816 -0.1368
 4856W        W 8600   0.984   2.581   2.890 -0.2606 -0.2670  0.3443
 4857W        W 8601   0.468   1.074   0.710 -0.0236 -0.2810 -0.0878
 4858W        W 8602   4.251   3.184   8.873  0.1073 -0.1899  0.0196
 4859W        W 8603   7.369   4.625  12.351  0.3387  0.0101  0.0884
 4860W        W 8604   7.019   0.019   3.740 -0.0743  0.1405  0.0819
 4861W        W 8605   6.797   0.326  11.285 -0.0373  0.0715 -0.3772
 4862W        W 8606   9.200   6.721   0.460 -0.0014  0.0445 -0.0926
 4863W        W 8607   9.751   8.823   3.429  0.1271 -0.0325 -0.0243
 4864W        W 8608   3.999   7.114   9.611 -0.0675  0.0273 -0.0160
 4865W        W 8609   7.456   7.521  12.654 -0.1838 -0.0281  0.0326
 4866W        W 8610   7.795   7.700   2.882  0.0714  0.1155  0.0899
 4867W        W 8611   4.784   9.278  11.908  0.2031 -0.0026 -0.4072
 4868W        W 8612   7.599   7.843  11.821  0.1604 -0.0156 -0.1087
 4869W        W 8613   7.228   1.623   4.243 -0.0935  0.0584 -0.0324
 4870W        W 8614   8.768   2.395   0.514 -0.2458  0.1633 -0.0465
 4871W        W 8615   9.618   3.180  11.709  0.3247  0.0545  0.0129
 4872W        W 8616   5.057   5.174   0.536  0.0039 -0.0009  0.0811
 4873W        W 8617   7.242   9.874  11.416  0.1618  0.2150  0.1855
 4874W        W 8618   4.495   7.730  11.450  0.0611  0.1746 -0.2733
 4875W        W 8619   7.005   7.584   2.883  0.1166 -0.1802  0.0738
 4876W        W 8620   0.741   9.601   0.860 -0.2087 -0.0814 -0.2147
 4877W        W 8621   6.845   5.020  11.393 -0.4089 -0.0213  0.1702
 4878W        W 8622   1.232   0.643   9.565 -0.2285  0.1145 -0.3090
 4879W        W 8623   3.825   8.260  11.196 -0.0291 -0.1585  0.3160
 4880W        W 8624   1.468   8.667  11.200 -0.1244  0.0050  0.1244
 4881W        W 8625   7.843   1.908   3.069  0.0967  0.0460  0.1330
 4882W        W 8626   4.502   7.137  10.419 -0.3047  0.2186 -0.1073
 4883W        W 8627   0.099   8.137   8.885 -0.2153  0.1446  0.1840
 4884W        W 8628   4.265   7.320   2.077 -0.0454 -0.3005  0.2333
 4885W        W 8629   3.373   9.838   8.926 -0.0730  0.3423 -0.1939
 4886W        W 8630   5.242   2.893   0.813  0.2202  0.2071  0.0163
 4887W        W 8631   4.895   5.040   1.085  0.1743 -0.1088  0.2000
 4888W        W 8632   4.879   9.921   9.135 -0.0757  0.0884  0.0273
 4889W        W 8633   6.027   2.816   2.653  0.0946 -0.1940 -0.0407
 4890W        W 8634   5.329   6.780  10.821  0.1636  0.0331  0.2973
 4891W        W 8635   3.441   3.986   2.408  0.0850  0.0516 -0.0987
 4892W        W 8636   8.229   3.836   2.913 -0.3877 -0.0289 -0.0596
 4893W        W 8637   3.744   1.613   8.792 -0.0813 -0.1955 -0.0726
 4894W        W 8638   3.564   3.732   0.113  0.2016 -0.1615  0.1212
 4895W        W 8639   8.326   5.218   4.046 -0.3135 -0.0359  0.1033
 4896W        W 8640   9.345   2.204   9.806 -0.4742  0.1009  0.2412
 4897W        W 8641   9.958   0.124  12.350  0.1865  0.1305 -0.3189
 4898W        W 8642   9.713   4.264   1.845 -0.0999 -0.1164 -0.1276
 4899W        W 8643   2.704   9.727  12.557 -0.2407  0.6126 -0.1008
 4900W        W 8644   5.416   7.604  12.486  0.0454  0.2398  0.1610
 4901W        W 8645   3.649   2.429  11.660 -0.0471 -0.0506 -0.0039
 4902W        W 8646   4.073   5.160   0.389  0.0147  0.1443 -0.2233
 4903W        W 8647   3.815   7.136   3.852 -0.3620 -0.0151 -0.2757
 4904W        W 8648   8.677   6.071   3.409  0.0587 -0.2236 -0.0927
 4905W        W 8649   6.357   4.989  10.647 -0.2543  0.2664  0.0162
 4906W        W 8650   2.098   3.823   2.555 -0.0359 -0.2063  0.0355
 4907W        W 8651   8.543   5.473   3.145 -0.0934 -0.2874 -0.0574
 4908W        W 8652   8.136   9.486   5.328  0.3568  0.2468  0.0599
 4909W        W 8653   4.354   6.286  10.566 -0.1099  0.2749 -0.1756
 4910W        W 8654   2.770   2.969   1.862  0.0421  0.3091  0.1316
 4911W        W 8655   9.686   5.799   9.429  0.2261 -0.2940 -0.0689
 4912W        W 8656   4.072   0.857  11.967  0.2775 -0.0593  0.1486
 4913W        W 8657   8.070   6.393   0.849  0.0931 -0.0050  0.4295
 4914W        W 8658   6.249   5.501   1.560 -0.1770  0.0380  0.0856
 4915W        W 8659   8.512   7.174   2.961  0.0565 -0.2339  0.0125
 4916W        W 8660   3.145   0.127   1.513 -0.0686 -0.3569 -0.0698
 4917W        W 8661   2.505   5.830  10.716  0.0430 -0.1987 -0.0054
 4918W        W 8662   3.427   7.396  10.414 -0.1153 -0.0926  0.0475
 4919W        W 8663   5.309   9.934   4.699  0.4231 -0.0871 -0.0064
 4920W        W 8664   1.507   4.158  10.510 -0.2184  0.0636 -0.2399
 4921W        W 8665   3.135   0.351  10.675  0.0384  0.1249 -0.5505
 4922W        W 8666   1.710   6.991   3.291  0.1571  0.0131 -0.1386
 4923W        W 8667   0.413   6.425  11.970  0.1282 -0.0758 -0.1807
 4924W        W 8668   2.528   3.461  12.622  0.0195  0.1903  0.3517
 4925W        W 8669   4.138   2.655   8.947  0.2172  0.1677  0.0703
 4926W        W 8670   1.548   4.898   2.536  0.1132 -0.5022 -0.1185
 4927W        W 8671   2.042   2.069   1.121 -0.1741  0.0852 -0.0734
 4928W        W 8672   8.944   5.787   0.928  0.1220  0.0319  0.0387
 4929W        W 8673   0.795   0.615   0.446  0.1174  0.1410  0.3978
 4930W        W 8674   1.388   0.268   2.564  0.2254 -0.3422  0.1373
 4931W        W 8675   9.548   1.173   3.414 -0.0748 -0.1827  0.0028
 4932W        W 8676   6.201   1.499   3.079  0.2965 -0.3278 -0.4690
 4933W        W 8677   8.984   9.093  11.812 -0.1894  0.0937 -0.0869
 4934W        W 8678   1.845   1.349   1.517 -0.0749  0.0768 -0.1816
 4935W        W 8679   4.412   2.381   1.754 -0.0303  0.0121 -0.2825
 4936W        W 8680   6.691   3.214   1.470 -0.0931 -0.3685  0.1108
 4937W        W 8681   7.405   3.002  11.453  0.1614  0.1021  0.1292
 4938W        W 8682   9.734   4.013   0.435 -0.2374 -0.2436  0.0084
 4939W        W 8683   1.134   9.113   2.926 -0.1442  0.0565 -0.1666
 4940W        W 8684   7.196   2.797  12.256 -0.0959  0.3610  0.0053
 4941W        W 8685   6.149   2.021   1.419  0.2478  0.0827  0.4222
 4942W        W 8686   0.630   4.493  10.551  0.3218  0.0059  0.0890
 4943W        W 8687   4.242   1.837   3.303 -0.0296  0.0102 -0.3578
 4944W        W 8688   6.598   1.727   1.033 -0.0854 -0.2355  0.1286
 4945W        W 8689   4.781   2.222   2.717 -0.1130 -0.2111 -0.0443
 4946W        W 8690   2.992   9.293  11.351  0.3385 -0.1083  0.1049
 4947W        W 8691   3.955   3.268   2.087 -0.0607 -0.2338 -0.1046
 4948W        W 8692   3.784   2.152   8.058 -0.1304  0.0281 -0.1364
 4949W        W 8693   0.775   9.014   2.168 -0.1522 -0.1588  0.1601
 4950W        W 8694   1.175   6.354   0.792  0.1234 -0.3399 -0.0944
 4951W        W 8695   5.773   7.301   0.418  0.0563  0.3551  0.2753
 4952W        W 8696   2.887   0.760   1.980 -0.1657 -0.1153  0.1555
 4953W        W 8697   7.061   5.412   0.408  0.0790  0.1452  0.0780
 4954W        W 8698   5.501   5.735   1.887  0.1808  0.0461  0.2718
 4955W        W 8699   7.031   9.658  10.674  0.1211  0.0622 -0.1967
 4956W        W 8700   7.083   7.692   3.468  0.3691 -0.3857 -0.2357
 4957W        W 8701   0.901   2.102  11.553  0.1120 -0.0956  0.1481
 4958W        W 8702   2.734   8.017  11.201 -0.0103  0.2982  0.2062
 4959W        W 8703   7.136   3.096  11.851  0.0211  0.2081 -0.1255
 4960W        W 8704   2.667   5.896   0.160 -0.0309  0.2785 -0.2828
 4961W        W 8705   3.251   4.363   2.660  0.0033 -0.0078  0.0291
 4962W        W 8706   5.573   8.203  10.781  0.1628  0.0317 -0.0598
 4963W        W 8707   7.246   0.755   5.389 -0.3201  0.3372  0.0006
 4964W        W 8708   6.140   7.415  10.815  0.3257  0.0007 -0.3036
 4965W        W 8709   7.351   3.507  10.446  0.0033 -0.2873  0.1370
 4966W        W 8710   4.703   4.226   0.866 -0.1725  0.0244  0.1440
 4967W        W 8711   4.407   5.949   2.332 -0.2656  0.0331 -0.1402
 4968W        W 8712   5.233   9.146   4.913 -0.0684  0.3794 -0.0600
 4969W        W 8713   2.062   2.715   2.180  0.1891 -0.0903  0.0123
 4970W        W 8714   5.805   3.940  12.169 -0.2768  0.2120 -0.1744
 4971W        W 8715   2.113   3.250   9.878  0.3131 -0.0467 -0.1224
 4972W        W 8716   8.534   0.236   2.464  0.2980 -0.3274  0.2500
 4973W        W 8717   5.917   6.304   2.579  0.1727 -0.1267  0.0440
 4974W        W 8718   9.485   3.351   1.651  0.0879  0.0229  0.2048
 4975W        W 8719   5.382   4.647   0.934  0.0028 -0.0367  0.1131
 4976W        W 8720   5.724   0.500   0.863  0.3533  0.0412 -0.0878
 4977W        W 8721   6.485   9.499  11.974  0.1329  0.0776  0.1455
 4978W        W 8722   8.819   5.844  11.599 -0.0457 -0.2511  0.2604
 4979W        W 8723   3.875   1.796  12.219  0.1918 -0.1262  0.0842
 4980W        W 8724   5.828   0.915  10.086 -0.1670 -0.1194  0.1582
 4981W        W 8725   8.090   3.782   0.712 -0.0137  0.0186 -0.1115
 4982W        W 8726   5.282   8.790   9.477 -0.0400 -0.1713 -0.2534
 4983W        W 8727   5.212   9.682   3.508  0.0285 -0.3739  0.3422
 4984W        W 8728   6.819   4.473   9.254  0.1570 -0.2211  0.1570
 4985W        W 8729   8.052   5.308   3.298  0.0554  0.0224  0.2312
 4986W        W 8730   3.433   3.332   0.493  0.2086 -0.0292  0.1598
 4987W        W 8731   0.325   0.530  12.764  0.2453  0.0348  0.1443
 4988W        W 8732   7.849   4.127  10.638 -0.0512  0.1351 -0.0606
 4989W        W 8733   8.497   4.646   4.046  0.0836  0.3657 -0.1805
 4990W        W 8734   2.593   4.165   9.688  0.1233  0.0411 -0.0375
 4991W        W 8735   0.302   2.458   3.484  0.1783 -0.2185  0.0790
 4992W        W 8736   9.344   3.229   9.697  0.0603  0.1529 -0.0440
 4993W        W 8737   5.671   3.578  11.845  0.4227  0.1493  0.1645
 4994W        W 8738   6.444   0.750  11.224  0.0228 -0.0985  0.0902
 4995W        W 8739   9.407   6.142   1.099 -0.0483 -0.1781  0.2135
 4996W        W 8740   0.365   1.701   5.348 -0.0309 -0.1667 -0.1493
 4997W        W 8741   8.281   1.662   2.671  0.0374  0.0113  0.3384
 4998W        W 8742   5.550   9.395   2.225 -0.1804  0.1757  0.1245
 4999W        W 8743   4.607   0.656   8.425  0.4785  0.0159 -0.1319
 5000W        W 8744   3.097   0.027  12.303 -0.0885  0.1872  0.1693
 5001W        W 8745   9.532   3.119   4.195 -0.0780  0.1171  0.0683
 5002W        W 8746   0.518   5.805  10.016 -0.1310  0.3309  0.2583
 5003W        W 8747   9.688   1.722   9.798 -0.2024 -0.1218  0.2881
 5004W        W 8748   9.393   9.008   1.302  0.0604 -0.1338  0.1132
 5005W        W 8749   6.876   4.270   4.396 -0.0941  0.0883  0.2889
 5006W        W 8750   7.411   3.480   2.712 -0.0337  0.1298 -0.1648
 5007W        W 8751   9.749   3.577   9.903  0.1511  0.2890  0.2212
 5008W        W 8752   2.908   2.366   9.638  0.3033 -0.0238 -0.0211
 5009W        W 8753   6.410   5.475  12.714 -0.0353 -0.1629  0.3731
 5010W        W 8754   0.534   0.466   2.815  0.2155  0.0730  0.1776
 5011W        W 8755   2.461   5.053  11.181  0.1272 -0.0233  0.3099
 5012W        W 8756   9.089   4.977   0.625 -0.1936 -0.3346 -0.0432
 5013W        W 8757   5.611   5.315  10.969 -0.1347 -0.3267 -0.2123
 5014W        W 8758   5.243   2.420   2.517 -0.1250 -0.3383  0.0270
 5015W        W 8759   1.141   9.601   2.899  0.0045  0.5561  0.1644
 5016W        W 8760   8.392   4.039   2.068  0.0976 -0.0710  0.2418
 5017W        W 8761   9.159   0.032  11.143  0.0191 -0.1198 -0.1150
 5018W        W 8762   9.145   2.740   4.150 -0.2134  0.0766  0.0933
 5019W        W 8763   3.797   6.005   3.839 -0.2974  0.2748  0.2088
 5020W        W 8764   3.028   4.559   1.210  0.1557  0.0161  0.1805
 5021W        W 8765   5.685   9.600   3.336  0.1223 -0.1099  0.3691
 5022W        W 8766   3.391   1.910  10.416 -0.1139 -0.3600 -0.1881
 5023W        W 8767   8.801   8.987   2.548  0.3652  0.1367 -0.0544
 5024W        W 8768   9.183   0.801  12.127 -0.0454  0.0384 -0.1190
 5025W        W 8769   8.149   7.342   0.406 -0.0413 -0.0237 -0.0956
 5026W        W 8770   6.611   3.253  11.778 -0.1268 -0.0646 -0.1300
 5027W        W 8771   6.589   8.427  11.685 -0.1291  0.0013 -0.0414
 5028W        W 8772   6.903   7.279   4.887 -0.6170 -0.0712  0.0133
 5029W        W 8773   2.984   8.281  11.577 -0.5351  0.0155 -0.1979
 5030W        W 8774   1.998   1.177   9.802 -0.0718 -0.3382  0.2109
 5031W        W 8775   7.815   8.143  10.137  0.2628  0.2280  0.3126
 5032W        W 8776   5.905   6.759   9.904 -0.3413 -0.0053 -0.0393
 5033W        W 8777   4.982   0.468   1.415 -0.1725 -0.0662  0.1377
 5034W        W 8778   5.659   1.029  10.534  0.5915 -0.1569 -0.2387
 5035W        W 8779   5.358   3.756   4.240 -0.0985  0.1779  0.2293
 5036W        W 8780   9.294   7.778  10.892  0.0891  0.0536 -0.0274
 5037W        W 8781   8.927   8.209  10.018 -0.2185 -0.1415  0.0579
 5038W        W 8782   1.614   2.029   2.163  0.1133  0.0248 -0.2135
 5039W        W 8783   6.117   3.053   0.177 -0.2671  0.1539  0.1100
 5040W        W 8784   6.556   6.919  11.070 -0.2868 -0.2430  0.1014
 5041W        W 8785   8.315   8.147   9.417  0.0289  0.0161  0.2420
 5042W        W 8786   0.137   3.730  10.306  0.1120 -0.0693 -0.0432
 5043W        W 8787   2.854   9.188  11.860 -0.1219 -0.1812 -0.3768
 5044W        W 8788   9.104   2.260   4.307  0.1932  0.0801 -0.0663
 5045W        W 8789   6.470   6.285   9.565  0.0702  0.1920  0.0181
 5046W        W 8790   4.684   3.701   4.997 -0.0282 -0.3772 -0.0246
 5047W        W 8791   3.789   6.723   0.040  0.1542  0.0919  0.0120
 5048W        W 8792   0.594   8.349  10.465 -0.1316  0.1143  0.0329
 5049W        W 8793   8.008   1.517  10.686 -0.2753 -0.3029 -0.0875
 5050W        W 8794   1.000   4.091   0.038  0.0306  0.0096 -0.4126
 5051W        W 8795   0.493   1.267   2.963  0.1353 -0.2160  0.1048
 5052W        W 8796   7.957   8.410   4.367  0.1649 -0.1176  0.1112
 5053W        W 8797   7.744   6.654  11.640 -0.1059 -0.3410 -0.1969
 5054W        W 8798   3.680   3.937   3.769  0.0068 -0.1195  0.1474
 5055W        W 8799   2.191   6.193   1.941  0.0873  0.0103  0.2065
 5056W        W 8800   7.352   4.011   2.444  0.0051 -0.1314  0.2870
 5057W        W 8801   6.130   3.285   2.743 -0.3054  0.1261 -0.0833
 5058W        W 8802   4.477   1.603  11.027 -0.3397 -0.2196  0.0203
 5059W        W 8803   1.842   8.078   4.480  0.0193 -0.1373  0.1790
 5060W        W 8804   7.732   1.995   3.973 -0.1056 -0.0978  0.0410
 5061W        W 8805   5.889   2.027   9.732  0.0515  0.1608  0.0011
 5062W        W 8806   7.298   3.855  11.308  0.0645  0.1411 -0.1137
 5063W        W 8807   7.025   3.292  11.367 -0.1250 -0.2162 -0.0345
 5064W        W 8808   8.496   2.068   1.381 -0.2312  0.0733  0.2202
 5065W        W 8809   8.625   7.611  11.832 -0.0690 -0.1879  0.1593
 5066W        W 8810   1.867   4.859  11.104 -0.0129  0.0339 -0.0017
 5067W        W 8811   2.976   2.328   8.412  0.1849 -0.0067  0.3170
 5068W        W 8812   2.193   2.767   3.333 -0.0102 -0.1746 -0.0424
 5069W        W 8813   6.504   9.302   1.859 -0.1971 -0.3420 -0.0628
 5070W        W 8814   2.007   9.469   1.292  0.1406 -0.0731 -0.1130
 5071W        W 8815   7.243   3.777  12.516  0.1884 -0.1653 -0.1879
 5072W        W 8816   8.804   8.486   8.034 -0.1132  0.4119 -0.0359
 5073W        W 8817   4.907   6.851   9.594  0.0630 -0.0836  0.1804
 5074W        W 8818   9.440   1.750  12.488 -0.0296 -0.0479  0.0929
 5075W        W 8819   9.464   9.507   1.266  0.1241 -0.0297 -0.1561
 5076W        W 8820   3.756   6.001   9.379 -0.2779 -0.0355 -0.1853
 5077W        W 8821   7.949   0.476   1.699  0.0951  0.0752  0.1891
 5078W        W 8822   1.087   2.034   0.162 -0.0251  0.1971 -0.3125
 5079W        W 8823   0.302   4.897   0.298 -0.2410 -0.0756 -0.2093
 5080W        W 8824   6.234   7.910  12.070  0.5076  0.0348 -0.0094
 5081W        W 8825   5.346   5.169   0.900 -0.2995  0.0521 -0.0847
 5082W        W 8826   7.005   7.017   9.177  0.1980  0.2610  0.0886
 5083W        W 8827   8.582   4.865  11.149 -0.4292 -0.1656  0.1572
 5084W        W 8828   4.225   5.754  12.437  0.1874  0.1672 -0.1715
 5085W        W 8829   1.365   3.734  11.238 -0.2120 -0.0042 -0.1030
 5086W        W 8830   9.619   2.990  10.061  0.2731 -0.2334  0.0083
 5087W        W 8831   6.251   3.390   8.725 -0.1909  0.1178 -0.1621
 5088W        W 8832   3.324   9.061  11.009  0.6108 -0.2313 -0.0821
 5089W        W 8833   8.395   3.337  11.180  0.1032  0.0576 -0.4660
 5090W        W 8834   3.693   8.004   1.468  0.1750  0.0583 -0.0356
 5091W        W 8835   8.627   3.222   1.789  0.0639 -0.1888  0.1291
 5092W        W 8836   0.206   1.508   2.490 -0.0423  0.0086 -0.1917
 5093W        W 8837   4.513   9.636   9.501  0.0520 -0.3183  0.0012
 5094W        W 8838   9.685   2.982   1.282  0.1640 -0.1588 -0.3325
 5095W        W 8839   8.956   6.177   1.371  0.1447 -0.0637  0.3416
 5096W        W 8840   3.425   5.238   9.890  0.0024  0.0526 -0.3687
 5097W        W 8841   4.605   9.040   4.423 -0.3751  0.1200  0.0378
 5098W        W 8842   9.163   0.341   4.728 -0.2393  0.0767  0.3390
 5099W        W 8843   1.242   8.811  11.622  0.0195  0.0910 -0.1585
 5100W        W 8844   3.504   1.148  10.940  0.1981 -0.2705 -0.0887
 5101W        W 8845   4.807   0.710  10.388 -0.2478 -0.1070  0.3096
 5102W        W 8846   0.557   6.660   9.848  0.1219  0.1672 -0.4403
 5103W        W 8847   1.305   0.199   0.262 -0.0101  0.2307  0.0843
 5104W        W 8848   7.928   1.663   1.757 -0.1825 -0.3693 -0.0326
 5105W        W 8849   2.983   2.376   4.188  0.2283  0.4245 -0.1921
 5106W        W 8850   8.666   1.052  10.495 -0.2131  0.0047  0.3218
 5107W        W 8851   5.273   6.954   4.237  0.2775 -0.0130 -0.1217
 5108W        W 8852   8.607   1.968   4.588 -0.0794 -0.1737 -0.1373
 5109W        W 8853   9.122   4.605   0.263 -0.2401 -0.2036  0.1320
 5110W        W 8854   6.072   4.897  11.033  0.2085 -0.0830 -0.1408
 5111W        W 8855   0.786   6.659   0.631 -0.2181 -0.0999 -0.2465
 5112W        W 8856   7.774   3.949   2.704  0.3110  0.1639 -0.0661
 5113W        W 8857   3.414   4.631   1.860 -0.4059  0.1392  0.0076
 5114W        W 8858   3.839   6.824  11.526  0.0528  0.1402 -0.0257
 5115W        W 8859   1.058   3.191  12.103 -0.0258 -0.2890 -0.2451
 5116W        W 8860   5.658   7.050   3.791 -0.0763 -0.1994 -0.1239
 5117W        W 8861   7.193   5.168   9.774  0.1643  0.0379 -0.2341
 5118W        W 8862   6.975   3.647   2.590  0.2342 -0.4880  0.3753
 5119W        W 8863   4.620   0.935   2.305  0.2494  0.0186  0.2569
 5120W        W 8864   4.623   5.157   4.372  0.3861  0.2727 -0.0796
 5121W        W 8865   7.588   8.832   3.938  0.0940  0.2154  0.1370
 5122W        W 8866   0.294   6.236  11.501  0.1035 -0.1107  0.0033
 5123W        W 8867   4.081   7.492  12.504 -0.0651  0.2870 -0.0769
 5124W        W 8868   5.774   4.085   3.114 -0.0021 -0.1058  0.0782
 5125W        W 8869   6.199   1.291  11.293  0.2378 -0.0812  0.0211
 5126W        W 8870   6.812   2.559   2.175  0.0105 -0.1474  0.1244
 5127W        W 8871   4.465   9.770   1.580  0.0608  0.0402 -0.0802
 5128W        W 8872   2.534   4.406  12.511 -0.1774 -0.0564 -0.2857
 5129W        W 8873   4.767   6.167  10.257 -0.1987 -0.2425 -0.0662
 5130W        W 8874   5.938   8.083   0.849 -0.4835 -0.0841  0.1264
 5131W        W 8875   3.830   9.668   1.082  0.2418  0.1465 -0.0409
 5132W        W 8876   1.739   6.736  10.771  0.0312  0.1022 -0.1714
 5133W        W 8877   5.130   6.380   4.245  0.2012 -0.0231 -0.0008
 5134W        W 8878   2.984   4.599  10.939  0.3251 -0.1579 -0.0413
 5135W        W 8879   3.986   1.489   4.207 -0.0188  0.1900  0.0879
 5136W        W 8880   7.945   0.285   8.213  0.1135  0.2469 -0.0225
 5137W        W 8881   2.081   0.885  10.859 -0.0877 -0.2566  0.0964
 5138W        W 8882   2.745   4.893  11.824 -0.0596 -0.1707 -0.2538
 5139W        W 8883   5.852   3.528   1.030 -0.1441  0.2091 -0.0311
 5140W        W 8884   3.786   2.321   3.009  0.0063  0.0781 -0.0942
 5141W        W 8885   4.819   9.570   3.050 -0.2435 -0.1449  0.1207
 5142W        W 8886   9.809   5.193  12.505  0.0029  0.3762 -0.0361
 5143W        W 8887   6.324   2.087  11.087 -0.0610 -0.0029 -0.1463
 5144W        W 8888   1.141   5.150  10.148  0.1495  0.0796  0.0071
 5145W        W 8889   5.552   1.474   2.493  0.0467 -0.3144  0.0311
 5146W        W 8890   6.768   9.805  11.075  0.3160 -0.1826  0.5204
 5147W        W 8891   2.368   7.576   2.459 -0.1739 -0.4619 -0.1243
 5148W        W 8892   6.332   4.629   9.498 -0.0999 -0.2675  0.0411
 5149W        W 8893   4.958   9.541  10.225  0.2412 -0.0752 -0.1470
 5150W        W 8894   5.308   1.991  10.720 -0.1015  0.1213 -0.0578
 5151W        W 8895   1.462   0.889   4.580 -0.0983 -0.1076 -0.0571
 5152W        W 8896   5.813   9.530  12.620 -0.0128 -0.0197 -0.1924
 5153W        W 8897   3.014   9.897   8.473  0.2615  0.2196  0.1514
 5154W        W 8898   9.244   5.638  10.667  0.1264  0.2157 -0.0576
 5155W        W 8899   8.908   5.089   2.941  0.0439 -0.1552 -0.1937
 5156W        W 8900   5.757   3.330  10.567 -0.0022  0.1849  0.0035
 5157W        W 8901   4.583   8.472  10.376 -0.0766  0.3204 -0.1261
 5158W        W 8902   1.520   1.990   0.404  0.0899  0.1574 -0.0437
 5159W        W 8903   4.192   7.037   3.391 -0.1578 -0.0186  0.2047
 5160W        W 8904   0.409   8.463   2.406 -0.0620 -0.1693 -0.0905
 5161W        W 8905   5.112   1.531   0.725 -0.1327 -0.2653 -0.1465
 5162W        W 8906   6.236   2.401  10.743  0.2286  0.0181  0.1678
 5163W        W 8907   0.140   0.849   2.739  0.0104  0.1049  0.2141
 5164W        W 8908   3.940   8.667   2.284  0.3072  0.1965 -0.0999
 5165W        W 8909   8.461   3.722   3.850  0.0120  0.2104 -0.1097
 5166W        W 8910   9.264   0.157   8.634 -0.5273  0.2164  0.2167
 5167W        W 8911   4.650   0.400  11.331  0.1454  0.0966 -0.2522
 5168W        W 8912   0.952   1.572   0.025 -0.0933 -0.0839  0.5350
 5169W        W 8913   5.348   0.480   0.472 -0.0859  0.1589  0.1604
 5170W        W 8914   8.459   9.341   4.117  0.2068  0.2008 -0.0343
 5171W        W 8915   1.699   6.410   9.033 -0.0108  0.2624  0.4206
 5172W        W 8916   7.433   4.461   0.852 -0.0280  0.3730  0.0385
 5173W        W 8917   1.252   3.161  11.175  0.1801  0.2591 -0.0523
 5174W        W 8918   5.456   7.063  12.667  0.0821  0.1794  0.1793
 5175W        W 8919   4.764   4.197   5.249  0.2345 -0.0014  0.0749
 5176W        W 8920   6.831   1.108   4.569 -0.0018 -0.0641  0.2016
 5177W        W 8921   3.521   8.683  11.393 -0.1825  0.1649 -0.1652
 5178W        W 8922   1.946   0.824   1.515  0.4161 -0.1259 -0.0359
 5179W        W 8923   1.600   6.804   1.454 -0.2166 -0.3090 -0.0166
 5180W        W 8924   4.317   3.356  11.513 -0.0759 -0.3862 -0.1787
 5181W        W 8925   9.345   3.156   0.859  0.3830  0.3910 -0.0065
 5182W        W 8926   0.114   9.174  12.176  0.3101  0.0627  0.1225
 5183W        W 8927   8.871   7.044   8.904 -0.2487  0.3159 -0.2312
 5184W        W 8928   2.634   1.297   2.703 -0.0066  0.3228 -0.3080
 5185W        W 8929   4.904   6.459   0.972 -0.1653 -0.1504 -0.2661
 5186W        W 8930   0.160   2.229  12.718 -0.2128  0.1949  0.2288
 5187W        W 8931   3.875   0.607   1.806 -0.0047  0.2204  0.0788
 5188W        W 8932   6.684   8.521   0.095  0.1459  0.1428 -0.1460
 5189W        W 8933   3.995   9.583   3.411  0.3233 -0.1018 -0.2243
 5190W        W 8934   9.135   4.065   9.480  0.1310 -0.0840 -0.0978
 5191W        W 8935   0.088   2.586  10.137 -0.4414 -0.0491 -0.1261
 5192W        W 8936   9.298   6.224   0.645 -0.3124 -0.0578 -0.1893
 5193W        W 8937   4.820   4.735   3.447  0.1704  0.2056  0.3296
 5194W        W 8938   8.581   0.836   9.964 -0.1990  0.0141  0.0053
 5195W        W 8939   4.079   1.928   0.722 -0.2644 -0.1498  0.2178
 5196W        W 8940   2.812   4.720   9.666  0.1499  0.1766 -0.1226
 5197W        W 8941   1.239   3.418   2.406 -0.0102  0.0708  0.1333
 5198W        W 8942   8.066   9.431   1.777 -0.1308 -0.0871 -0.0783
 5199W        W 8943   7.529   0.432   0.504 -0.0064 -0.1127  0.0614
 5200W        W 8944   4.626   5.655   3.799 -0.2285  0.1490  0.0291
 5201W        W 8945   8.197   0.383  11.216 -0.0517  0.0872  0.0246
 5202W        W 8946   7.176   0.845   2.641 -0.2604  0.1744  0.0171
 5203W        W 8947   1.460   7.856  11.367 -0.0474 -0.0321 -0.0430
 5204W        W 8948   2.346   2.178   8.937  0.0261  0.0588 -0.0904
 5205W        W 8949   1.091   7.903   1.212 -0.2640  0.0347 -0.0879
 5206W        W 8950   2.080   1.334   1.916  0.1805  0.2751 -0.1911
 5207W        W 8951   4.118   3.918  10.750  0.1716  0.0113 -0.0588
 5208W        W 8952   2.428   6.031   9.425 -0.0337 -0.2010  0.1362
 5209W        W 8953   0.326   6.982   0.417 -0.2379 -0.0061  0.1195
 5210W        W 8954   5.253   0.047  10.016 -0.1487 -0.0057 -0.1717
 5211W        W 8955   4.854   7.754   4.339 -0.1780 -0.1615 -0.1299
 5212W        W 8956   4.269   3.110   2.891 -0.2578 -0.1436  0.0720
 5213W        W 8957   7.121   9.155   2.963 -0.0209 -0.1266  0.0742
 5214W        W 8958   4.555   5.134  11.998 -0.1396  0.2423  0.3562
 5215W        W 8959   5.308   9.679   5.179  0.1257  0.1748  0.1373
 5216W        W 8960   9.598   6.360  10.779  0.1988 -0.1362  0.0048
 5217W        W 8961   9.776   2.253  10.607  0.2410 -0.0044 -0.1464
 5218W        W 8962   9.250   1.924  12.022  0.0396  0.0254 -0.3589
 5219W        W 8963   6.217   8.845   3.450  0.3145 -0.0413  0.0901
 5220W        W 8964   9.293   7.374   9.563 -0.4780 -0.0527  0.1647
 5221W        W 8965   7.554   7.413  10.780  0.0416  0.3409 -0.0748
 5222W        W 8966   6.610   0.243   4.107  0.0619  0.2676 -0.1699
 5223W        W 8967   6.183   8.661   4.770 -0.0636 -0.1793  0.0005
 5224W        W 8968   5.669   8.368   4.017 -0.1502 -0.2743  0.2430
 5225W        W 8969   3.711   5.500   0.196 -0.3206 -0.0156  0.1705
 5226W        W 8970   4.327   9.945   9.107  0.0159 -0.0498  0.0180
 5227W        W 8971   6.796   0.603   3.691 -0.4499  0.0179  0.1524
 5228W        W 8972   6.094   9.188   2.196  0.0188  0.3005  0.3571
 5229W        W 8973   7.821   0.975   9.477 -0.1611 -0.1428  0.3148
 5230W        W 8974   6.645   3.402   3.103  0.0375 -0.1152 -0.2510
 5231W        W 8975   2.427   6.008  11.635  0.2881  0.1388  0.0711
 5232W        W 8976   0.018   6.082   1.210 -0.1060  0.0272  0.0192
 5233W        W 8977   9.394   3.359   3.668 -0.3693  0.2165  0.1348
 5234W        W 8978   4.015   6.660   3.669  0.3607 -0.1769 -0.1150
 5235W        W 8979   5.172   7.403  10.944 -0.3877 -0.1068  0.0015
 5236W        W 8980   2.081   8.785   3.110 -0.1912  0.1296 -0.1796
 5237W        W 8981   8.558   1.663  12.765 -0.2114  0.1751  0.1538
 5238W        W 8982   3.023   9.399   9.733 -0.2180  0.2251 -0.1297
 5239W        W 8983   4.553   7.574  12.244 -0.1256  0.1188  0.1447
 5240W        W 8984   5.508   0.093  11.034  0.0954  0.0266 -0.1450
 5241W        W 8985   5.682   8.090   3.566 -0.3347 -0.1566 -0.2741
 5242W        W 8986   5.238   6.982   3.492 -0.1597  0.1458 -0.2494
 5243W        W 8987   9.711   9.376   0.819  0.0667 -0.2225  0.0064
 5244W        W 8988   7.144   5.484  10.640  0.3625 -0.1215  0.2652
 5245W        W 8989   0.357   8.400  11.675  0.3647  0.2185 -0.1768
 5246W        W 8990   2.384   7.442   2.939 -0.0812  0.0954 -0.1466
 5247W        W 8991   5.278   9.225   3.688  0.1616  0.1310 -0.2168
 5248W        W 8992   5.115   9.496  12.230  0.2361  0.1378 -0.1127
 5249W        W 8993   8.034   5.646   2.931 -0.0822 -0.2127  0.0861
 5250W        W 8994   8.914   8.157  12.277  0.0736  0.1362  0.1774
 5251W        W 8995   3.505   0.544   3.423 -0.1696 -0.2265 -0.0219
 5252W        W 8996   9.189   0.984   1.989  0.2404 -0.3876 -0.0246
 5253W        W 8997   7.841   6.517   3.332 -0.0006  0.3883  0.1087
 5254W        W 8998   7.494   8.173   0.787  0.3228 -0.0695  0.1612
 5255W        W 8999   5.254   6.593   3.808  0.2812  0.2346 -0.1322
 5256W        W 9000   9.427   9.236  12.096 -0.2130 -0.0662  0.1434
 5257W        W 9001   3.680   6.950   9.241  0.0080  0.0672  0.4294
 5258W        W 9002   3.233   0.693   3.813  0.0291 -0.0107  0.1980
 5259W        W 9003   7.898   8.645   3.098  0.0753  0.0925 -0.0014
 5260W        W 9004   9.504   4.045   1.361  0.0535  0.1675  0.2595
 5261W        W 9005   8.701   5.330   0.553 -0.1871  0.0961  0.1318
 5262W        W 9006   0.339   8.501  10.056 -0.1150  0.1782 -0.0036
 5263W        W 9007   3.231   8.538   2.659 -0.1768  0.0550  0.2946
 5264W        W 9008   1.335   7.972   3.474  0.0601  0.0954  0.2209
 5265W        W 9009   6.239   8.366   3.731  0.1215  0.0511  0.3907
 5266W        W 9010   5.588   1.036   1.753  0.0186  0.2433  0.0881
 5267W        W 9011   7.417   7.687   8.575 -0.1007 -0.1610  0.3499
 5268W        W 9012   5.360   6.738  12.230 -0.0855 -0.0442 -0.2773
 5269W        W 9013   9.622   9.960   1.555  0.2684  0.1012 -0.0017
 5270W        W 9014   5.823   1.414  11.679 -0.0813  0.1225  0.0092
 5271W        W 9015   7.197   2.314   1.335  0.1494 -0.1352 -0.0349
 5272W        W 9016   7.511   9.367   3.739  0.0540 -0.0378  0.3092
 5273W        W 9017   1.843   8.154   3.619  0.4122  0.0668 -0.0650
 5274W        W 9018   4.876   4.896  11.567 -0.2726  0.1494  0.0366
 5275W        W 9019   3.566   4.343   9.019  0.4957 -0.2252 -0.0876
 5276W        W 9020   6.454   6.679  10.073 -0.0866 -0.2529 -0.3057
 5277W        W 9021   0.656   0.991   2.562  0.0151 -0.3571 -0.3988
 5278W        W 9022   3.444   3.891  11.494 -0.0051 -0.1976  0.1567
 5279W        W 9023   4.943   6.819   2.600 -0.0777  0.0129 -0.1244
 5280W        W 9024   0.344   5.870  10.931 -0.2059 -0.0752 -0.1019
 5281W        W 9025   3.881   6.743  10.000  0.1164  0.4727  0.1436
 5282W        W 9026   0.383   5.711  11.440  0.0568  0.1267  0.2767
 5283W        W 9027   7.888   0.446   2.974  0.2274  0.2077  0.0252
 5284W        W 9028   3.225   1.191   1.164 -0.0193  0.1454 -0.1326
 5285W        W 9029   7.308   5.264   2.420  0.2543  0.2021 -0.0567
 5286W        W 9030   4.106   4.971  10.559 -0.2405  0.1735 -0.2719
 5287W        W 9031   5.627   0.952  11.860 -0.1001  0.2172  0.1509
 5288W        W 9032   9.349   0.678   8.769 -0.1222  0.3261  0.0704
 5289W        W 9033   8.589   0.062  11.329 -0.1209  0.0261 -0.0524
 5290W        W 9034   6.426   5.324   4.639  0.0407  0.2308  0.1535
 5291W        W 9035   9.241   2.715   1.291  0.1556 -0.3752  0.3078
 5292W        W 9036   6.834   4.746  12.779 -0.1003  0.2541 -0.1478
 5293W        W 9037   5.107   0.341   0.924  0.1407 -0.3354  0.3891
 5294W        W 9038   6.763   9.103  11.153  0.1427  0.0794 -0.1600
 5295W        W 9039   6.380   7.474  12.463  0.0248  0.1767  0.2863
 5296W        W 9040   8.971   9.322   1.333  0.0242 -0.0851 -0.2947
 5297W        W 9041   0.210   2.123  11.076 -0.2557  0.1494  0.4139
 5298W        W 9042   4.884   4.772   0.236 -0.2054  0.0151  0.0732
 5299W        W 9043   2.046   3.529   8.941  0.0441 -0.0833 -0.0865
 5300W        W 9044   9.206   8.377   9.273 -0.0588 -0.0855 -0.0861
 5301W        W 9045   6.993   4.854  10.140  0.1955  0.4286 -0.0866
 5302W        W 9046   1.788   3.316   4.051 -0.0655 -0.2164  0.1405
 5303W        W 9047   1.425   2.879  10.240  0.0347  0.0803 -0.1525
 5304W        W 9048   5.524   4.612   9.578  0.0616 -0.0513 -0.0855
 5305W        W 9049   1.556   4.590  10.175  0.5224  0.1458  0.2548
 5306W        W 9050   8.252   7.436   1.391  0.1130 -0.1209  0.1434
 5307W        W 9051   7.167   8.100   3.178 -0.2283 -0.1334  0.1586
 5308W        W 9052   3.587   2.903   3.567 -0.1507  0.0032 -0.0749
 5309W        W 9053   0.877   0.921  11.455 -0.1418  0.1857 -0.1228
 5310W        W 9054   7.410   1.596  11.864 -0.0677  0.1874  0.1805
 5311W        W 9055   5.448   2.636   0.040 -0.2568  0.1139  0.2341
 5312W        W 9056   7.961   7.517  12.699 -0.1063  0.0149 -0.1545
 5313W        W 9057   4.918   8.594   2.568  0.1484 -0.1528  0.1084
 5314W        W 9058   8.665   5.895  12.280 -0.2609  0.2937  0.1039
 5315W        W 9059   4.411   8.549  12.033  0.1549  0.0580 -0.1799
 5316W        W 9060   9.777   4.425   0.962 -0.2270 -0.3039  0.0977
 5317W        W 9061   6.782   7.940   0.439  0.2071 -0.3329  0.0876
 5318W        W 9062   5.337   9.310   8.593  0.1487 -0.1269 -0.0884
 5319W        W 9063   9.445   3.813   3.480 -0.3717 -0.0440  0.0281
 5320W        W 9064   5.904   4.753  12.508  0.0606 -0.0999  0.1451
 5321W        W 9065   4.694   5.553  12.151 -0.1976 -0.1472  0.0720
 5322W        W 9066   1.515   8.303   2.860  0.0319 -0.1466  0.0069
 5323W        W 9067   0.780   9.913  12.077 -0.1739  0.2675 -0.1047
 5324W        W 9068   1.853   1.639   1.115 -0.1507 -0.1291 -0.0023
 5325W        W 9069   8.981   7.177   4.367 -0.0902  0.1706 -0.1643
 5326W        W 9070   6.595   5.111   2.967 -0.2718  0.1685  0.1152
 5327W        W 9071   3.723   0.126   3.746 -0.0344 -0.1792 -0.4415
 5328W        W 9072   6.398   2.830  10.318 -0.1247 -0.3694 -0.1217
 5329W        W 9073   1.656   4.418   0.068 -0.0166 -0.0557  0.1564
 5330W        W 9074   0.895   4.964  12.440  0.0138 -0.0316 -0.0002
 5331W        W 9075   6.911   3.854   2.074  0.1343 -0.1983 -0.1590
 5332W        W 9076   2.612   2.132  10.697 -0.1565  0.0079 -0.2568
 5333W        W 9077   9.447   7.710   9.167  0.2784 -0.0712  0.1070
 5334W        W 9078   5.789   5.663  12.690  0.0914 -0.0866  0.1807
 5335W        W 9079   9.119   8.017   8.954  0.1630 -0.0600 -0.0503
 5336W        W 9080   8.009   1.591  12.739 -0.2790  0.0736  0.1311
 5337W        W 9081   0.942   0.281  10.692  0.1709 -0.0993 -0.1314
 5338W        W 9082   0.672   3.427   0.572  0.0668  0.2778  0.0096
 5339W        W 9083   2.176   9.090   0.403  0.3655  0.1420  0.2087
 5340W        W 9084   3.849   6.408   0.453 -0.1733 -0.1288  0.1984
 5341W        W 9085   3.415   1.415   2.139 -0.0784 -0.3166  0.0162
 5342W        W 9086   1.944   0.894  10.395  0.4363  0.1729 -0.5235
 5343W        W 9087   0.005   4.279   2.458  0.2352 -0.1012 -0.1394
 5344W        W 9088   3.959   7.486   0.606 -0.0514  0.1152 -0.0644
 5345W        W 9089   0.204   8.283   1.977  0.1981  0.0218  0.2326
 5346W        W 9090   2.261   1.436   0.375 -0.3903  0.3300  0.2169
 5347W        W 9091   9.392   3.454   9.255 -0.0715  0.2425 -0.0274
 5348W        W 9092   9.910   1.259   4.196 -0.0213  0.2147  0.1629
 5349W        W 9093   0.699   5.343  10.016 -0.0403 -0.1605  0.0895
 5350W        W 9094   3.463   6.976   2.960  0.1497  0.1263 -0.0389
 5351W        W 9095   6.676   2.715   8.912 -0.1188 -0.4474 -0.1623
 5352W        W 9096   6.061   8.043   1.335 -0.1762  0.1101  0.2819
 5353W        W 9097   7.684   2.304   2.210  0.0232  0.5126 -0.2306
 5354W        W 9098   1.947   4.215   1.884  0.0351  0.0663 -0.1000
 5355W        W 9099   0.125   7.879   9.496 -0.2290 -0.0277  0.2905
 5356W        W 9100   9.721   1.004   8.793 -0.0115 -0.0061  0.0053
 5357W        W 9101   1.041   8.349   3.361  0.1514  0.1771  0.5541
 5358W        W 9102   3.387   7.642   1.710 -0.1209 -0.0917  0.0698
 5359W        W 9103   3.033   8.684   1.798 -0.3948  0.0984  0.0621
 5360W        W 9104   1.604   0.718   8.027  0.1027 -0.0263 -0.0017
 5361W        W 9105   4.245   9.352  11.927 -0.0381  0.0016  0.4165
 5362W        W 9106   0.371   0.496   9.954  0.5106 -0.1954  0.1180
 5363W        W 9107   3.353   9.617  11.721 -0.1075  0.2010 -0.3311
 5364W        W 9108   1.498   7.242   0.781 -0.3844  0.0650 -0.3607
 5365W        W 9109   8.122   1.081   3.492  0.0822  0.1941 -0.2045
 5366W        W 9110   9.599   2.482   0.412 -0.2089  0.1954 -0.1874
 5367W        W 9111   6.538   1.169   0.209 -0.6230 -0.0257  0.0759
 5368W        W 9112   5.074   0.173   3.761  0.1977 -0.0275  0.3243
 5369W        W 9113   9.005   6.220  10.020  0.0441 -0.0230 -0.3235
 5370W        W 9114   2.533   3.089   0.846  0.0860 -0.1145 -0.1955
 5371W        W 9115   0.247   3.928   0.601 -0.0897  0.0072 -0.1411
 5372W        W 9116   5.938   4.722   2.262 -0.3168 -0.1389  0.2163
 5373W        W 9117   5.734   7.731   3.184  0.0861 -0.1042  0.0154
 5374W        W 9118   1.045   8.328   0.067  0.1760 -0.0850 -0.0632
 5375W        W 9119   1.018   9.954   1.109 -0.0266 -0.0330 -0.1752
 5376W        W 9120   4.084   0.309   4.734 -0.0580 -0.1296  0.2594
 5377W        W 9121   2.027   4.848   0.264  0.2722  0.2208  0.1433
 5378W        W 9122   4.246   9.295   1.642  0.2178  0.2347  0.0785
 5379W        W 9123   3.951   4.132   0.261  0.0556  0.0144 -0.1575
 5380W        W 9124   1.819   2.253   2.901 -0.1622  0.0648 -0.1889
 5381W        W 9125   8.821   0.470   0.246 -0.1200 -0.2541  0.0914
 5382W        W 9126   2.078   3.381   0.023 -0.2510  0.1014  0.0450
 5383W        W 9127   3.562   3.879   0.855  0.0251 -0.0515  0.1385
 5384W        W 9128   3.517   8.708  11.939  0.0060 -0.4274  0.2403
 5385W        W 9129   6.483   0.180   9.690  0.0780  0.0134 -0.0131
 5386W        W 9130   4.377   5.887   5.161 -0.0581  0.0206  0.1047
 5387W        W 9131   4.734   0.149   8.497 -0.2170  0.2425  0.2056
 5388W        W 9132   1.758   2.515   3.330 -0.1737  0.0110  0.3213
 5389W        W 9133   4.395   1.197  11.681 -0.0057 -0.0895  0.0100
 5390W        W 9134   1.395   7.206  12.457 -0.0410 -0.3381 -0.0810
 5391W        W 9135   2.689   7.674   3.384 -0.1497  0.0178  0.0744
 5392W        W 9136   8.718   3.327  10.834  0.1731  0.1750 -0.1758
 5393W        W 9137   3.685   4.353   0.631  0.0834  0.0194 -0.3570
 5394W        W 9138   6.321   6.456   2.184  0.0848 -0.0058 -0.2589
 5395W        W 9139   5.282   3.992   3.283 -0.2321  0.0360  0.0750
 5396W        W 9140   8.115   0.826   9.018  0.0779  0.1416 -0.0359
 5397W        W 9141   8.086   2.712   4.370 -0.2656 -0.1726  0.1083
 5398W        W 9142   7.676   2.338  11.146  0.1524  0.0815 -0.1045
 5399W        W 9143   8.649   8.829   0.676  0.0430 -0.1899  0.0598
 5400W        W 9144   8.439   8.363  12.305 -0.2221  0.0285 -0.2527
 5401W        W 9145   0.617   8.719  12.752 -0.0806  0.1186  0.1298
 5402W        W 9146   8.091   7.018   4.177 -0.2150  0.2998 -0.1039
 5403W        W 9147   7.809   7.837  10.653  0.0184  0.0888  0.0233
 5404W        W 9148   2.860   9.065   9.362  0.1781 -0.0014  0.1400
 5405W        W 9149   1.650   9.930  10.128  0.0920 -0.0051 -0.2428
 5406W        W 9150   8.756   5.265  10.319 -0.0556 -0.1371 -0.0188
 5407W        W 9151   5.285   7.809  10.723 -0.0909 -0.2012  0.3014
 5408W        W 9152   7.741   4.124   0.899 -0.2336 -0.3153  0.2112
 5409W        W 9153   0.745   9.116   0.916 -0.2634  0.0130 -0.1075
 5410W        W 9154   1.631   1.445   3.993  0.0313  0.4665 -0.3495
 5411W        W 9155   2.707   6.379  11.921 -0.2064  0.0321  0.0976
 5412W        W 9156   9.220   4.384   1.040  0.0859  0.1599 -0.3014
 5413W        W 9157   8.172   3.177   4.576 -0.3148  0.0704 -0.1092
 5414W        W 9158   6.158   8.934   1.748 -0.2773 -0.2425  0.0374
 5415W        W 9159   8.914   2.721   3.735  0.4979  0.2623 -0.1470
 5416W        W 9160   3.804   9.019   1.965  0.3429 -0.1268 -0.0879
 5417W        W 9161   2.911   8.189   2.819  0.3461  0.3387 -0.3888
 5418W        W 9162   2.017   4.281   2.421  0.1429  0.1964 -0.2158
 5419W        W 9163   9.127   8.882  12.308  0.1882 -0.2903 -0.1425
 5420W        W 9164   8.796   8.509  12.635 -0.1080  0.2068  0.0558
 5421W        W 9165   7.035   0.163   3.265 -0.1188 -0.0610  0.0712
 5422W        W 9166   9.601   7.477   3.335  0.0264 -0.1570 -0.0908
 5423W        W 9167   9.951   7.768  10.594  0.0756  0.4175 -0.1392
 5424W        W 9168   5.980   0.183  10.793  0.0460 -0.3913  0.1455
 5425W        W 9169   2.381   3.787   1.235  0.1080 -0.0818  0.0289
 5426W        W 9170   5.372   9.028   0.484  0.1392  0.0872  0.2347
 5427W        W 9171   8.716   1.028  12.091  0.0012  0.1609 -0.1253
 5428W        W 9172   7.915   0.606   0.089 -0.0463 -0.0681 -0.1616
 5429W        W 9173   6.020   7.743   0.436  0.1194  0.2260  0.1358
 5430W        W 9174   2.076   1.940   0.014 -0.1179 -0.0480 -0.3171
 5431W        W 9175   4.201   6.271   9.559 -0.1008 -0.0263  0.0654
 5432W        W 9176   1.902   0.332   3.406  0.1310  0.0083 -0.0414
 5433W        W 9177   0.797   5.702   0.292  0.1627 -0.0260  0.3398
 5434W        W 9178   2.845   5.304  10.923 -0.1483  0.3632  0.1182
 5435W        W 9179   9.154   0.649  11.700  0.2211  0.0908 -0.0258
 5436W        W 9180   5.168   1.627   9.927 -0.1337  0.1425  0.2058
 5437W        W 9181   6.827   0.358   0.867  0.0949  0.1966  0.2663
 5438W        W 9182   3.961   3.130  10.161  0.0023  0.2590 -0.0587
 5439W        W 9183   7.294   1.836   9.025 -0.1107 -0.4321  0.0188
 5440W        W 9184   1.891   2.315   0.341  0.3439 -0.1189 -0.0191
 5441W        W 9185   8.370   1.499   3.630 -0.2845  0.0775 -0.1469
 5442W        W 9186   6.382   1.909   0.578  0.1760  0.1856  0.0640
 5443W        W 9187   2.729   0.306  11.117  0.0483 -0.0087 -0.0316
 5444W        W 9188   8.879   3.865   9.984 -0.1202  0.2897  0.0924
 5445W        W 9189   9.053   1.406   9.258 -0.0585 -0.3153 -0.2224
 5446W        W 9190   1.866   9.026  10.910 -0.0797  0.4210  0.3378
 5447W        W 9191   3.575   1.744   0.625  0.0150  0.1054  0.1492
 5448W        W 9192   2.796   3.962  12.267  0.2126 -0.0810 -0.0502
 5449W        W 9193   2.348   3.431   3.362 -0.0331 -0.0270 -0.0678
 5450W        W 9194   3.387   4.685   0.430  0.0491  0.0414 -0.3217
 5451W        W 9195   1.325   8.399   2.315 -0.5269  0.5139  0.0277
 5452W        W 9196   1.271   9.695  10.487 -0.0131 -0.1426  0.3036
 5453W        W 9197   9.831   9.309   9.723 -0.0093  0.0954 -0.0467
 5454W        W 9198   9.565   5.991   3.796  0.2653  0.0816 -0.2382
 5455W        W 9199   9.718   9.696  11.658 -0.0998 -0.0101 -0.0521
 5456W        W 9200   2.675   8.937  11.151 -0.0985 -0.2536 -0.0152
 5457W        W 9201   1.543   9.060  12.322 -0.2098  0.0970 -0.1148
 5458W        W 9202   8.508   0.453   9.066  0.0793  0.0083  0.0950
 5459W        W 9203   8.719   4.198  11.350 -0.0319 -0.2669  0.1492
 5460W        W 9204   7.376   6.469   3.071  0.0263 -0.1250  0.3114
 5461W        W 9205   8.879   2.766   0.118  0.3205  0.1176 -0.0210
 5462W        W 9206   9.483   2.848   3.769  0.2751 -0.0919 -0.1615
 5463W        W 9207   9.592   4.566   1.393  0.2857  0.1360  0.2374
 5464W        W 9208   7.675   2.412   1.274 -0.2794 -0.1737  0.4220
 5465W        W 9209   0.297   1.656   4.151  0.1695  0.1597  0.2544
 5466W        W 9210   9.687   1.545   8.112 -0.0321  0.1628 -0.1213
 5467W        W 9211   6.534   3.469   2.539  0.0021 -0.0754 -0.0816
 5468W        W 9212   2.343   1.795   2.735  0.0746 -0.1305 -0.2242
 5469W        W 9213   5.470   8.953  10.243  0.1091 -0.2176  0.2700
 5470W        W 9214   6.939   2.719   9.467 -0.1038  0.2008 -0.1801
 5471W        W 9215   0.649   3.381  10.754  0.1457  0.0184  0.0810
 5472W        W 9216   0.996   9.554  11.164 -0.1216  0.1481  0.0729
 5473W        W 9217   6.036   7.605   1.024  0.0696  0.1259  0.0125
 5474W        W 9218   3.792   2.469   4.850 -0.0436 -0.1218  0.0398
 5475W        W 9219   7.045   0.732   1.382  0.0280  0.1358  0.2728
 5476W        W 9220   4.238   0.885   1.984  0.0104  0.0229  0.1578
 5477W        W 9221   7.463   5.815  10.177  0.2888  0.0335  0.1136
 5478W        W 9222   8.220   8.914  12.518 -0.1779  0.0155  0.1875
 5479W        W 9223   4.690   8.124   1.225 -0.1173 -0.0389  0.1043
 5480W        W 9224   2.786   7.173   2.946 -0.1119  0.0614 -0.0504
 5481W        W 9225   7.823   6.147   3.630  0.3038  0.1779 -0.1803
 5482W        W 9226   4.093   4.429   2.933 -0.1620  0.4146 -0.1311
 5483W        W 9227   1.755   1.439  12.201  0.1001 -0.1530  0.1542
 5484W        W 9228   2.591   8.450  11.000  0.0668  0.1544  0.1039
 5485W        W 9229   7.407   6.454  10.722 -0.0295 -0.1302  0.1430
 5486W        W 9230   4.130   8.759   3.011  0.0857  0.1213  0.0791
 5487W        W 9231   1.124   0.101   5.093 -0.0262 -0.1225  0.0444
 5488W        W 9232   2.818   0.396   3.682 -0.1486  0.5455  0.0405
 5489W        W 9233   0.362   3.550   0.959 -0.2036  0.0713  0.1048
 5490W        W 9234   5.823   8.574  10.906  0.0919 -0.3609 -0.0255
 5491W        W 9235   5.595   9.501   9.000  0.1758 -0.1206 -0.1030
 5492W        W 9236   7.049   1.875  10.439  0.0646 -0.1530  0.3059
 5493W        W 9237   9.269   8.136   0.681 -0.2218 -0.2645  0.1008
 5494W        W 9238   7.684   0.045   2.808  0.2009 -0.2283  0.0018
 5495W        W 9239   8.317   0.479  10.759 -0.2622  0.0144  0.2812
 5496W        W 9240   5.565   7.974   1.133 -0.1710  0.0926  0.1707
 5497W        W 9241   4.428   6.743   9.685 -0.2246  0.1401 -0.0712
 5498W        W 9242   6.519   3.760  10.205  0.1726 -0.2104 -0.3659
 5499W        W 9243   0.823   7.857   9.300 -0.0648 -0.1382 -0.1323
 5500W        W 9244   2.403   7.905  11.613 -0.3715  0.2010  0.0133
 5501W        W 9245   3.576   9.449  11.265  0.0141  0.6072 -0.1705
 5502W        W 9246   6.705   8.967  12.305 -0.0482 -0.1067 -0.1833
 5503W        W 9247   1.638   0.832   9.694 -0.2814  0.1158  0.1500
 5504W        W 9248   7.846   8.282   0.337  0.0048  0.2798  0.0661
 5505W        W 9249   3.975   3.703   2.435  0.2570  0.0130  0.0909
 5506W        W 9250   7.494   8.477  12.741  0.1153 -0.1312 -0.0210
 5507W        W 9251   2.631   8.923   9.830  0.1238 -0.2841  0.0794
 5508W        W 9252   8.828   1.216   7.901  0.4398 -0.0048  0.0741
 5509W        W 9253   6.581   5.636   1.156 -0.0166  0.0609  0.0274
 5510W        W 9254   2.828   4.023   0.994 -0.1183  0.3115  0.0292
 5511W        W 9255   5.979   3.557   0.261  0.0976  0.2784 -0.0015
 5512W        W 9256   5.154   9.494   0.381  0.0651  0.1364  0.1706
 5513W        W 9257   8.333   3.940   9.980  0.0709 -0.0706 -0.0201
 5514W        W 9258   7.329   0.399   3.645 -0.0213 -0.0288 -0.0638
 5515W        W 9259   4.486   5.379   9.520  0.2989  0.2547  0.1965
 5516W        W 9260   9.144   0.212   4.014 -0.3412  0.0271  0.0468
 5517W        W 9261   0.155   4.286  12.424  0.4191 -0.0927 -0.3818
 5518W        W 9262   2.186   7.499  10.130  0.0184  0.0306 -0.4090
 5519W        W 9263   2.019   4.247   1.353 -0.1910 -0.0853 -0.0440
 5520W        W 9264   6.282   5.518   8.942  0.0811 -0.0191  0.1085
 5521W        W 9265   0.185   2.605  10.605 -0.0134  0.3012  0.1655
 5522W        W 9266   4.163   6.924  11.156  0.1764 -0.0718 -0.0381
 5523W        W 9267   2.034   8.825  10.426  0.4525 -0.0667 -0.1431
 5524W        W 9268   3.240   8.256   1.510 -0.1714 -0.0794  0.1497
 5525W        W 9269   7.307   3.420   4.321  0.1315  0.2312  0.1840
 5526W        W 9270   0.058   3.950  11.679 -0.0169 -0.0811  0.0598
 5527W        W 9271   7.382   1.011   9.201 -0.3245  0.1017  0.1992
 5528W        W 9272   7.979   6.687   2.738  0.1485 -0.0594 -0.0543
 5529W        W 9273   6.890   4.363   0.844 -0.1713 -0.0895  0.2251
 5530W        W 9274   4.066   0.239  12.604 -0.2239  0.1348 -0.0886
 5531W        W 9275   0.959   0.342   8.337  0.1340  0.2113  0.1052
 5532W        W 9276   0.057   0.876  11.713  0.0251  0.2813 -0.0606
 5533W        W 9277   4.880   8.634   4.274 -0.2233  0.1862 -0.2918
 5534W        W 9278   0.689   8.001  11.662 -0.0876 -0.0941  0.3668
 5535W        W 9279   3.595   0.574  10.024  0.1936 -0.1701  0.3071
 5536W        W 9280   6.330   8.756  12.531 -0.0710 -0.2173 -0.2015
 5537W        W 9281   0.727   4.578   0.444 -0.2181 -0.2976 -0.0456
 5538W        W 9282   8.259   7.739   0.708 -0.0924  0.1398 -0.1667
 5539W        W 9283   7.881   7.007   0.126  0.2460 -0.0954 -0.1799
 5540W        W 9284   9.647   1.121  12.059  0.0516  0.0229  0.1331
 5541W        W 9285   1.294   3.351   3.376  0.1714  0.1370  0.0065
 5542W        W 9286   0.880   7.909  12.520  0.1143 -0.2519  0.3200
 5543W        W 9287   1.124   2.081   3.991 -0.0806  0.2112  0.0588
 5544W        W 9288   9.313   6.404   3.943 -0.0090 -0.0312  0.0749
 5545W        W 9289   1.244   3.029   9.153  0.0045 -0.1909 -0.3873
 5546W        W 9290   5.120   9.684   2.142  0.0111  0.0406  0.2992
 5547W        W 9291   8.025   6.673   9.417  0.0342  0.1900 -0.0497
 5548W        W 9292   6.685   5.348   2.506 -0.1306  0.2248 -0.1235
 5549W        W 9293   8.593   9.691   1.312 -0.0598  0.0799  0.0258
 5550W        W 9294   2.487   5.278   3.343  0.0064  0.0772 -0.2375
 5551W        W 9295   6.863   1.701  10.885 -0.1028 -0.0373  0.2471
 5552W        W 9296   6.773   1.678   2.966  0.1439  0.4040  0.1367
 5553W        W 9297   5.059   0.689   3.721  0.0040  0.2076  0.3683
 5554W        W 9298   9.231   1.265   0.579  0.0109 -0.0331 -0.0790
 5555W        W 9299   7.509   1.465  10.236  0.0069 -0.0850  0.1921
 5556W        W 9300   8.825   3.192   3.439 -0.0326 -0.0077  0.0612
 5557W        W 9301   5.887   0.754   4.106 -0.1530 -0.0698  0.0068
 5558W        W 9302   4.822   5.494   0.882 -0.4381 -0.2298 -0.3327
 5559W        W 9303   3.711   1.019   9.639  0.2026  0.3832  0.3125
 5560W        W 9304   3.323   6.194  11.384  0.2487 -0.1563  0.0743
 5561W        W 9305   2.132   2.707   1.625 -0.0652 -0.1304  0.2123
 5562W        W 9306   4.048   9.267  12.375 -0.0961  0.2140  0.1478
 5563W        W 9307   7.808   2.176   9.156 -0.1111 -0.1301  0.3272
 5564W        W 9308   5.650   6.585   2.951  0.1680 -0.3800 -0.0235
 5565W        W 9309   7.554   6.302   1.190 -0.2965  0.2448 -0.2853
 5566W        W 9310   1.941   0.924   8.808 -0.0330 -0.0798 -0.1987
 5567W        W 9311   7.395   2.106   4.276  0.0124 -0.1479 -0.2625
 5568W        W 9312   3.690   1.956   9.402  0.0251 -0.0151  0.4290
 5569W        W 9313   1.482   6.541   3.013 -0.1957 -0.2556 -0.2877
 5570W        W 9314   8.118   9.717  12.729 -0.2779  0.1746 -0.3036
 5571W        W 9315   1.436   2.227   2.588  0.0682  0.1510 -0.1848
 5572W        W 9316   3.282   8.755  10.220 -0.4441  0.1503  0.0744
 5573W        W 9317   4.740   2.022   0.054  0.2826 -0.0527 -0.1889
 5574W        W 9318   0.369   8.087  11.296  0.0414  0.0920  0.1529
 5575W        W 9319   6.192   1.131  12.568  0.0415  0.0989 -0.0497
 5576W        W 9320   6.435   6.226   7.978 -0.0045 -0.0875 -0.0504
 5577W        W 9321   0.166   7.756   0.405 -0.0333  0.0789 -0.3287
 5578W        W 9322   5.232   0.896   0.739 -0.1146 -0.0628 -0.0728
 5579W        W 9323   5.686   8.102   2.889 -0.2228 -0.0770 -0.1084
 5580W        W 9324   5.111   5.653   0.341 -0.0501  0.4003  0.0615
 5581W        W 9325   7.971   6.904   0.659 -0.1275  0.2694 -0.2993
 5582W        W 9326   7.129   8.503  10.383 -0.4575  0.1980 -0.1738
 5583W        W 9327   1.883   7.396   3.044  0.1240 -0.0979 -0.1348
 5584W        W 9328   9.488   6.341   0.173 -0.1931 -0.0688  0.1161
 5585W        W 9329   5.343   5.119  11.364 -0.0345 -0.0774  0.0576
 5586W        W 9330   4.969   7.457   3.269  0.0941  0.1706  0.2062
 5587W        W 9331   5.363   6.304   8.049  0.0408  0.3566  0.1879
 5588W        W 9332   3.075   0.161  11.804  0.0759 -0.1820  0.5059
 5589W        W 9333   3.312   6.011   9.926 -0.1493 -0.0050  0.3477
 5590W        W 9334   2.923   3.866   1.993  0.1143  0.1137 -0.3106
 5591W        W 9335   1.608   5.498   9.960 -0.0119  0.0410  0.1925
 5592W        W 9336   8.176   1.809  11.746 -0.2219  0.0863 -0.0183
 5593W        W 9337   4.399   8.629  10.847  0.1607 -0.1763 -0.0144
 5594W        W 9338   2.842   8.108  10.226 -0.3094 -0.1614 -0.1885
 5595W        W 9339   4.706   9.131   1.793 -0.0628 -0.2012 -0.3673
 5596W        W 9340   3.024   3.671   2.473 -0.1012 -0.1680  0.1255
 5597W        W 9341   8.835   1.641   9.656  0.1301 -0.3207 -0.0017
 5598W        W 9342   9.500   4.948   0.220  0.2825  0.1720 -0.1656
 5599W        W 9343   6.185   7.159   9.993  0.1021 -0.0153  0.1148
 5600W        W 9344   7.906   6.300   1.785  0.0350  0.3189 -0.3597
 5601W        W 9345   6.457   6.200   2.675  0.0214 -0.0605 -0.1119
 5602W        W 9346   1.077   2.147  10.690 -0.0042  0.0461 -0.0136
 5603W        W 9347   5.944   0.234   2.287  0.3070 -0.4249 -0.1590
 5604W        W 9348   8.515   7.640   5.244 -0.0463 -0.1992  0.2110
 5605W        W 9349   8.317   7.311   3.397  0.2490  0.2142 -0.3778
 5606W        W 9350   4.765   2.108   3.248 -0.1198 -0.2556  0.0854
 5607W        W 9351   5.553   0.421   9.056  0.2745  0.1096 -0.0301
 5608W        W 9352   3.767   9.376   8.576  0.0905  0.2427 -0.0096
 5609W        W 9353   0.826   9.396  10.224 -0.0239  0.0338  0.1650
 5610W        W 9354   0.221   8.663   8.105  0.1320 -0.4903  0.1185
 5611W        W 9355   8.713   2.676   9.677 -0.1725 -0.1167 -0.1493
 5612W        W 9356   6.290   7.790  11.101 -0.1411  0.2646  0.1501
 5613W        W 9357   6.585   5.211  10.162  0.0923 -0.2123  0.0303
 5614W        W 9358   9.503   2.703  11.553  0.0572  0.0693  0.0359
 5615W        W 9359   4.236   9.955   8.426  0.0534  0.0239 -0.1246
 5616W        W 9360   9.648   4.060   2.947  0.1536 -0.2317  0.0130
 5617W        W 9361   7.445   1.459  12.676  0.0339 -0.2266 -0.0351
 5618W        W 9362   0.400   6.060   9.145  0.2471  0.1196  0.1842
 5619W        W 9363   5.141   5.491   1.314  0.2958 -0.2036  0.0655
 5620W        W 9364   0.557   1.855   0.077  0.3308  0.0300 -0.0064
 5621W        W 9365   4.794   2.348   1.268 -0.0098 -0.0048  0.0812
 5622W        W 9366   7.084   4.768  11.762  0.1857 -0.1876 -0.0776
 5623W        W 9367   9.919   6.080  12.353 -0.2657  0.0861 -0.0773
 5624W        W 9368   6.944   3.750   4.418 -0.0653 -0.2414 -0.4144
 5625W        W 9369   9.380   5.325  12.100 -0.2140  0.3396 -0.0879
 5626W        W 9370   8.438   3.078   9.595 -0.0868 -0.1334 -0.0021
 5627W        W 9371   4.428   9.250   3.005 -0.0398 -0.0008  0.0975
 5628W        W 9372   5.533   4.040  12.562  0.1477  0.0074  0.2045
 5629W        W 9373   5.706   9.436  11.268 -0.2323 -0.0845 -0.3672
 5630W        W 9374   5.547   2.442   0.785  0.1381 -0.2173 -0.0607
 5631W        W 9375   3.377   4.846   1.429  0.2159 -0.1677  0.0256
 5632W        W 9376   4.556   0.071   2.743  0.0985  0.0449 -0.3917
 5633W        W 9377   7.081   8.195  10.814  0.0125 -0.1404  0.0723
 5634W        W 9378   3.810   7.742   0.987  0.3922 -0.2410  0.5288
 5635W        W 9379   1.760   2.364  12.167  0.1616  0.0699  0.1600
 5636W        W 9380   7.724   9.331   1.346 -0.1294 -0.1149 -0.2255
 5637W        W 9381   6.692   4.736  10.978 -0.1668 -0.1619  0.0982
 5638W        W 9382   4.528   9.582  12.271 -0.0061  0.2204 -0.0027
 5639W        W 9383   3.512   4.419   0.061  0.1784 -0.1243 -0.2900
 5640W        W 9384   7.704   8.548   1.105  0.0213  0.0898  0.0719
 5641W        W 9385   6.492   5.795   9.359 -0.0416  0.2793  0.0484
 5642W        W 9386   3.504   4.379  11.602  0.1485  0.1587 -0.2291
 5643W        W 9387   1.105   4.650  12.752 -0.0595 -0.0517  0.0504
 5644W        W 9388   0.183   6.576  12.395 -0.1060 -0.0336  0.0763
 5645W        W 9389   4.385   8.377   2.127  0.0444 -0.2806 -0.0433
 5646W        W 9390   3.929   8.227   0.929  0.6026  0.0625 -0.0297
 5647W        W 9391   4.289   2.273   9.931  0.0349 -0.1909  0.0719
 5648W        W 9392   2.577   7.226   1.658  0.2632  0.0216  0.0783
 5649W        W 9393   7.436   5.673   0.614 -0.1611  0.0957 -0.3542
 5650W        W 9394   5.312   3.099  11.266 -0.1803 -0.0153  0.0651
 5651W        W 9395   0.780   5.490  10.991  0.0308 -0.1775  0.3897
 5652W        W 9396   5.247   9.404   2.660  0.0754 -0.0236  0.1968
 5653W        W 9397   5.896   3.736   8.730  0.1313 -0.2660  0.0476
 5654W        W 9398   0.322   7.729   4.011  0.1090 -0.1375 -0.0029
 5655W        W 9399   3.633   8.132   0.163  0.0337  0.1029 -0.1917
 5656W        W 9400   9.147   9.470  11.136 -0.1757  0.2138  0.1967
 5657W        W 9401   6.454   6.109   3.197 -0.1120 -0.2949  0.1892
 5658W        W 9402   7.225   8.796   2.604  0.1783 -0.4164 -0.2028
 5659W        W 9403   7.926   3.354   0.197 -0.1368  0.1559 -0.5855
 5660W        W 9404   0.587   5.663   2.425 -0.2247 -0.4548  0.2368
 5661W        W 9405   8.142   9.346   4.531 -0.1131 -0.0952 -0.1552
 5662W        W 9406   4.573   0.894  11.974 -0.0236  0.2965  0.1217
 5663W        W 9407   8.149   1.283   9.205 -0.0362  0.0706  0.0344
 5664W        W 9408   7.547   5.327   3.698  0.1420 -0.0325 -0.3601
 5665W        W 9409   4.548   0.284   1.512  0.0313  0.2465 -0.0472
 5666W        W 9410   7.327   2.559  12.653 -0.1049 -0.2574 -0.2352
 5667W        W 9411   5.326   2.552   1.729  0.2795 -0.0606  0.1038
 5668W        W 9412   0.860   2.943   1.663  0.1797  0.0318 -0.1472
 5669W        W 9413   7.511   0.821   3.162 -0.2555  0.1151 -0.0056
 5670W        W 9414   7.867   7.106   2.375 -0.3570  0.0638 -0.1832
 5671W        W 9415   4.371   2.193  10.973  0.0163 -0.3394 -0.1435
 5672W        W 9416   4.971   4.011   9.616 -0.0170  0.2917 -0.0465
 5673W        W 9417   2.593   8.888   1.895  0.1749  0.1088 -0.3656
 5674W        W 9418   1.246   3.279  12.557 -0.0955  0.0344  0.0027
 5675W        W 9419   8.350   0.446   2.989  0.0036  0.2698 -0.0985
 5676W        W 9420   5.377   8.437   1.418 -0.0104  0.1751 -0.0548
 5677W        W 9421   0.012   2.625   1.614  0.2115  0.0301  0.2097
 5678W        W 9422   1.430   2.589  12.487  0.0477 -0.1015  0.1581
 5679W        W 9423   1.862   2.814  10.654  0.1377 -0.1850 -0.2392
 5680W        W 9424   7.205   8.206   2.306 -0.0510 -0.1055  0.0382
 5681W        W 9425   7.119   7.854  11.700  0.1127  0.2294 -0.2241
 5682W        W 9426   3.596   6.948   3.457  0.2673 -0.0832 -0.0348
 5683W        W 9427   6.943   4.341  10.053 -0.0853 -0.2611 -0.2435
 5684W        W 9428   1.013   1.973   0.692 -0.1948 -0.0023 -0.1967
 5685W        W 9429   7.038   3.141   2.870  0.1459  0.0068  0.2214
 5686W        W 9430   7.823   2.297   0.376 -0.0183 -0.1481 -0.1482
 5687W        W 9431   1.845   5.711  10.819 -0.0839  0.1295  0.0173
 5688W        W 9432   5.342   3.798   9.399  0.0170  0.1302  0.0595
 5689W        W 9433   9.671   4.405   3.311 -0.3946  0.0713 -0.1093
 5690W        W 9434   1.226   1.353  12.180  0.0096  0.0218  0.1287
 5691W        W 9435   3.012   1.202  11.601  0.0156  0.0489  0.0982
 5692W        W 9436   4.514   6.835   4.611 -0.2921 -0.2088  0.0302
 5693W        W 9437   9.013   7.466  10.556  0.0170 -0.1102  0.1090
 5694W        W 9438   5.538   1.446  12.557  0.2848  0.1216  0.1606
 5695W        W 9439   6.151   9.558  10.486 -0.3007 -0.0448  0.0070
 5696W        W 9440   3.744   4.278   1.705 -0.2078 -0.1447 -0.1628
 5697W        W 9441   5.098   3.038   3.611 -0.1377  0.1084 -0.2654
 5698W        W 9442   7.602   8.990   5.159  0.0088 -0.0541 -0.5572
 5699W        W 9443   7.049   5.641   2.777 -0.1938 -0.1022 -0.2132
 5700W        W 9444   1.505   6.388   0.345  0.0117 -0.3760  0.0273
 5701W        W 9445   2.057   0.119   9.854  0.3304 -0.1940  0.2352
 5702W        W 9446   6.232   5.464  10.692 -0.1814  0.0620  0.1633
 5703W        W 9447   5.922   7.052  12.447 -0.0774  0.0231  0.0120
 5704W        W 9448   2.055   9.596   4.427  0.1235  0.3048 -0.0250
 5705W        W 9449   4.912   5.549  10.745 -0.0452  0.2448  0.1463
 5706W        W 9450   0.789   8.309   1.534  0.0666  0.1930 -0.1722
 5707W        W 9451   2.554   7.386  11.709  0.1018  0.0407  0.3753
 5708W        W 9452   9.227   0.760   0.511  0.3881 -0.0726  0.0480
 5709W        W 9453   4.926   8.168  11.538  0.0190  0.0587 -0.1157
 5710W        W 9454   8.736   8.205  11.757 -0.1913  0.1265  0.1688
 5711W        W 9455   3.060   5.856   0.635  0.0748 -0.1828 -0.0269
 5712W        W 9456   0.118   7.253  10.678 -0.2142  0.3007  0.0757
 5713W        W 9457   5.385   7.943   2.410  0.2026 -0.0296 -0.4143
 5714W        W 9458   4.925   9.785   2.563  0.2171  0.0887  0.0690
 5715W        W 9459   4.020   3.120   3.920  0.1329  0.3077 -0.0797
 5716W        W 9460   5.963   0.232   9.635  0.0828 -0.0752  0.2399
 5717W        W 9461   8.217   2.581   9.668  0.0627 -0.4690 -0.0589
 5718W        W 9462   3.831   4.536  12.029  0.0347 -0.1446  0.0156
 5719W        W 9463   0.665   4.590   3.840  0.0043 -0.0814 -0.4145
 5720W        W 9464   8.334   9.214   0.565 -0.1541 -0.0345  0.1237
 5721W        W 9465   9.014   3.941   1.406  0.0197  0.0422 -0.0129
 5722W        W 9466   6.089   8.413   4.279 -0.0351  0.0087 -0.0087
 5723W        W 9467   7.723   3.130   8.954  0.1320 -0.0917 -0.0991
 5724W        W 9468   5.862   2.081   0.777  0.0821  0.3088  0.0311
 5725W        W 9469   1.621   3.112   1.484  0.1468 -0.0193  0.0795
 5726W        W 9470   5.083   1.723  11.521 -0.0327  0.0822  0.1871
 5727W        W 9471   6.010   1.917   9.279 -0.2644  0.1179 -0.0180
 5728W        W 9472   4.117   9.653   2.873 -0.0625  0.2015  0.3265
 5729W        W 9473   8.497   5.123   1.002  0.2513 -0.0734 -0.0243
 5730W        W 9474   3.215   3.268   3.593 -0.0313 -0.1806 -0.0443
 5731W        W 9475   6.819   0.591   2.258  0.0309  0.1632  0.0047
 5732W        W 9476   7.117   9.460   4.018  0.2183 -0.0878 -0.0904
 5733W        W 9477   2.566   2.812   2.460 -0.0225  0.2753  0.2740
 5734W        W 9478   7.616   1.771   2.122 -0.1678 -0.2207  0.1649
 5735W        W 9479   8.841   6.295  11.966 -0.1614 -0.1017  0.0102
 5736W        W 9480   5.261   6.456   2.660 -0.1222 -0.1023  0.3336
 5737W        W 9481   1.722   0.498   8.827 -0.1953 -0.0756  0.0735
 5738W        W 9482   9.287   7.241   0.273 -0.0191  0.2435  0.2431
 5739W        W 9483   6.476   3.921   0.286 -0.0355 -0.1315 -0.1415
 5740W        W 9484   0.211   4.373  11.907 -0.1138  0.1940  0.1046
 5741W        W 9485   2.799   6.919  11.662  0.3603  0.0722  0.1347
 5742W        W 9486   8.390   2.647  11.402 -0.2064 -0.2367 -0.2159
 5743W        W 9487   2.700   2.924  11.245  0.1524 -0.0255  0.3087
 5744W        W 9488   2.143   1.657   9.856 -0.1184 -0.2189 -0.1418
 5745W        W 9489   2.316   2.225   1.535 -0.2196  0.1948 -0.0456
 5746W        W 9490   0.163   5.484  11.836 -0.2204  0.1667 -0.1558
 5747W        W 9491   1.786   2.410   4.354  0.1418  0.0293 -0.0731
 5748W        W 9492   2.316   4.004  10.111 -0.3913  0.5558 -0.3030
 5749W        W 9493   6.135   5.949   9.790  0.2113  0.0242  0.0775
 5750W        W 9494   5.658   1.515  11.213 -0.1823 -0.2368 -0.1774
 5751W        W 9495   0.848   5.519  12.633 -0.0018 -0.2782 -0.1201
 5752W        W 9496   4.555   9.567   2.062  0.1101 -0.1647 -0.0728
 5753W        W 9497   0.991   7.808   0.238  0.0443  0.3856 -0.1113
 5754W        W 9498   0.427   4.844  11.257 -0.2760 -0.1114  0.1498
 5755W        W 9499   5.406   7.506   3.641  0.1145 -0.0476  0.0746
 5756W        W 9500   0.039   7.678  11.453  0.1362 -0.1008 -0.1173
 5757W        W 9501   2.629   3.203   9.774 -0.3470  0.1026 -0.3262
 5758W        W 9502   2.893   3.335   8.948 -0.5365 -0.0767 -0.2231
 5759W        W 9503   3.377   7.723   1.180 -0.1514  0.2675 -0.0468
 5760W        W 9504   4.571   5.175  11.202  0.0034 -0.4231  0.0976
 5761W        W 9505   8.580   1.595  11.534 -0.0994  0.1724  0.0114
 5762W        W 9506   9.614   0.033   3.822  0.2637  0.0386  0.4318
 5763W        W 9507   9.659   7.828  11.910 -0.0499 -0.0445  0.2114
 5764W        W 9508   3.816   9.047  10.915 -0.0377 -0.0705  0.0094
 5765W        W 9509   2.814   5.971  10.210  0.4007  0.0381  0.1934
 5766W        W 9510   0.280   3.327   9.800 -0.2941 -0.4206 -0.1910
 5767W        W 9511   5.744   4.177   0.967 -0.0615 -0.0233 -0.0331
 5768W        W 9512   5.448   4.473   3.000  0.0587  0.0248 -0.0804
 5769W        W 9513   6.048   4.347  12.244  0.2574 -0.5079 -0.1386
 5770W        W 9514   3.112   5.580  11.376  0.0936 -0.1195  0.2185
 5771W        W 9515   5.782   6.138  12.736  0.2411  0.0828 -0.0871
 5772W        W 9516   3.414   5.306  12.465 -0.0297 -0.1786 -0.1544
 5773W        W 9517   5.059   5.127  10.967  0.1296  0.0888  0.1472
 5774W        W 9518   6.203   4.449   0.217  0.0402 -0.0278 -0.0459
 5775W        W 9519   8.475   9.573  11.140  0.0940 -0.0080  0.3801
 5776W        W 9520   4.247   4.213  12.076 -0.1714 -0.1222  0.3392
 5777W        W 9521   2.885   8.901   2.784 -0.2024 -0.4697 -0.0843
 5778W        W 9522   5.174   7.605  10.054  0.0129 -0.0703  0.0242
 5779W        W 9523   0.453   0.724   3.816  0.1260  0.0149 -0.0233
 5780W        W 9524   6.620   9.724   3.840 -0.1936  0.2161 -0.1466
 5781W        W 9525   3.889   7.393  11.290 -0.3229 -0.2481 -0.0500
 5782W        W 9526   2.327   8.476  12.437  0.0560 -0.0254 -0.0743
 5783W        W 9527   3.488   7.347  11.553 -0.1714 -0.3648 -0.1511
 5784W        W 9528   0.817   7.755  11.124  0.0936  0.1053 -0.1532
 5785W        W 9529   5.306   4.234   9.289 -0.3639  0.3192 -0.0872
 5786W        W 9530   9.642   1.550   0.706 -0.1050  0.2316 -0.1243
 5787W        W 9531   9.541   9.646  10.786 -0.1798 -0.3635  0.1980
 5788W        W 9532   6.080   9.404  11.609 -0.0045  0.0316  0.1789
 5789W        W 9533   5.058   5.965   3.592  0.3593 -0.0047 -0.1458
 5790W        W 9534   8.385   2.960   2.383  0.0131 -0.0732 -0.1795
 5791W        W 9535   0.557   5.570  10.501  0.1094 -0.1317 -0.0388
 5792W        W 9536   8.852   9.334   0.401  0.0070  0.0934 -0.3057
 5793W        W 9537   4.521   2.640   2.709  0.1057 -0.0369  0.0251
 5794W        W 9538   4.172   5.063   1.043 -0.1738 -0.1817 -0.1149
 5795W        W 9539   6.948   1.395   5.074 -0.1181 -0.1537  0.0147
 5796W        W 9540   1.396   2.111  11.513  0.1992  0.3852 -0.2383
 5797W        W 9541   5.066   0.693   2.362 -0.1805 -0.1896 -0.1640
 5798W        W 9542   7.611   9.618   1.907  0.3995  0.2906  0.3254
 5799W        W 9543   8.059   1.557   4.008 -0.1931  0.0751  0.0335
 5800W        W 9544   3.094   3.191   9.912 -0.1239 -0.2452  0.0322
 5801W        W 9545   9.327   8.816   4.189 -0.1073 -0.1422  0.0676
 5802W        W 9546   6.793   5.165   0.972 -0.1653  0.0765 -0.1430
 5803W        W 9547   6.043   5.384   0.342 -0.0323 -0.0204 -0.3268
 5804W        W 9548   3.271   1.028   0.330 -0.1813 -0.0142  0.0435
 5805W        W 9549   4.877   4.102   4.133 -0.2035  0.2089  0.0300
 5806W        W 9550   8.002   3.563   8.691 -0.0297  0.1657 -0.3090
 5807W        W 9551   7.530   3.547   9.953  0.1734  0.1414  0.2967
 5808W        W 9552   9.797   1.982   1.570  0.1375  0.0915  0.3765
 5809W        W 9553   6.952   8.613   3.394 -0.2190  0.0622 -0.0615
 5810W        W 9554   2.508   8.618   3.952  0.0433  0.0850 -0.3678
 5811W        W 9555   5.744   1.501   9.805 -0.2544 -0.0584  0.0530
 5812W        W 9556   7.948   6.468  10.859 -0.1446  0.3740  0.0289
 5813W        W 9557   0.873   8.325   9.967 -0.0692  0.0961  0.2313
 5814W        W 9558   2.854   5.271   1.991  0.2350 -0.2436  0.1029
 5815W        W 9559   1.467   0.930   1.360  0.1591 -0.2761 -0.1214
 5816W        W 9560   2.532   1.202  10.626  0.3261  0.1833  0.4845
 5817W        W 9561   8.790   2.126   8.718 -0.1509 -0.1966  0.1565
 5818W        W 9562   6.434   5.501   9.796  0.0021  0.2095  0.0963
 5819W        W 9563   3.274   2.853   1.633  0.3272  0.2372  0.2067
 5820W        W 9564   5.131   1.510  11.008 -0.2663  0.0382  0.1575
 5821W        W 9565   7.578   9.301   9.090  0.0381 -0.3072 -0.1322
 5822W        W 9566   5.281   1.216  11.479 -0.0845 -0.2633 -0.2893
 5823W        W 9567   5.627   3.102   2.937  0.1131 -0.3043 -0.0758
 5824W        W 9568   8.095   7.163   9.055  0.0774 -0.0465 -0.2247
 5825W        W 9569   7.139   1.155   3.332 -0.0569  0.0706 -0.2491
 5826W        W 9570   1.362   3.734   3.761  0.1102  0.1706  0.0705
 5827W        W 9571   0.828   6.720  11.059  0.0162 -0.0041  0.0037
 5828W        W 9572   7.970   8.019   4.040 -0.1482  0.0519  0.4232
 5829W        W 9573   3.043   0.363   0.666 -0.0143 -0.3630  0.2232
 5830W        W 9574   8.495   3.138   3.785 -0.0534  0.2472 -0.0378
 5831W        W 9575   2.474   4.941   0.419  0.2599 -0.0357  0.3237
 5832W        W 9576   3.392   7.873   9.414  0.1612 -0.1501 -0.2469
 5833W        W 9577   0.746   1.961  10.101 -0.3598  0.2262  0.1918
 5834W        W 9578   1.359   8.597   0.470  0.1547  0.2280  0.2089
 5835W        W 9579   2.327   4.166   0.903 -0.3674 -0.0694  0.1446
 5836W        W 9580   4.008   2.744   3.366  0.1805  0.0434  0.1446
 5837W        W 9581   9.368   8.000  12.402 -0.0639  0.0077  0.2349
 5838W        W 9582   6.207   1.060   9.803 -0.1219  0.1122 -0.3188
 5839W        W 9583   5.147   1.277   0.020  0.0991 -0.0352 -0.0412
 5840W        W 9584   0.045   9.044   0.515  0.1418  0.1137  0.0735
 5841W        W 9585   0.556   0.442   9.051 -0.1963  0.0334 -0.1014
 5842W        W 9586   9.653   8.478   1.921 -0.0784  0.0807  0.0084
 5843W        W 9587   7.288   9.788   2.333  0.3552  0.2675 -0.0877
 5844W        W 9588   7.571   7.179   0.663 -0.0067 -0.0600  0.0383
 5845W        W 9589   2.883   7.275  11.297 -0.3089 -0.0979  0.1220
 5846W        W 9590   6.668   6.667   0.043 -0.2863 -0.0389 -0.2360
 5847W        W 9591   0.998   8.200   2.654 -0.3014  0.0426  0.0065
 5848W        W 9592   0.850   1.765  12.332 -0.2742 -0.1176  0.3914
 5849W        W 9593   6.193   7.105   3.485  0.1754  0.1192 -0.1484
 5850W        W 9594   1.371   3.670  11.731 -0.0882 -0.2123  0.2331
 5851W        W 9595   3.528   3.415  11.603 -0.4316  0.1915  0.0190
 5852W        W 9596   2.462   9.607   3.798  0.0878  0.3044  0.0306
 5853W        W 9597   8.272   3.779   0.221 -0.1444  0.2138  0.1241
 5854W        W 9598   6.643   1.149   9.163  0.0455  0.0227  0.1215
 5855W        W 9599   5.207   5.863   9.322 -0.1452 -0.0400  0.0897
 5856W        W 9600   7.926   1.199   0.918  0.0975  0.1561 -0.1358
 5857W        W 9601   8.152   6.836   9.965  0.0174  0.1797 -0.0470
 5858W        W 9602   2.563   4.415  10.507  0.0081  0.1842 -0.2635
 5859W        W 9603   3.490   5.043   2.838  0.2533 -0.0222  0.1004
 5860W        W 9604   6.275   6.788   9.547  0.3253  0.0110 -0.1099
 5861W        W 9605   2.647   0.878  11.888 -0.2218 -0.0372 -0.1261
 5862W        W 9606   4.755   6.855  12.229  0.0425  0.1520  0.1631
 5863W        W 9607   8.444   0.462  12.740  0.3939 -0.2412  0.1755
 5864W        W 9608   7.930   1.289   0.401  0.1417 -0.1725 -0.0142
 5865W        W 9609   4.378   1.121  11.128  0.3204 -0.2106  0.1679
 5866W        W 9610   4.815   3.477   2.161  0.3375  0.1361  0.1866
 5867W        W 9611   1.751   9.179   8.696  0.0496  0.0846  0.0437
 5868W        W 9612   2.340   8.474   8.795 -0.3456 -0.3548  0.1757
 5869W        W 9613   5.365   2.150  12.342  0.1372 -0.0429  0.1263
 5870W        W 9614   8.501   0.814   8.646 -0.2527 -0.2026  0.0668
 5871W        W 9615   9.418   6.556   9.994  0.0945 -0.2325 -0.1612
 5872W        W 9616   0.957   2.675  12.234 -0.1456  0.0818  0.0349
 5873W        W 9617   7.289   2.699   9.919 -0.4345  0.3938  0.1266
 5874W        W 9618   6.457   3.626   9.493 -0.2399  0.0736  0.1159
 5875W        W 9619   3.423   3.769   2.939  0.0907 -0.1915  0.0764
 5876W        W 9620   3.464   3.501   2.271  0.0046  0.0094 -0.1035
 5877W        W 9621   4.112   0.031  10.759  0.0843 -0.2915  0.0505
 5878W        W 9622   9.876   5.494   3.395  0.0184  0.0771 -0.1285
 5879W        W 9623   1.195   9.587  12.079 -0.2532 -0.0435  0.0851
 5880W        W 9624   2.852   0.859   9.887 -0.1179 -0.4638  0.2660
 5881W        W 9625   0.232   1.103   2.127 -0.1261  0.0475 -0.1998
 5882W        W 9626   2.799   0.600   1.129 -0.1552 -0.3093  0.0283
 5883W        W 9627   2.033   1.835   1.618  0.2596 -0.2566  0.0565
 5884W        W 9628   9.669   4.486  10.136  0.0370  0.0170  0.1149
 5885W        W 9629   8.079   9.880  11.145  0.1302  0.0953 -0.1591
 5886W        W 9630   0.051   5.556  10.243 -0.1063  0.1598 -0.2663
 5887W        W 9631   2.208   0.599   4.271 -0.1186 -0.1481  0.3946
 5888W        W 9632   1.121   5.514  11.951 -0.2753  0.0030  0.0003
 5889W        W 9633   2.441   4.632   2.765  0.0701 -0.3698  0.0745
 5890W        W 9634   4.416   7.694   1.601  0.0152  0.0691 -0.3908
 5891W        W 9635   1.480   1.104   3.644 -0.0284  0.0905  0.1915
 5892W        W 9636   8.983   9.909   2.388  0.2208 -0.0463  0.0792
 5893W        W 9637   3.219   3.585   1.103 -0.2869  0.0964  0.2121
 5894W        W 9638   6.315   2.983   4.319 -0.1373 -0.1595 -0.0326
 5895W        W 9639   8.101   1.149  12.332 -0.1577  0.0128  0.4743
 5896W        W 9640   0.106   1.035   3.316  0.0239 -0.0052 -0.0695
 5897W        W 9641   3.431   9.061   8.936 -0.0832 -0.0554  0.0264
 5898W        W 9642   2.376   7.992  10.138  0.1246  0.0672 -0.0485
 5899W        W 9643   6.273   7.994   4.472  0.2109 -0.3217 -0.1488
 5900W        W 9644   4.469   7.790   2.207  0.1607 -0.0071 -0.0834
 5901W        W 9645   4.116   4.573   1.928  0.0333  0.4104 -0.0337
 5902W        W 9646   7.031   4.955  12.212  0.0887 -0.0318  0.0875
 5903W        W 9647   7.320   5.852   9.689  0.0058 -0.2508 -0.0659
 5904W        W 9648   6.053   2.603  11.151  0.1528 -0.5822 -0.1104
 5905W        W 9649   3.850   3.594  12.460 -0.4480  0.0982  0.2990
 5906W        W 9650   9.332   5.768   9.804 -0.2652  0.1087 -0.0637
 5907W        W 9651   3.355   3.092   8.575 -0.1839  0.0544  0.2634
 5908W        W 9652   4.162   7.703   2.607  0.0984  0.2285 -0.2091
 5909W        W 9653   5.502   0.485   3.901  0.1050  0.0469  0.0109
 5910W        W 9654   4.472   5.272  12.468 -0.1927  0.1735  0.3419
 5911W        W 9655   3.272   7.027   3.821 -0.0456 -0.1217 -0.2726
 5912W        W 9656   9.491   7.205  11.803 -0.3386  0.0327 -0.0362
 5913W        W 9657   8.681   7.478   0.850 -0.1521  0.1981 -0.0841
 5914W        W 9658   0.796   5.986  10.668  0.1102  0.1707 -0.1130
 5915W        W 9659   1.571   7.204  10.834  0.1846 -0.0068  0.0746
 5916W        W 9660   1.651   3.612  12.503  0.0985  0.3523  0.2194
 5917W        W 9661   7.670   1.976  11.635  0.0944  0.0308  0.4952
 5918W        W 9662   0.521   7.453   9.415  0.1288  0.1634  0.0988
 5919W        W 9663   1.823   3.842   0.094  0.1442 -0.1361 -0.0865
 5920W        W 9664   4.592   2.661   8.757 -0.3988  0.0540 -0.0226
 5921W        W 9665   7.197   1.968   3.107  0.0213  0.0933 -0.3669
 5922W        W 9666   0.937   7.632   3.437 -0.1156 -0.3171 -0.0307
 5923W        W 9667   8.477   7.796   1.798 -0.2947  0.1786  0.0458
 5924W        W 9668   9.335   1.608   3.156 -0.0876 -0.3979  0.1527
 5925W        W 9669   0.457   5.363   0.310  0.4121  0.1159 -0.0908
 5926W        W 9670   6.364   0.758   2.199  0.1116 -0.0979 -0.1628
 5927W        W 9671   1.931   8.292  10.240  0.1725  0.1908  0.0289
 5928W        W 9672   9.447   7.110  12.411  0.2849 -0.2431 -0.4985
 5929W        W 9673   8.874   8.650   4.387  0.0469  0.1802  0.1100
 5930W        W 9674   2.148   0.309   9.051 -0.4330  0.2961  0.0041
 5931W        W 9675   1.897   4.544   3.385 -0.1008 -0.0078  0.2600
 5932W        W 9676   8.790   6.537   3.168 -0.0263  0.2392 -0.0541
 5933W        W 9677   0.148   0.112   8.969  0.2850 -0.1489 -0.4308
 5934W        W 9678   3.641   9.246  12.030 -0.2742 -0.1101  0.0041
 5935W        W 9679   0.435   5.257   9.495  0.0017  0.1523  0.0562
 5936W        W 9680   0.681   4.082   0.451  0.2586  0.0339 -0.1895
 5937W        W 9681   6.144   8.450   2.146 -0.0898  0.0844  0.1973
 5938W        W 9682   9.845   4.933   2.491 -0.1375 -0.1035 -0.2352
 5939W        W 9683   0.593   1.572   0.507  0.1205  0.1488  0.0000
 5940W        W 9684   9.869   6.371  11.935 -0.1391  0.0123 -0.0226
 5941W        W 9685   5.644   4.097   9.625  0.2465 -0.0798  0.0076
 5942W        W 9686   6.269   9.309  12.486 -0.2107 -0.0782 -0.1759
 5943W        W 9687   7.950   6.882   8.612  0.1402  0.2084 -0.2775
 5944W        W 9688   1.217   4.586   2.081  0.5030  0.0544 -0.2715
 5945W        W 9689   5.761   8.963   3.135  0.0459  0.0246  0.1729
 5946W        W 9690   3.002   1.134   2.937  0.0203  0.2789  0.1538
 5947W        W 9691   5.493   0.969   2.528 -0.0479  0.1088  0.0500
 5948W        W 9692   4.930   4.619   0.734 -0.0697 -0.2305  0.2543
 5949W        W 9693   4.174   7.423   1.129 -0.1321  0.0810 -0.4018
 5950W        W 9694   4.580   1.662   2.945 -0.1374 -0.0083  0.4270
 5951W        W 9695   7.623   1.209   2.725  0.0436  0.2577 -0.2595
 5952W        W 9696   3.976   8.134  12.004 -0.2208  0.2643  0.2436
 5953W        W 9697   6.679   2.882  12.133  0.0920  0.0259 -0.1223
 5954W        W 9698   2.146   5.671   0.076 -0.2874 -0.2850  0.2724
 5955W        W 9699   5.583   4.453  12.319 -0.1904 -0.0150  0.1017
 5956W        W 9700   4.630   1.533  12.715  0.1033 -0.0286 -0.0253
 5957W        W 9701   4.362   3.130  12.004  0.0545 -0.1496 -0.2553
 5958W        W 9702   8.268   0.726   0.863 -0.3352 -0.1196  0.0350
 5959W        W 9703   3.906   8.477  12.363  0.1332 -0.2553  0.0895
 5960W        W 9704   4.843   3.548   3.410 -0.0587  0.2957 -0.1232
 5961W        W 9705   6.074   9.775   2.604 -0.1173 -0.2543 -0.1192
 5962W        W 9706   7.386   1.576   8.224 -0.4515 -0.1819  0.0549
 5963W        W 9707   1.909   9.337   2.193  0.0503  0.3938 -0.1907
 5964W        W 9708   3.438   8.882   3.013  0.0783 -0.0343  0.0945
 5965W        W 9709   5.381   1.694   4.203 -0.1159  0.1087  0.0234
 5966W        W 9710   9.866   9.820   3.018  0.0171 -0.2107 -0.1088
 5967W        W 9711   1.115   1.595   9.410  0.1214 -0.0785 -0.1413
 5968W        W 9712   2.058   8.999   1.040  0.0187 -0.1626 -0.0193
 5969W        W 9713   6.880   2.173   0.825  0.1080 -0.3037  0.1593
 5970W        W 9714   0.850   1.050   4.697 -0.1427  0.0508 -0.1328
 5971W        W 9715   4.194   5.575   1.162  0.0346  0.0752  0.1554
 5972W        W 9716   8.172   9.272   9.948  0.2733 -0.1027  0.0373
 5973W        W 9717   0.078   4.903   1.060 -0.0148  0.4055 -0.1033
 5974W        W 9718   7.326   1.044   9.790 -0.0877  0.1283 -0.0033
 5975W        W 9719   5.628   3.858  10.948 -0.1083 -0.4092 -0.1570
 5976W        W 9720   1.636   0.676   0.932 -0.1992  0.1728  0.1091
 5977W        W 9721   2.294   6.470  11.482 -0.0441 -0.0734 -0.3781
 5978W        W 9722   8.469   6.804  12.043  0.2656 -0.1125  0.0175
 5979W        W 9723   8.734   8.118   1.516  0.0993 -0.0885  0.0325
 5980W        W 9724   7.246   0.396   5.010 -0.1706  0.0204  0.0433
 5981W        W 9725   2.818   3.166  10.842 -0.1577 -0.1319 -0.0531
 5982W        W 9726   3.394   3.263  12.584  0.0557 -0.3078  0.0497
 5983W        W 9727   2.659   0.300   1.645 -0.3211  0.2932  0.0345
 5984W        W 9728   5.551   9.233  12.247  0.3372  0.0386  0.0903
 5985W        W 9729   0.332   9.578  12.457  0.2283  0.1710 -0.0679
 5986W        W 9730   1.083   7.441   9.532  0.0035 -0.0095  0.2135
 5987W        W 9731   0.224   0.366   9.405 -0.4412 -0.0375 -0.2543
 5988W        W 9732   8.033   3.318  11.997  0.0876 -0.1531  0.1609
 5989W        W 9733   4.327   8.980  10.498  0.1303  0.1585 -0.1909
 5990W        W 9734   8.135   8.343  10.477 -0.5332  0.2288 -0.0337
 5991W        W 9735   1.209   4.313   0.402 -0.3269  0.0660  0.2260
 5992W        W 9736   2.825   4.535   4.255 -0.2870  0.1513 -0.0279
 5993W        W 9737   8.632   4.216   9.622  0.4026  0.0233 -0.0987
 5994W        W 9738   3.214   8.920   3.465  0.3182  0.0100  0.0977
 5995W        W 9739   4.192   4.121   3.974 -0.2768 -0.1031  0.1477
 5996W        W 9740   1.683   1.637  10.822 -0.0530 -0.1700  0.0244
 5997W        W 9741   1.923   9.318  11.822  0.2694  0.2948 -0.1396
 5998W        W 9742   1.706   0.053   2.971  0.1188 -0.3196  0.0213
 5999W        W 9743   8.808   8.116   4.397  0.1683 -0.1391 -0.1184
 6000W        W 9744   0.801   2.908  10.968  0.0030 -0.2823  0.0642
 6001W        W 9745   3.972   2.914   1.151 -0.0043 -0.1971 -0.2194
 6002W        W 9746   9.481   8.539   8.781 -0.0425  0.2223 -0.0867
 6003W        W 9747   1.176   7.708   2.511  0.4899 -0.2751  0.1065
 6004W        W 9748   6.443   7.642   0.221  0.0447 -0.0839  0.0079
 6005W        W 9749   6.671   3.900   0.765  0.0390  0.1080 -0.1316
 6006W        W 9750   6.392   9.799   9.324  0.2049 -0.4873  0.1432
 6007W        W 9751   0.925   5.279   1.206  0.1051  0.1719  0.0495
 6008W        W 9752   7.153   7.802   1.835 -0.3278  0.0653 -0.1775
 6009W        W 9753   1.849   8.614   9.861 -0.0681  0.0480 -0.0782
 6010W        W 9754   7.318   7.938  10.465 -0.0631 -0.1168 -0.0698
 6011W        W 9755   8.007   7.343   3.816  0.1908 -0.1389  0.1007
 6012W        W 9756   0.040   9.622   2.263  0.2292 -0.5753  0.2851
 6013W        W 9757   8.751   7.906   3.767  0.0702  0.0809 -0.0805
 6014W        W 9758   7.789   1.806   0.356 -0.0007 -0.2537 -0.2965
 6015W        W 9759   7.627   5.307   1.285  0.1020  0.2749  0.0824
 6016W        W 9760   7.362   4.284  11.606 -0.2325 -0.1326  0.0945
 6017W        W 9761   2.386   1.109   8.603  0.1305  0.1039  0.1302
 6018W        W 9762   2.786   6.835   9.727  0.0281 -0.0689  0.0283
 6019W        W 9763   3.054   1.658   1.838 -0.0261  0.0493  0.3771
 6020W        W 9764   7.989   5.906   0.812 -0.1087  0.2976 -0.1021
 6021W        W 9765   5.809   0.636   1.534  0.1122 -0.2058  0.0524
 6022W        W 9766   7.836   1.090  12.732 -0.0403 -0.1961 -0.0442
 6023W        W 9767   1.657   1.027   3.183  0.2567  0.1738 -0.0322
 6024W        W 9768   8.048   3.588  11.535 -0.0298  0.2149  0.3317
 6025W        W 9769   9.772   2.536   3.488 -0.0240  0.1303 -0.1072
 6026W        W 9770   4.008   6.099   1.053  0.0162 -0.3131 -0.0002
 6027W        W 9771   2.783   2.178   1.874  0.1641 -0.2213  0.0123
 6028W        W 9772   5.966   2.647  11.785  0.3425  0.5273  0.0833
 6029W        W 9773   4.790   2.139  12.341  0.1115  0.0118 -0.0078
 6030W        W 9774   4.213   9.942   2.378  0.2384 -0.3911  0.0994
 6031W        W 9775   6.685   0.943   9.918 -0.0516 -0.3310  0.3652
 6032W        W 9776   1.932   6.770  12.364 -0.1391  0.2014  0.0727
 6033W        W 9777   2.886   0.069   9.320  0.2380 -0.0802  0.0104
 6034W        W 9778   2.668   0.937   5.139  0.2020 -0.0915 -0.2345
 6035W        W 9779   9.891   9.028   8.875 -0.1143 -0.1679  0.1196
 6036W        W 9780   8.999   6.400   9.599 -0.1026  0.2785 -0.1009
 6037W        W 9781   9.110   0.386   0.900 -0.2917 -0.0738  0.1190
 6038W        W 9782   4.960   3.495   9.274 -0.0934 -0.2074  0.0803
 6039W        W 9783   4.739   2.438  10.182 -0.4013 -0.1381 -0.0047
 6040W        W 9784   9.937   8.069  11.046 -0.0548  0.0959  0.0924
 6041W        W 9785   5.420   8.459   2.560  0.3461  0.0993 -0.2550
 6042W        W 9786   6.185   4.949  10.211  0.3523  0.0777  0.1060
 6043W        W 9787   7.292   0.402  11.368 -0.0761 -0.2235 -0.0588
 6044W        W 9788   4.295   1.933   9.523 -0.1688 -0.3387 -0.3912
 6045W        W 9789   2.183   5.464   9.930  0.2564  0.1212 -0.1417
 6046W        W 9790   8.392   5.468   2.498 -0.1772  0.1258  0.1248
 6047W        W 9791   3.836   9.917   8.717 -0.2041 -0.0038 -0.0641
 6048W        W 9792   3.980   9.705   4.230 -0.1250  0.1228  0.0973
 6049W        W 9793   7.749   2.639  12.281  0.1080 -0.0659 -0.2315
 6050W        W 9794   2.289   5.861   1.551 -0.1920  0.1044  0.1627
 6051W        W 9795   6.363   4.960  11.490 -0.0211  0.1208  0.0969
 6052W        W 9796   4.901   8.108  10.566 -0.1131  0.0206  0.1378
 6053W        W 9797   5.186   4.950   4.244  0.1193  0.0075 -0.1696
 6054W        W 9798   9.366   5.360   2.825  0.1087  0.1121 -0.1200
 6055W        W 9799   6.609   2.325  10.244  0.0087  0.0490  0.5877
 6056W        W 9800   1.344   0.038  10.884  0.2055  0.0870 -0.1450
 6057W        W 9801   9.207   2.730   0.507 -0.2379 -0.0474 -0.1395
 6058W        W 9802   4.742   7.889   9.599 -0.2576 -0.1755  0.3246
 6059W        W 9803   1.363   0.488  12.273  0.0146 -0.0144  0.0233
 6060W        W 9804   9.588   4.341  12.667  0.1933  0.2130 -0.3065
 6061W        W 9805   5.605   8.267   2.027 -0.0519  0.0030 -0.0343
 6062W        W 9806   1.574   8.593   1.967 -0.1085 -0.0468 -0.0356
 6063W        W 9807   2.203   3.279  11.730  0.1206 -0.1097 -0.2924
 6064W        W 9808   7.892   9.391  12.391 -0.1587 -0.4420 -0.0027
 6065W        W 9809   7.293   7.164   9.872  0.2039  0.0141  0.1036
 6066W        W 9810   9.017   5.646   3.215  0.1699 -0.1276  0.1097
 6067W        W 9811   8.485   7.470  10.406  0.0815 -0.0189 -0.1421
 6068W        W 9812   5.542   2.706   9.028 -0.3362  0.1562 -0.2690
 6069W        W 9813   4.841   0.444   4.115  0.2068 -0.2068 -0.3527
 6070W        W 9814   1.324   7.446   2.080  0.1469 -0.0115 -0.1907
 6071W        W 9815   1.088   9.421   2.044  0.1630 -0.0641  0.1986
 6072W        W 9816   5.692   2.721  12.330  0.3752 -0.4294  0.1573
 6073W        W 9817   6.340   4.850   4.706 -0.2483  0.2727 -0.0651
 6074W        W 9818   1.463   3.526   0.603 -0.0506  0.0082  0.0003
 6075W        W 9819   0.800   9.265   3.276  0.4151 -0.0528  0.1233
 6076W        W 9820   5.962   8.656   8.692 -0.1945  0.0765 -0.0585
 6077W        W 9821   8.232   0.691  12.214  0.0850 -0.2090 -0.2545
 6078W        W 9822   6.497   1.583  12.338 -0.0301 -0.0660  0.1094
 6079W        W 9823   3.751   0.444  11.101  0.0671  0.3273 -0.2110
 6080W        W 9824   7.153   2.091   8.169 -0.0822  0.1872 -0.1233
 6081W        W 9825   6.964   2.800   0.710 -0.0824  0.2048  0.1840
 6082W        W 9826   3.122   6.986  10.933 -0.3537 -0.0005  0.0707
 6083W        W 9827   9.187   3.490  11.630 -0.3292 -0.0132  0.0668
 6084W        W 9828   8.312   2.293  11.944  0.4709  0.0584 -0.0572
 6085W        W 9829   9.029   7.448   9.109 -0.0904 -0.1470  0.3123
 6086W        W 9830   2.012   8.082   1.084 -0.0337 -0.0101 -0.1228
 6087W        W 9831   8.857   8.568   3.928 -0.0470  0.1357  0.1556
 6088W        W 9832   0.380   9.694   8.850  0.0439  0.0334  0.3664
 6089W        W 9833   2.405   5.122  12.241  0.0023 -0.0361 -0.1590
 6090W        W 9834   6.035   9.381  10.039  0.1812 -0.3496 -0.1417
 6091W        W 9835   0.957   5.037  11.117  0.0153 -0.0604 -0.4301
 6092W        W 9836   6.234   3.101   1.228  0.0659 -0.0576  0.2872
 6093W        W 9837   9.772   8.435  12.546 -0.1536 -0.0544  0.1068
 6094W        W 9838   4.766   9.163   0.376 -0.0831 -0.1293  0.1287
 6095W        W 9839   3.856   0.615  12.420  0.3648 -0.0549  0.4289
 6096W        W 9840   9.421   0.994  11.540 -0.3672  0.1370  0.0974
 6097W        W 9841   5.738   3.345   1.987  0.1206  0.0556 -0.0422
 6098W        W 9842   0.662   8.124   1.062 -0.1576  0.0403  0.2336
 6099W        W 9843   0.983   5.301  10.567 -0.3987 -0.0563  0.1238
 6100W        W 9844   2.605   7.403  12.756  0.1961 -0.0032  0.1140
 6101W        W 9845   9.158   5.778  12.033 -0.0149 -0.2728 -0.2738
 6102W        W 9846   1.384   7.772   8.464 -0.3979 -0.2755 -0.0940
 6103W        W 9847   4.814   4.490  10.237  0.1327  0.0964 -0.4663
 6104W        W 9848   6.480   7.687   1.375  0.3569  0.0018  0.1464
 6105W        W 9849   7.801   3.806   8.138 -0.1171  0.5362  0.0861
 6106W        W 9850   8.035   0.607   3.850 -0.1290 -0.0464  0.1230
 6107W        W 9851   6.958   3.653   1.157 -0.2600  0.1297  0.1287
 6108W        W 9852   2.077   8.492  11.927  0.3018  0.2119  0.4991
 6109W        W 9853   2.042   1.578   3.054  0.0680 -0.0940 -0.0728
 6110W        W 9854   9.668   2.988   0.497 -0.0937 -0.0784  0.1720
 6111W        W 9855   5.049   3.145   3.067  0.1110 -0.1563  0.0566
 6112W        W 9856   1.806   0.393   4.078 -0.3180  0.0794 -0.1040
 6113W        W 9857   8.114   5.213   0.003 -0.1861  0.3584 -0.1154
 6114W        W 9858   6.439   6.917   8.406 -0.0387 -0.2389 -0.1876
 6115W        W 9859   0.862   6.823  10.186  0.0576  0.1817 -0.0890
 6116W        W 9860   4.273   4.962   9.972 -0.0133 -0.2567  0.0330
 6117W        W 9861   7.721   4.944   2.362  0.2634 -0.1162  0.0559
 6118W        W 9862   1.152   1.314   1.893 -0.0829 -0.2849 -0.1814
 6119W        W 9863   7.289   5.141   5.032  0.2364 -0.2107 -0.0705
 6120W        W 9864   8.215   4.262   0.969  0.2028  0.2752  0.0822
 6121W        W 9865   3.213   5.193  11.649  0.3069  0.0707 -0.2429
 6122W        W 9866   7.800   8.915   4.725 -0.0207  0.0002  0.3199
 6123W        W 9867   0.326   3.869   2.639 -0.1241 -0.1215 -0.1605
 6124W        W 9868   7.293   4.429   9.120 -0.2850 -0.2549  0.2259
 6125W        W 9869   7.624   1.492   9.204  0.1813  0.0700 -0.1182
 6126W        W 9870   5.432   6.867   4.870  0.1333  0.0830 -0.0807
 6127W        W 9871   5.156   6.985  11.226  0.3321 -0.0676 -0.2721
 6128W        W 9872   2.704   5.521   2.425 -0.0272 -0.2044 -0.0139
 6129W        W 9873   8.550   9.227   2.201 -0.2160 -0.3425  0.0945
 6130W        W 9874   1.486   7.748   9.599 -0.1805  0.0352  0.0662
 6131W        W 9875   8.839   0.226  10.788  0.1834 -0.1479  0.0731
 6132W        W 9876   7.853   8.456   9.725 -0.1558  0.3373 -0.1579
 6133W        W 9877   1.970   9.387   3.787 -0.0413  0.1778 -0.0990
 6134W        W 9878   0.706   3.266   2.477 -0.1978  0.0507 -0.0629
 6135W        W 9879   4.662   8.790   3.096  0.0612 -0.0745 -0.0503
 6136W        W 9880   7.720   3.935  11.540  0.0688  0.1649  0.2496
 6137W        W 9881   8.830   7.044   9.403 -0.0302  0.0474  0.0703
 6138W        W 9882   2.153   7.023   0.853 -0.3126  0.1754  0.2421
 6139W        W 9883   6.944   0.777   3.147 -0.2188  0.0546  0.0664
 6140W        W 9884   1.002   5.733  10.195  0.0855 -0.0711 -0.2199
 6141W        W 9885   4.569   8.501  11.479 -0.1007  0.1134 -0.1638
 6142W        W 9886   8.269   0.756  11.656 -0.1725  0.1772  0.1820
 6143W        W 9887   4.955   0.441   9.250 -0.1046 -0.3355  0.2525
 6144W        W 9888   4.665   1.856  11.734  0.2697  0.1074  0.4542
 6145W        W 9889   2.829   4.981   1.476 -0.1540  0.0942  0.1789
 6146W        W 9890   0.941   7.120   3.311 -0.3623 -0.3589  0.2868
 6147W        W 9891   6.735   3.948  12.319 -0.0008  0.1012  0.1870
 6148W        W 9892   8.437   2.539   3.806 -0.0204 -0.0746  0.1520
 6149W        W 9893   2.473   3.260   0.355 -0.0346 -0.2075 -0.0341
 6150W        W 9894   5.791   2.718   1.433  0.0287 -0.0739 -0.1945
 6151W        W 9895   4.738   1.432   2.364  0.3054 -0.0541 -0.1001
 6152W        W 9896   8.156   6.015   8.708  0.1105  0.0962  0.0102
 6153W        W 9897   7.336   1.769   2.558  0.0310 -0.1194  0.0562
 6154W        W 9898   4.522   0.096   2.033 -0.1442  0.0936  0.0158
 6155W        W 9899   5.095   4.464  12.699  0.0350  0.0895 -0.0394
 6156W        W 9900   6.593   2.883   1.835  0.3353 -0.0493  0.0834
 6157W        W 9901   5.233   6.978   0.365 -0.1553  0.0563  0.0893
 6158W        W 9902   3.875   1.152   2.219  0.3343 -0.0690 -0.3629
 6159W        W 9903   4.496   7.417   2.973 -0.2960 -0.0998  0.1829
 6160W        W 9904   2.351   8.457   2.001  0.2367  0.1954 -0.0357
 6161W        W 9905   0.896   2.351   1.508 -0.2391  0.2648 -0.1672
 6162W        W 9906   2.550   0.342   5.027  0.0334  0.0804  0.0868
 6163W        W 9907   8.573   3.731   1.610  0.2977  0.0834 -0.3584
 6164W        W 9908   6.516   5.540  11.433 -0.5261  0.1403  0.3464
 6165W        W 9909   0.024   8.269  12.096 -0.0432 -0.0408 -0.3540
 6166W        W 9910   7.392   5.608   0.118 -0.3270  0.2630  0.1557
 6167W        W 9911   6.105   7.368   2.717  0.0800  0.0716 -0.1821
 6168W        W 9912   1.284   7.442  11.165  0.1103 -0.0683  0.1698
 6169W        W 9913   1.343   1.001   0.431  0.1080  0.0369 -0.6108
 6170W        W 9914   6.318   4.429   1.710 -0.1622 -0.0003  0.0009
 6171W        W 9915   7.130   4.418   0.371  0.1913  0.1425 -0.0597
 6172W        W 9916   0.383   8.175   0.614 -0.0618 -0.0503  0.1725
 6173W        W 9917   6.320   8.733  10.947 -0.0655 -0.0965  0.1222
 6174W        W 9918   9.007   9.342  12.326 -0.2231  0.2147  0.2079
 6175W        W 9919   6.733   1.420   1.773  0.2328 -0.0456  0.1365
 6176W        W 9920   6.936   1.956  12.472 -0.0363  0.0483  0.4390
 6177W        W 9921   5.666   8.757  12.359 -0.4351  0.0808  0.2252
 6178W        W 9922   3.967   1.144   1.118 -0.1903 -0.2201  0.1846
 6179W        W 9923   9.519   3.558  11.174 -0.0304 -0.1688  0.0212
 6180W        W 9924   0.525   7.073  12.742 -0.0269  0.0986  0.0128
 6181W        W 9925   4.722   9.712   0.255 -0.0959  0.2063 -0.1179
 6182W        W 9926   1.069   0.608   1.114  0.3296 -0.1995  0.1176
 6183W        W 9927   9.871   2.869  11.984 -0.4151  0.0337  0.1940
 6184W        W 9928   1.696   5.726  12.384 -0.2270  0.2401  0.2245
 6185W        W 9929   1.896   7.509  11.391  0.3619 -0.0354  0.2860
 6186W        W 9930   9.129   7.794   1.444 -0.0063  0.0443  0.2593
 6187W        W 9931   1.677   9.592   8.461 -0.1437  0.3229 -0.1612
 6188W        W 9932   1.249   0.927  11.917  0.1371 -0.0882  0.1901
 6189W        W 9933   1.265   8.256   1.720  0.0070 -0.2126  0.5345
 6190W        W 9934   8.762   1.761   3.744 -0.2368 -0.1778 -0.0315
 6191W        W 9935   1.815   3.276  10.873 -0.0049  0.0557  0.1288
 6192W        W 9936   8.459   3.568   2.078 -0.5458 -0.0140 -0.0067
 6193W        W 9937   3.493   6.333  12.701 -0.1731  0.0831 -0.3344
 6194W        W 9938   7.799   6.493   8.984 -0.0631  0.1190  0.1074
 6195W        W 9939   7.617   6.262   0.653 -0.0352  0.1793  0.1274
 6196W        W 9940   7.613   2.798  11.005  0.1767 -0.1973 -0.0882
 6197W        W 9941   6.535   7.824  10.637 -0.0095  0.3831 -0.1753
 6198W        W 9942   0.295   3.552   0.283  0.1620 -0.2751 -0.0148
 6199W        W 9943   5.774   5.695   4.158  0.2988 -0.0884  0.2667
 6200W        W 9944   9.626   5.115   1.650  0.0318 -0.2974  0.1950
 6201W        W 9945   0.260   8.909  10.406 -0.1882 -0.2278  0.0715
 6202W        W 9946   6.005   0.399   3.380  0.0890  0.2074  0.1216
 6203W        W 9947   9.872   7.980   2.292  0.1259  0.1585  0.0914
 6204W        W 9948   7.660   0.491  10.411 -0.2797  0.2276 -0.1033
 6205W        W 9949   5.933   5.273   1.872  0.0992 -0.0296 -0.2684
 6206W        W 9950   9.417   3.125   2.942 -0.1612 -0.0724  0.0636
 6207W        W 9951   8.960   3.713   3.729  0.0921 -0.2028  0.0136
 6208W        W 9952   7.335   1.475  11.326 -0.1762 -0.3060 -0.1263
 6209W        W 9953   8.368   6.299   2.091 -0.0612  0.2369  0.3734
 6210W        W 9954   5.219   2.923   2.653  0.2044 -0.2158  0.2609
 6211W        W 9955   2.249   3.117   3.701 -0.3332  0.0537 -0.1160
 6212W        W 9956   9.493   5.194   3.850 -0.3217 -0.0051  0.1662
 6213W        W 9957   1.542   9.616  11.127 -0.2231  0.1540  0.0128
 6214W        W 9958   8.532   4.873   0.249 -0.1652 -0.1626  0.0017
 6215W        W 9959   0.176   7.043   2.563 -0.1295  0.0759 -0.0641
 6216W        W 9960   6.391   2.066  12.407  0.0022 -0.2513 -0.3591
 6217W        W 9961   6.508   2.772   0.943 -0.0705 -0.0529 -0.3006
 6218W        W 9962   8.477   5.091  11.857  0.3499 -0.0403  0.2558
 6219W        W 9963   2.294   2.819   0.315  0.1528  0.1503 -0.0845
 6220W        W 9964   9.801   9.940   0.659 -0.1698  0.0173  0.1634
 6221W        W 9965   4.385   3.582   3.234 -0.2939  0.2777  0.0086
 6222W        W 9966   6.115   7.272   9.490  0.0118 -0.1700  0.4074
 6223W        W 9967   7.695   8.743   2.190  0.3727  0.1888 -0.0495
 6224W        W 9968   2.043   0.691   3.043  0.2524  0.0154 -0.2150
 6225W        W 9969   6.483   2.582   4.107 -0.2003  0.3917 -0.1207
 6226W        W 9970   3.858   0.917  11.160 -0.2159 -0.0345 -0.0147
 6227W        W 9971   2.887   8.800  11.577  0.1108 -0.1940  0.0655
 6228W        W 9972   0.174   7.226  11.778 -0.0519  0.0590 -0.1078
 6229W        W 9973   0.661   9.064  12.380 -0.2152 -0.1396 -0.1915
 6230W        W 9974   8.330   4.935  10.182  0.0549  0.2560  0.2177
 6231W        W 9975   5.455   0.217   1.568  0.1979 -0.1673 -0.0563
 6232W        W 9976   8.109   9.229   0.114 -0.3119  0.2737 -0.3480
 6233W        W 9977   1.396   2.149   3.584  0.1372  0.1704 -0.2341
 6234W        W 9978   6.572   8.737   1.906  0.0629  0.0130  0.5362
 6235W        W 9979   3.655   4.117  10.681  0.1594 -0.1522  0.0961
 6236W        W 9980   3.710   5.728   1.147 -0.2658  0.4273 -0.1377
 6237W        W 9981   4.309   9.865  11.779  0.0830 -0.0830 -0.1176
 6238W        W 9982   6.589   7.246  12.019 -0.0925 -0.3118  0.2146
 6239W        W 9983   9.078   8.370   1.207  0.1253 -0.0748  0.1876
 6240W        W 9984   6.832   4.530  12.248 -0.2221  0.0709 -0.1606
 6241W        W 9985   4.988   7.056  12.618 -0.2860  0.0389  0.1590
 6242W        W 9986   6.265   2.610   2.216 -0.0773  0.0798 -0.1734
 6243W        W 9987   7.113   9.123   0.696 -0.1993 -0.3367 -0.1650
 6244W        W 9988   1.422   8.216  10.022 -0.0152  0.1450 -0.0986
 6245W        W 9989   1.440   8.056   0.331 -0.2083  0.1284  0.1307
 6246W        W 9990   6.312   8.183   0.360  0.3389 -0.2289 -0.2288
 6247W        W 9991   3.830   4.823  10.222  0.2334 -0.0041  0.4701
 6248W        W 9992   8.364   0.666   1.430  0.1246  0.2461 -0.0354
 6249W        W 9993   0.443   0.813  10.305  0.0121  0.0195 -0.1833
 6250W        W 9994   7.589   8.770   8.955  0.2518 -0.1204  0.4328
 6251W        W 9995   5.842   8.066  10.353  0.0749  0.0551  0.0895
 6252W        W 9996   3.087   0.523  10.207  0.1673 -0.2887  0.1654
 6253W        W 9997   2.269   9.859   0.520 -0.0329 -0.0749 -0.2089
 6254W        W 9998   4.928   1.745   1.241  0.0202  0.0094  0.0145
 6255W        W 9999   7.300   5.178  11.113 -0.1888  0.0265  0.0812
 6256W        W10000   6.700   6.301   0.423  0.0197  0.0942 -0.1921
 6257W        W10001   3.095   7.342   9.691 -0.0110 -0.3855 -0.0770
 6258W        W10002   7.006   4.684   4.035  0.1213 -0.0300 -0.2096
 6259W        W10003   8.240   8.328   0.016  0.0016 -0.0589  0.3624
 6260W        W10004   4.972   0.171   1.812  0.0795 -0.1082  0.0581
 6261W        W10005   9.140   3.493   3.225 -0.1890 -0.1394  0.1739
 6262W        W10006   5.399   3.797   0.938 -0.0891 -0.1482  0.0306
 6263W        W10007   7.462   6.511   8.629  0.0229  0.3080 -0.5540
 6264W        W10008   5.371   0.317   9.538 -0.0072  0.1402  0.0064
 6265W        W10009   1.258   3.748  12.226 -0.1339 -0.0635 -0.0428
 6266W        W10010   4.666   5.487   1.349 -0.2455 -0.1563  0.0170
 6267W        W10011   9.936   6.097   0.282  0.1424  0.1131  0.0743
 6268W        W10012   6.328   3.540  12.707 -0.0101  0.0220 -0.0783
 6269W        W10013   3.336   6.786   0.377  0.2655  0.2212  0.0227
 6270W        W10014   7.520   5.101  12.239 -0.2137  0.1531  0.3454
 6271W        W10015   9.208   1.339   1.587  0.4636  0.1991  0.0937
 6272W        W10016   7.200   2.243   2.341 -0.0368 -0.6708 -0.3260
 6273W        W10017   6.363   1.184   2.460 -0.0070  0.0405 -0.1054
 6274W        W10018   1.032   8.760  10.920 -0.0106 -0.0235 -0.2174
 6275W        W10019   2.631   0.467   9.076  0.0854 -0.0607  0.4576
 6276W        W10020   3.837   8.469   0.548  0.3267  0.0109  0.2133
 6277W        W10021   6.870   0.703  10.966  0.2920  0.1510  0.0071
 6278W        W10022   0.614   4.821   9.788  0.1009 -0.1673  0.3989
 6279W        W10023   6.329   9.824   1.403 -0.0382 -0.3420 -0.0294
 6280W        W10024   2.417   8.290   9.284 -0.0644  0.0836  0.0709
 6281W        W10025   4.766   2.463   3.915  0.3304  0.0774 -0.2985
 6282W        W10026   2.392   2.046  11.157 -0.3512  0.0176 -0.2544
 6283W        W10027   8.346   9.961   9.047 -0.1596  0.1419  0.0302
 6284W        W10028   6.180   5.448   8.099 -0.1750  0.0831 -0.1712
 6285W        W10029   7.318   7.086   0.113  0.2622 -0.2045 -0.0183
 6286W        W10030   5.087   2.036  10.277  0.3183 -0.0791 -0.1528
 6287W        W10031   8.222   6.773   2.035 -0.2769 -0.1977  0.1000
 6288W        W10032   8.339   6.914  10.560  0.2593 -0.0799 -0.2589
 6289W        W10033   6.604   1.341   3.405 -0.1397 -0.1153  0.3636
 6290W        W10034   0.014   6.236  11.092 -0.1508 -0.0960  0.1079
 6291W        W10035   4.268   5.773   9.321  0.1873  0.1454 -0.3346
 6292W        W10036   2.709   9.472  10.476  0.1365 -0.2321 -0.3102
 6293W        W10037   1.943   7.622   1.446 -0.0982 -0.1356 -0.0326
 6294W        W10038   1.053   6.494   0.197 -0.0371  0.0966 -0.2124
 6295W        W10039   1.621   4.639   3.776  0.0792  0.0275  0.0604
 6296W        W10040   5.722   9.277   1.159  0.0923  0.0284 -0.1732
 6297W        W10041   6.006   5.244  12.644  0.3048  0.1016  0.1072
 6298W        W10042   5.175   5.943   1.544 -0.2750  0.0758  0.0683
 6299W        W10043   1.293   0.532  11.065  0.2212  0.1342 -0.0292
 6300W        W10044   7.280   6.017   3.505 -0.0399 -0.1528 -0.1792
 6301W        W10045   9.947   4.699   1.698 -0.3287  0.1674  0.1310
 6302W        W10046   9.706   6.871   2.416  0.1589 -0.0615 -0.0297
 6303W        W10047   1.079   6.733   1.579  0.2464 -0.4033  0.0133
 6304W        W10048   2.251   7.785   0.431 -0.1284  0.4080  0.0410
 6305W        W10049   5.578   5.244   4.004  0.0497  0.2009 -0.0330
 6306W        W10050   6.485   6.893   0.463  0.2816  0.1584  0.3847
 6307W        W10051   8.846   1.602   8.773  0.1768  0.1105  0.1626
 6308W        W10052   5.196   6.438  11.449  0.0118 -0.0453 -0.2772
 6309W        W10053   6.442   2.806   4.770 -0.1934 -0.0592 -0.0085
 6310W        W10054   4.311   4.694  12.294 -0.2248 -0.0763  0.1240
 6311W        W10055   5.946   9.717   0.993  0.2500 -0.0063  0.1378
 6312W        W10056   3.568   5.167   4.430 -0.1073 -0.1070  0.0009
 6313W        W10057   9.057   0.286  12.106  0.1202  0.1676 -0.0274
 6314W        W10058   3.647   4.554   3.688 -0.1135  0.1304 -0.1286
 6315W        W10059   8.730   0.695   1.107  0.1772 -0.3258  0.0249
 6316W        W10060   1.478   7.111   1.799  0.1436 -0.0608  0.1118
 6317W        W10061   7.501   2.564   1.812  0.1460  0.2598  0.1089
 6318W        W10062   6.776   9.127   3.951 -0.0090  0.1543 -0.1960
 6319W        W10063   3.600   7.785  11.189  0.0214  0.2354 -0.1053
 6320W        W10064   2.433   2.320   0.188  0.0088 -0.0841 -0.0028
 6321W        W10065   0.705   9.391  12.005 -0.0610  0.1561  0.1118
 6322W        W10066   8.940   8.335   0.321 -0.0306  0.0615  0.1396
 6323W        W10067   8.711   9.502   2.573 -0.0288  0.5985  0.1445
 6324W        W10068   3.170   5.938   1.208 -0.0003  0.0869 -0.3664
 6325W        W10069   3.120   0.402  12.621 -0.0574  0.1271 -0.1279
 6326W        W10070   3.484   5.109  12.042  0.3138  0.1854  0.1561
 6327W        W10071   2.838   7.497   2.052  0.2544 -0.0860 -0.1069
 6328W        W10072   5.157   4.646   1.930 -0.0196 -0.0073  0.2061
 6329W        W10073   7.397   8.934   0.319  0.0710  0.2866 -0.3132
 6330W        W10074   7.988   2.266  10.180  0.1284 -0.0632  0.2791
 6331W        W10075   3.669   9.208   1.181  0.0940 -0.0497  0.1563
 6332W        W10076   9.080   9.790   1.516 -0.0586  0.3780 -0.5000
 6333W        W10077   0.058   4.055   3.432  0.0821 -0.4141 -0.1804
 6334W        W10078   1.831   9.822   2.501 -0.4147  0.4054 -0.1309
 6335W        W10079   2.187   0.286  11.397  0.0211 -0.1209 -0.0312
 6336W        W10080   1.912   2.745   0.682 -0.1090 -0.0542  0.2514
 6337W        W10081   1.374   7.712   9.039  0.1719 -0.0429 -0.1021
 6338W        W10082   1.652   5.478   2.419 -0.1886  0.1447  0.0301
 6339W        W10083   0.196   5.720   1.588 -0.1915  0.1178  0.3159
 6340W        W10084   4.538   5.284  10.757  0.1390  0.2283  0.0108
 6341W        W10085   3.421   3.654  12.200 -0.2266  0.0756  0.2194
 6342W        W10086   7.224   0.990  12.593  0.5030  0.0138 -0.2092
 6343W        W10087   2.706   9.570   9.377  0.2171  0.0518 -0.3538
 6344W        W10088   2.377   6.346   1.405 -0.1923  0.1111  0.1170
 6345W        W10089   1.338   6.430   1.264 -0.0771  0.2153 -0.2469
 6346W        W10090   6.619   3.118  12.691 -0.0675 -0.2549 -0.0158
 6347W        W10091   8.722   3.057  11.417 -0.0632 -0.2134 -0.0532
 6348W        W10092   4.711   8.013   1.813 -0.1081  0.0950  0.2588
 6349W        W10093   0.089   6.177   9.516 -0.0056 -0.1221  0.1381
 6350W        W10094   4.351   9.370   0.408  0.2183  0.0687 -0.0631
 6351W        W10095   2.379   2.786  11.669 -0.0150  0.0282  0.0100
 6352W        W10096   8.456   7.476  12.704 -0.1182 -0.0337  0.1085
 6353W        W10097   9.915   8.033   9.922 -0.2641  0.2575 -0.2002
 6354W        W10098   5.808   5.001  11.521  0.0342 -0.3001 -0.2113
 6355W        W10099   7.800   1.462  11.518  0.1024  0.1977 -0.2325
 6356W        W10100   5.083   1.720  12.511  0.1563 -0.2293 -0.2622
 6357W        W10101   9.188   2.267   0.775  0.0181  0.0237  0.0194
 6358W        W10102   9.065   7.368  11.071 -0.1478  0.0272  0.2062
 6359W        W10103   7.397   6.013  12.003 -0.1916 -0.2500  0.0667
 6360W        W10104   9.291   4.512   9.228 -0.4273 -0.1953  0.2012
 6361W        W10105   5.840   6.798   9.369  0.1908  0.0589 -0.3233
 6362W        W10106   9.938   0.801   9.249 -0.0928 -0.2030 -0.0827
 6363W        W10107   4.629   6.659  10.112  0.0737 -0.1506  0.0074
 6364W        W10108   5.054   2.604   9.153 -0.0819  0.1842  0.1705
 6365W        W10109   2.855   7.676   2.899  0.0638 -0.2047  0.0908
 6366W        W10110   0.839   0.361   4.052  0.1194  0.1223  0.3463
 6367W        W10111   9.757   3.450  12.445 -0.2075  0.1481 -0.2353
 6368W        W10112   5.952   0.720   2.514  0.0173 -0.4912  0.0664
 6369W        W10113   4.300   7.144  12.134  0.1584  0.1882  0.0534
 6370W        W10114   7.910   7.723   1.129  0.2677 -0.3111  0.1680
 6371W        W10115   6.379   0.573  12.424  0.1761  0.0161  0.1599
 6372W        W10116   7.690   7.631  10.263  0.3989  0.1273 -0.0198
 6373W        W10117   0.933   7.448  12.637  0.0232 -0.1120 -0.1270
 6374W        W10118   9.264   9.136   2.672 -0.0804 -0.1155  0.2089
 6375W        W10119   5.933   6.225   3.275  0.2663 -0.1384  0.0768
 6376W        W10120   2.719   7.618   0.981 -0.3947 -0.1748 -0.1143
 6377W        W10121   7.400   9.726   4.373 -0.2006 -0.1950  0.2935
 6378W        W10122   0.231   7.155   9.734 -0.1683  0.1625 -0.0048
 6379W        W10123   9.702   8.902  12.368  0.0629  0.1811 -0.0461
 6380W        W10124   2.725   9.433   2.764 -0.0593 -0.4070  0.2744
 6381W        W10125   5.701   0.128   2.981 -0.0017  0.1024  0.3099
 6382W        W10126   9.683   1.362  12.577 -0.0186  0.0260  0.2571
 6383W        W10127   2.831   5.966   1.570  0.0592  0.0594  0.0863
 6384W        W10128   1.774   6.676   1.905  0.1058 -0.1569  0.1288
 6385W        W10129   0.769   7.253   9.879  0.1725 -0.1095  0.0080
 6386W        W10130   3.016   1.007   4.226  0.1112  0.3251  0.2018
 6387W        W10131   8.075   8.813   2.630 -0.0193  0.2521 -0.2038
 6388W        W10132   8.130   6.157   9.533 -0.0672 -0.0158  0.0380
 6389W        W10133   3.548   7.400   9.494 -0.0843  0.1627 -0.2965
 6390W        W10134   1.651   8.032  12.071  0.0765 -0.3681 -0.1350
 6391W        W10135   5.027   2.439   0.860 -0.1272  0.0794 -0.0566
 6392W        W10136   0.250   2.525  12.205  0.2414 -0.1148 -0.2158
 6393W        W10137   6.954   1.902   1.330  0.0283  0.2060  0.0895
 6394W        W10138   0.204   0.647   1.312 -0.0435  0.0388  0.0541
 6395W        W10139   6.761   7.299   3.173 -0.0484  0.3897 -0.2572
 6396W        W10140   4.895   9.873  12.580  0.1025  0.1915 -0.1043
 6397W        W10141   5.155   4.152   2.717 -0.0149  0.1280  0.1374
 6398W        W10142   0.609   2.247  12.418  0.2311 -0.0395  0.1716
 6399W        W10143   8.963   1.523  10.471 -0.0788 -0.2282 -0.0966
 6400W        W10144   1.465   2.214   8.842  0.2586  0.1990 -0.1457
 6401W        W10145   8.305   7.652   9.452  0.0926  0.1179  0.1745
 6402W        W10146   6.226   0.749   3.664 -0.0493  0.3634 -0.2434
 6403W        W10147   4.594   9.539   0.831 -0.3699  0.2861 -0.2812
 6404W        W10148   2.739   2.975  12.744 -0.0835  0.1306  0.0112
 6405W        W10149   7.325   7.843   1.182 -0.0545  0.1820 -0.0030
 6406W        W10150   0.131   6.734   3.450  0.0220 -0.0585 -0.3871
 6407W        W10151   5.230   8.545  11.915  0.1140  0.2233  0.3300
 6408W        W10152   5.630   7.240  10.799 -0.1719 -0.1209 -0.1117
 6409W        W10153   2.344   8.567  10.029 -0.0914  0.1288  0.0070
 6410W        W10154   1.830   0.546  11.164  0.0590 -0.0114 -0.0481
 6411W        W10155   2.828   7.810   8.776  0.2336  0.2836 -0.0008
 6412W        W10156   7.550   4.738   9.487  0.2477 -0.4137  0.1483
 6413W        W10157   8.548   9.938  12.639 -0.2382  0.2324  0.0990
 6414W        W10158   9.198   3.930  10.354 -0.0087  0.1086  0.2770
 6415W        W10159   5.267   3.766   1.972 -0.2055 -0.2285 -0.0066
 6416W        W10160   8.985   6.291   2.443  0.0392 -0.0124 -0.2479
 6417W        W10161   3.156   9.548  10.936  0.1801  0.1774  0.0963
 6418W        W10162   4.531   2.283   0.800  0.0780 -0.0980  0.0568
 6419W        W10163   8.622   2.992   0.482  0.2588  0.0656  0.1235
 6420W        W10164   1.396   5.012  10.534  0.3072 -0.0041 -0.3175
 6421W        W10165   3.499   3.329   3.201  0.2463 -0.1371  0.2153
 6422W        W10166   2.649   2.561   1.475 -0.0244  0.3163 -0.1747
 6423W        W10167   6.411   0.110   0.358  0.0437 -0.4250 -0.1327
 6424W        W10168   8.445   9.897   8.428  0.0837 -0.0569 -0.1076
 6425W        W10169   4.318   6.229   1.825 -0.0086  0.0780 -0.3296
 6426W        W10170   7.723   3.427   9.385 -0.2633  0.1606 -0.1619
 6427W        W10171   7.950   1.010  11.274  0.0296  0.0572  0.1679
 6428W        W10172   7.543   1.860   9.558 -0.1406 -0.0257 -0.1831
 6429W        W10173   0.810   0.424  10.194  0.3421  0.0057  0.1472
 6430W        W10174   2.508   8.405  11.514 -0.2389 -0.1402 -0.1259
 6431W        W10175   4.452   2.168   8.979  0.1428 -0.2095  0.0667
 6432W        W10176   2.562   3.670   0.658  0.2976 -0.0833  0.0545
 6433W        W10177   1.843   6.720   2.705  0.3168  0.1415  0.0469
 6434W        W10178   0.890   7.052  12.260  0.0126 -0.2009 -0.0420
 6435W        W10179   5.567   1.456   1.986 -0.2601  0.1005  0.2798
 6436W        W10180   7.948   2.052   8.555 -0.0958 -0.1589  0.0172
 6437W        W10181   2.632   2.436   3.359  0.0412 -0.5064  0.2445
 6438W        W10182   4.247   3.709   1.162  0.1438  0.2447 -0.0821
 6439W        W10183   4.063   3.484   4.708 -0.4252  0.1510 -0.2652
 6440W        W10184   5.269   6.454   1.398  0.2501 -0.1165 -0.0060
 6441W        W10185   0.635   8.729   9.699  0.2077 -0.0376  0.0531
 6442W        W10186   3.255   9.481  12.198  0.3690 -0.1391 -0.0771
 6443W        W10187   0.252   9.199   4.130  0.2664  0.0157 -0.0102
 6444W        W10188   7.029   5.608   2.218 -0.0418 -0.1602  0.2145
 6445W        W10189   7.934   7.568  11.081 -0.0742  0.0335  0.1076
 6446W        W10190   1.580   1.990   1.426 -0.0381 -0.4650  0.0758
 6447W        W10191   0.045   7.024   0.831  0.0848  0.1508  0.1165
 6448W        W10192   8.640   1.566   1.327  0.3678 -0.0921  0.0395
 6449W        W10193   3.868   5.038   1.836 -0.3674 -0.1697  0.1215
 6450W        W10194   2.085   7.145   2.602 -0.1872 -0.1312  0.1345
 6451W        W10195   3.955   0.984   3.526  0.3030 -0.1474 -0.0405
 6452W        W10196   2.572   1.612   3.122 -0.2957 -0.2588  0.0348
 6453W        W10197   2.695   9.503   8.492  0.0150 -0.2418 -0.1691
 6454W        W10198   7.929   6.487   3.997  0.0858 -0.3153 -0.0205
 6455W        W10199   9.833   5.526   1.894  0.3356 -0.1055  0.4383
 6456W        W10200   8.441   4.681   0.718  0.4351  0.0410 -0.0108
 6457W        W10201   5.865   2.237   8.872  0.0191 -0.2257  0.3594
 6458W        W10202   8.557   3.372  11.836  0.1309 -0.3315 -0.2681
 6459W        W10203   1.962   8.504   9.268  0.0501  0.2145 -0.2247
 6460W        W10204   0.699   2.297   0.919  0.0539 -0.1744  0.0649
 6461W        W10205   0.143   3.963   2.055  0.1423  0.2498 -0.3671
 6462W        W10206   4.745   1.112   3.244 -0.2798 -0.1075  0.0115
 6463W        W10207   3.250   7.854  12.373  0.0124 -0.3224  0.1390
 6464W        W10208   0.540   4.643  12.653 -0.1376  0.4058  0.1839
 6465W        W10209   0.773   0.531   3.334  0.3360 -0.1921  0.0258
 6466W        W10210   9.582   9.559   2.714 -0.0559 -0.1170 -0.2139
 6467W        W10211   1.432   1.730  12.506 -0.0251 -0.0076  0.0255
 6468W        W10212   7.774   8.875   9.394  0.2855  0.2041  0.3136
 6469W        W10213   6.605   7.543   4.568  0.1630 -0.0357 -0.2290
 6470W        W10214   9.961   5.090   2.063  0.2014 -0.0900 -0.0215
 6471W        W10215   2.009   2.438  12.599 -0.3267 -0.3942 -0.0713
 6472W        W10216   4.743   1.634   8.936  0.1958  0.0480 -0.1125
 6473W        W10217   5.383   9.411   0.825  0.1247 -0.1212 -0.0607
 6474W        W10218   7.566   7.212   4.372 -0.1076  0.3732  0.0221
 6475W        W10219   2.648   1.374  11.853  0.0261  0.1601  0.0440
 6476W        W10220   3.395   1.544   1.497  0.1505 -0.1975  0.1953
 6477W        W10221   0.354   6.528   2.742 -0.1480 -0.1394 -0.0400
 6478W        W10222   1.261   9.127  11.148  0.0374 -0.0495 -0.0129
 6479W        W10223   6.664   0.880   1.685 -0.1054  0.0541 -0.0582
 6480W        W10224   7.999   7.345  10.528  0.2958 -0.0210 -0.0957
 6481W        W10225   6.846   7.984   4.463 -0.1832 -0.0199 -0.1154
 6482W        W10226   1.802   1.435   0.644  0.0759 -0.0720 -0.2308
 6483W        W10227   1.184   5.129  11.510 -0.2734  0.2669 -0.0829
 6484W        W10228   8.869   2.835   2.581  0.1366  0.2364  0.2640
 6485W        W10229   8.324   7.170   9.534  0.0040  0.1525 -0.0722
 6486W        W10230   1.801   0.371  10.661  0.1253 -0.2091  0.0008
 6487W        W10231   5.113   0.968  12.069  0.0605 -0.3002 -0.3331
 6488W        W10232   5.719   4.368  10.833 -0.0009  0.0437  0.1208
 6489W        W10233   2.100   6.812   3.555  0.2143 -0.1300 -0.3104
 6490W        W10234   0.842   6.337  10.104  0.0566 -0.2567  0.0508
 6491W        W10235   6.991   8.165  12.103 -0.2022  0.0933  0.1382
 6492W        W10236   2.346   5.169   1.363  0.0823  0.0306 -0.0744
 6493W        W10237   7.362   2.711   4.271 -0.1634 -0.0392 -0.2823
 6494W        W10238   0.633   4.962  10.790  0.0086 -0.1278 -0.0593
 6495W        W10239   0.253   8.440   1.052 -0.0602  0.0859  0.3488
 6496W        W10240   0.859   3.338   2.000 -0.0084  0.5258 -0.0528
 6497W        W10241   9.042   2.464  10.068  0.1279  0.2710 -0.0448
 6498W        W10242   9.240   6.187   3.476  0.0154  0.0052  0.0298
 6499W        W10243   4.498   5.890   0.382 -0.0774  0.1872  0.0142
 6500W        W10244   9.204   3.535   2.716  0.1859 -0.0138  0.3323
 6501W        W10245   5.202   0.215   2.254  0.3608  0.3107 -0.2159
 6502W        W10246   5.916   5.519  12.146  0.0535  0.0514  0.3504
 6503W        W10247   8.191   3.342   9.235  0.0372  0.0742  0.0841
 6504W        W10248   2.055   7.110  11.056 -0.0572 -0.1911 -0.1131
 6505W        W10249   3.937   2.338   1.995  0.2669  0.1743  0.0045
 6506W        W10250   1.126   5.500   2.303 -0.5027 -0.2201  0.1175
 6507W        W10251   3.925   1.214  10.219 -0.1971  0.0215 -0.3280
 6508W        W10252   6.759   8.431  11.243  0.3976 -0.1646  0.0657
 6509W        W10253   0.633   8.068   0.111 -0.2789  0.0820 -0.2221
 6510W        W10254   6.732   3.151   8.690  0.0599  0.0480  0.1739
 6511W        W10255   0.485   1.619   1.043 -0.3775  0.1516  0.0420
 6512W        W10256   4.179   8.206  10.182  0.3197  0.1114  0.0298
 6513W        W10257   3.654   2.770  10.553 -0.0584  0.0778 -0.1013
 6514W        W10258   6.755   8.570   2.441  0.1462  0.4010 -0.1433
 6515W        W10259   8.681   9.490  11.943  0.3104 -0.0151  0.0473
 6516W        W10260   5.400   0.530  12.710  0.3260 -0.0127 -0.0083
 6517W        W10261   6.095   1.329   0.625 -0.0946  0.0055 -0.2984
 6518W        W10262   3.166   1.941   9.587 -0.2627  0.0663  0.2063
 6519W        W10263   4.693   2.550   0.405  0.0744 -0.0648  0.2604
 6520W        W10264   8.485   8.546  10.890  0.2222 -0.1237 -0.0681
 6521W        W10265   5.524   1.300   2.979  0.1391  0.1136  0.0246
 6522W        W10266   3.416   0.051  10.954 -0.2854 -0.0375 -0.1666
 6523W        W10267   6.177   9.010  12.071  0.3051  0.2166  0.2039
 6524W        W10268   2.379   6.315   0.068 -0.0211  0.2745  0.2622
 6525W        W10269   9.889   7.459  10.205  0.0678  0.0090 -0.2181
 6526W        W10270   0.556   4.916   0.806  0.1453 -0.0247 -0.2028
 6527W        W10271   0.556   1.147  10.655 -0.1259 -0.0603 -0.2467
 6528W        W10272   2.291   9.010   2.267  0.2250  0.1267 -0.0937
 6529W        W10273   0.414   6.667   2.283  0.0999  0.1323 -0.0364
 6530W        W10274   8.637   0.396   0.711 -0.0397 -0.0713  0.2303
 6531W        W10275   2.815   7.862   2.435  0.1244  0.1080  0.1902
 6532W        W10276   8.194   3.029   8.753  0.0745 -0.5002 -0.0786
 6533W        W10277   6.324   1.207   1.907 -0.0245  0.0773  0.0577
 6534W        W10278   8.789   7.673  12.406 -0.1445  0.1091  0.3733
 6535W        W10279   7.864   9.313  11.847  0.2816 -0.0847 -0.3507
 6536W        W10280   9.571   7.210   3.835 -0.2543  0.1377 -0.3940
 6537W        W10281   2.098   1.349   2.562 -0.0751 -0.2414 -0.3419
 6538W        W10282   0.092   8.401   9.619 -0.2005 -0.3018 -0.1971
 6539W        W10283   7.437   7.319   3.874 -0.0090  0.0982 -0.1584
 6540W        W10284   1.961   7.164   1.703 -0.0254  0.0172  0.0592
 6541W        W10285   1.740   7.909   3.189  0.1423 -0.2328  0.0327
 6542W        W10286   8.815   3.097   9.959  0.0051  0.0632 -0.0193
 6543W        W10287   1.037   0.731   5.064  0.0434  0.0158  0.0766
 6544W        W10288   8.402   7.025   0.094  0.0938  0.1044  0.2528
 6545W        W10289   0.008   4.736  12.737  0.0161  0.0204 -0.1504
 6546W        W10290   1.765   3.093  12.464 -0.3364 -0.2406  0.0512
 6547W        W10291   4.021   2.982  11.485 -0.1672  0.0645 -0.0597
 6548W        W10292   2.276   0.117   2.496 -0.0764 -0.2031  0.0982
 6549W        W10293   3.811   8.069  10.738 -0.0484 -0.1935  0.2360
 6550W        W10294   4.157   6.766   1.808 -0.0128  0.1863  0.2128
 6551W        W10295   3.422   6.910   9.693 -0.1057  0.1534  0.2665
 6552W        W10296   9.498   3.560  12.083  0.2072  0.1033 -0.0560
 6553W        W10297   6.179   3.928   9.810  0.1492 -0.1028 -0.2161
 6554W        W10298   6.957   9.270  11.813 -0.0737  0.3587 -0.2693
 6555W        W10299   2.450   0.670   3.420  0.1460  0.0006  0.0909
 6556W        W10300   5.186   2.585   0.429 -0.2684 -0.2012  0.2951
 6557W        W10301   5.888   7.208   2.288 -0.0709 -0.0189  0.0584
 6558W        W10302   1.794   7.347   9.866  0.0202  0.0122 -0.2145
 6559W        W10303   7.306   7.631   0.685  0.1628 -0.1502  0.0388
 6560W        W10304   2.860   9.936  10.787 -0.2335  0.0103 -0.0030
 6561W        W10305   4.024   1.569  12.711  0.1382  0.1264 -0.0409
 6562W        W10306   6.982   0.426  11.946  0.3070 -0.0217  0.1562
 6563W        W10307   4.474   2.771  11.662  0.0331 -0.1998  0.0574
 6564W        W10308   0.695   3.996   9.114 -0.0552 -0.3150 -0.2053
 6565W        W10309   0.391   6.200   3.651 -0.4619 -0.2405 -0.1228
 6566W        W10310   5.241   5.047   9.634  0.2089 -0.0812 -0.0348
 6567W        W10311   0.943   2.469  12.749  0.2391 -0.1126  0.4829
 6568W        W10312   3.851   3.132   0.106  0.1319  0.2673  0.0312
 6569W        W10313   1.612   3.363  12.048  0.3337  0.1820  0.3011
 6570W        W10314   0.405   5.731  12.752 -0.2688  0.2535  0.0279
 6571W        W10315   0.222   3.081   0.527 -0.0354  0.0898  0.2859
 6572W        W10316   4.957   2.979   9.498  0.2472 -0.1064  0.1713
 6573W        W10317   0.453   7.622   3.529 -0.0658 -0.0340  0.1786
 6574W        W10318   7.458   3.308   3.421  0.0820  0.2327  0.1895
 6575W        W10319   1.072   1.859   1.786 -0.2888  0.3130  0.3289
 6576W        W10320   7.080   6.086   4.028 -0.1511  0.2049 -0.2496
 6577W        W10321   9.274   3.545   2.215 -0.0484 -0.0010  0.2986
 6578W        W10322   7.772   5.653   4.299 -0.0143 -0.0352  0.2226
 6579W        W10323   7.438   6.912  10.771  0.2296 -0.2174  0.2093
 6580W        W10324   0.051   5.595  12.320 -0.1348 -0.1939  0.0509
 6581W        W10325   6.529   6.071   0.018 -0.1176  0.3237  0.0970
 6582W        W10326   3.618   7.956   0.616 -0.0870 -0.2979 -0.1978
 6583W        W10327   0.225   2.192   0.874  0.1639  0.1740 -0.2197
 6584W        W10328   8.186   0.176  11.853 -0.1471 -0.1045 -0.0917
 6585W        W10329   3.845   0.821   8.848  0.1347 -0.0527  0.1119
 6586W        W10330   4.530   6.838   0.874 -0.0071  0.3815  0.1056
 6587W        W10331   2.916   8.197  10.702  0.1870  0.2796  0.0457
 6588W        W10332   4.240   3.198   9.746 -0.1243  0.0903  0.0422
 6589W        W10333   4.396   7.360   4.655  0.1234  0.0893 -0.0797
 6590W        W10334   5.695   2.430   9.933  0.1334  0.1946  0.0655
 6591W        W10335   5.981   0.031   8.289  0.0902 -0.0859 -0.1446
 6592W        W10336   7.349   3.144   5.224  0.1771 -0.2173  0.0070
 6593W        W10337   0.042   9.311  10.220 -0.0325  0.0190  0.3342
 6594W        W10338   6.433   7.851   0.762 -0.0654 -0.3929 -0.0172
 6595W        W10339   7.136   5.174   2.986 -0.2009  0.3998  0.0109
 6596W        W10340   2.212   9.553   8.565  0.0701  0.0273  0.0342
 6597W        W10341   2.149   0.515   0.828  0.1167  0.1439  0.0251
 6598W        W10342   6.814   6.738   2.213  0.1251  0.0030  0.0228
 6599W        W10343   6.722   5.169  12.564 -0.2455  0.1549 -0.2258
 6600W        W10344   8.492   3.847   1.133  0.0571 -0.1343 -0.1329
 6601W        W10345   7.086   8.935   1.255  0.1646 -0.0233 -0.2138
 6602W        W10346   8.302   1.802   3.229  0.1659  0.2139 -0.2815
 6603W        W10347   7.184   1.121   1.765  0.2787  0.0238  0.0280
 6604W        W10348   1.257   9.556  10.000  0.0173 -0.1793 -0.1142
 6605W        W10349   1.564   0.504   3.046  0.2012  0.0254  0.2973
 6606W        W10350   9.174   6.916   9.757  0.0875  0.0626  0.0193
 6607W        W10351   0.287   0.913   4.218 -0.0724  0.0405  0.1053
 6608W        W10352   7.680   1.312  10.972 -0.0651  0.4630 -0.1903
 6609W        W10353   9.755   7.548   9.714  0.1138  0.0319 -0.0246
 6610W        W10354   0.615   1.033   3.407 -0.2144  0.1652 -0.1013
 6611W        W10355   4.448   5.947   0.886  0.1184  0.0893  0.0663
 6612W        W10356   3.573   0.995  11.929 -0.1597  0.1014 -0.0962
 6613W        W10357   5.215   1.999   3.435  0.0298 -0.3085  0.0378
 6614W        W10358   3.703   3.615  10.739 -0.0135  0.2352 -0.0687
 6615W        W10359   1.617   2.080  10.631 -0.2765  0.2398  0.1785
 6616W        W10360   6.626   5.186   0.353  0.1606  0.0531 -0.0046
 6617W        W10361   9.891   2.735   3.002  0.1282  0.3163 -0.1334
 6618W        W10362   5.275   4.994   3.183 -0.5026 -0.0942  0.2343
 6619W        W10363   5.940   6.383   9.611 -0.0688 -0.0283  0.2566
 6620W        W10364   9.316   5.187  10.488 -0.1842  0.1834  0.1350
 6621W        W10365   4.830   3.736  11.529 -0.2859 -0.0083 -0.0057
 6622W        W10366   9.370   5.959   1.690  0.0637 -0.0668 -0.1630
 6623W        W10367   8.987   6.317   0.265  0.1372  0.1690  0.1892
 6624W        W10368   0.791   9.562   9.013 -0.3394 -0.1526  0.2282
 6625W        W10369   6.542   0.868   0.611  0.1709 -0.0237 -0.1370
 6626W        W10370   0.585   3.320  12.117 -0.1118 -0.4448 -0.1215
 6627W        W10371   0.901   4.234   0.846  0.1502  0.0765 -0.1624
 6628W        W10372   1.097   1.295   8.948  0.1582  0.2427 -0.1817
 6629W        W10373   0.073   9.444   9.104  0.1347 -0.0746  0.1021
 6630W        W10374   9.735   3.406  10.403  0.0695 -0.1792 -0.0363
 6631W        W10375   1.193   5.970   0.364 -0.1899  0.1342  0.1535
 6632W        W10376   2.751   9.804   1.511 -0.1347  0.2536  0.1049
 6633W        W10377   0.097   8.575   1.517 -0.0074 -0.2867 -0.1773
 6634W        W10378   7.296   2.272  10.810 -0.2748 -0.1887 -0.1144
 6635W        W10379   8.546   1.533   4.179 -0.1352 -0.0578  0.0950
 6636W        W10380   6.506   9.884  10.664 -0.3593  0.0122  0.2465
 6637W        W10381   8.591   8.254  11.288 -0.0592 -0.0340  0.1821
 6638W        W10382   9.423   0.581   2.743  0.2395  0.2969  0.4538
 6639W        W10383   3.484   5.850  12.600 -0.0112 -0.0788 -0.0043
 6640W        W10384   1.316   5.024   1.025 -0.1177  0.0123  0.0203
 6641W        W10385   3.718   6.496   4.160 -0.2054 -0.0637  0.0952
 6642W        W10386   1.237   8.665   9.905 -0.2635 -0.1883 -0.0962
 6643W        W10387   6.216   1.619   9.665  0.2509 -0.0597  0.2554
 6644W        W10388   2.245   8.135  11.169 -0.1433  0.0683 -0.2083
 6645W        W10389   9.776   3.065   2.582  0.1135  0.1857  0.0422
 6646W        W10390   3.561   1.523  10.163 -0.1944  0.1585  0.1009
 6647W        W10391   7.497   3.474  11.090  0.0789  0.1616  0.1501
 6648W        W10392   2.013   5.515   3.238 -0.0600 -0.3447 -0.0848
 6649W        W10393   9.278   2.757   9.755 -0.2458  0.4487  0.2012
 6650W        W10394   0.900   3.536  11.380 -0.1426 -0.1284 -0.0837
 6651W        W10395   3.067   1.780   0.410 -0.3441  0.0095  0.0891
 6652W        W10396   1.817   1.780   2.560  0.2138  0.0222  0.1262
 6653W        W10397   3.018   2.654  10.041  0.0198  0.0319  0.0897
 6654W        W10398   1.222   9.338  12.487 -0.0384 -0.0723 -0.3242
 6655W        W10399   7.909   0.453   9.324  0.0339 -0.0402 -0.1999
 6656W        W10400   8.653   8.896  12.123  0.1602  0.0604 -0.0916
 6657W        W10401   2.291   0.716   9.518  0.1509  0.0127 -0.2683
 6658W        W10402   1.727   7.697  10.860  0.0255 -0.1134 -0.1732
 6659W        W10403   1.172   2.170  12.379 -0.0879 -0.3680 -0.2913
 6660W        W10404   6.576   8.491  10.183 -0.0387 -0.1085  0.0881
 6661W        W10405   4.916   5.094   2.155  0.0337 -0.1131 -0.2848
 6662W        W10406   5.852   7.999  11.663  0.3144 -0.3033  0.0277
 6663W        W10407   8.891   4.632   2.107  0.0353 -0.2758 -0.0180
 6664W        W10408   6.093   1.631   4.248  0.1187 -0.0512 -0.1667
 6665W        W10409   8.530   4.420  10.038  0.3097  0.0173  0.2814
 6666W        W10410   9.921   8.760  11.923 -0.1772  0.0244  0.0002
 6667W        W10411   4.404   4.471   8.412 -0.1884 -0.1174  0.1248
 6668W        W10412   3.257   9.732  12.699  0.0016 -0.0732 -0.0013
 6669W        W10413   7.156   9.448   9.850 -0.1842 -0.2162 -0.0438
 6670W        W10414   7.862   3.507  12.491 -0.0414  0.1071 -0.0635
 6671W        W10415   6.828   1.597   4.606 -0.0846 -0.3699 -0.0607
 6672W        W10416   5.955   0.299   1.237  0.2481  0.1328 -0.1102
 6673W        W10417   3.421   4.264  12.126  0.0550  0.3872 -0.0200
 6674W        W10418   5.515   7.919   1.655  0.0132 -0.2043 -0.0269
 6675W        W10419   2.482   0.799  10.341 -0.0956 -0.0563  0.0463
 6676W        W10420   1.280   9.349   3.325 -0.4101 -0.1772  0.0371
 6677W        W10421   9.164   5.583   1.403  0.1145 -0.1510  0.3455
 6678W        W10422   2.271   5.552   1.034  0.0801  0.0986  0.2699
 6679W        W10423   8.578   8.611   1.577  0.0774  0.1733  0.1252
 6680W        W10424   7.510   4.244  11.077 -0.1425  0.1721  0.2207
 6681W        W10425   5.927   1.828   2.782  0.0109  0.1044 -0.0374
 6682W        W10426   7.219   5.145   4.059 -0.2008  0.2206 -0.1404
 6683W        W10427   7.724   2.951  11.881 -0.0619  0.3026 -0.2832
 6684W        W10428   6.458   0.305   2.477 -0.1110 -0.2212  0.1520
 6685W        W10429   2.222   6.642  10.502 -0.1026  0.2528  0.0357
 6686W        W10430   5.943   8.868  11.311 -0.3656  0.0484  0.2868
 6687W        W10431   2.428   7.737   1.425  0.1201 -0.0736  0.2569
 6688W        W10432   2.507   2.020   3.875 -0.4587 -0.0849  0.0086
 6689W        W10433   9.233   5.321   9.997  0.2113  0.0933 -0.2234
 6690W        W10434   7.782   7.470  12.168 -0.2017 -0.1919 -0.1673
 6691W        W10435   8.288   7.781   3.707  0.0059  0.2289 -0.2894
 6692W        W10436   0.656   7.906   1.804 -0.1417 -0.0692  0.0986
 6693W        W10437   4.163   0.723  10.215  0.2044  0.0501  0.0921
 6694W        W10438   8.854   5.386  11.981  0.1668  0.3353 -0.0542
 6695W        W10439   7.474   9.149  11.096  0.1509 -0.3721  0.1112
 6696W        W10440   6.081   9.592   1.861  0.2005 -0.3490  0.0686
 6697W        W10441   7.686   0.713   5.212  0.3594  0.0102 -0.3122
 6698W        W10442   6.589   6.149  10.484 -0.2359  0.1640 -0.0972
 6699W        W10443   0.277   1.412  12.620 -0.1616 -0.0643 -0.3051
 6700W        W10444   0.734   6.518  10.630  0.2192  0.0564 -0.0653
 6701W        W10445   3.951   7.833  11.593  0.1757 -0.0616 -0.1182
 6702W        W10446   8.907   4.657   9.588  0.4781  0.1687  0.0809
 6703W        W10447   7.959   3.559   3.574 -0.2496 -0.2824  0.4070
 6704W        W10448   9.054   1.404   4.153 -0.3068  0.2682 -0.4148
 6705W        W10449   6.718   6.935   9.702  0.0269  0.1077 -0.4024
 6706W        W10450   2.313   3.127   1.992  0.0211  0.1545  0.2740
 6707W        W10451   5.896   1.347  12.198  0.1165 -0.1239 -0.0418
 6708W        W10452   8.209   2.086   0.092 -0.0520 -0.3550  0.3226
 6709W        W10453   2.193   9.933   1.529  0.2089 -0.0563  0.1072
 6710W        W10454   0.030   1.007  10.133  0.1151 -0.0461  0.2014
 6711W        W10455   7.638   0.142   3.291 -0.1267 -0.3012  0.0039
 6712W        W10456   6.060   5.440   4.881  0.2725 -0.0548  0.0273
 6713W        W10457   1.277   6.982   9.638  0.1705 -0.2278 -0.1807
 6714W        W10458   3.284   1.814   1.062  0.2037  0.0779 -0.1795
 6715W        W10459   3.445   3.867  10.136 -0.0316 -0.0425  0.1367
 6716W        W10460   0.603   7.695   1.309  0.1204  0.0734  0.0161
 6717W        W10461   4.751   3.470   9.734  0.1791  0.1243  0.0761
 6718W        W10462   5.408   7.406   1.759  0.0233 -0.1070  0.0059
 6719W        W10463   3.693   2.857   1.962  0.0450  0.2048  0.0566
 6720W        W10464   3.007   3.523  11.384 -0.2113 -0.0286 -0.1933
 6721W        W10465   6.954   9.447   3.541 -0.1953  0.1450  0.4327
 6722W        W10466   0.333   8.453   3.372  0.0348  0.1201  0.0876
 6723W        W10467   3.856   6.730   2.665 -0.0719 -0.0056  0.0935
 6724W        W10468   0.823   6.374  11.523  0.2208 -0.0682  0.0986
 6725W        W10469   3.234   8.830   0.005 -0.2088 -0.5434 -0.0615
 6726W        W10470   5.613   4.216   4.345  0.1255  0.0421  0.1432
 6727W        W10471   5.913   7.517   3.647 -0.1372  0.2164 -0.2522
 6728W        W10472   0.879   2.107   2.795  0.1021 -0.0943 -0.0538
 6729W        W10473   0.143   1.817  10.698 -0.3116 -0.2018  0.1218
 6730W        W10474   3.051   2.733   3.549  0.3376 -0.1793 -0.0204
 6731W        W10475   1.858   4.192  10.150  0.1058 -0.2465 -0.0828
 6732W        W10476   7.494   3.472  11.609 -0.0296 -0.1390  0.0522
 6733W        W10477   5.911   9.900   9.161  0.4456 -0.2521  0.2383
 6734W        W10478   6.292   8.613   9.792  0.2080 -0.0465  0.1276
 6735W        W10479   5.138   5.199   2.711  0.1247  0.1012  0.0044
 6736W        W10480   9.882   3.865  12.742  0.0835  0.4725  0.1746
 6737W        W10481   4.747   8.159  12.086  0.1814  0.2781 -0.1857
 6738W        W10482   8.129   2.456   3.097 -0.0652  0.1511 -0.1634
 6739W        W10483   8.181   4.695  11.889  0.0011  0.0256  0.0002
 6740W        W10484   7.536   6.701   0.382 -0.2609  0.0036 -0.0036
 6741W        W10485   0.532   2.156  10.605 -0.0730 -0.0644  0.0286
 6742W        W10486   2.168   7.550  10.676  0.2617  0.1940 -0.0339
 6743W        W10487   1.154   0.323   1.582  0.1292  0.0536  0.3582
 6744W        W10488   7.702   6.188  12.338 -0.2829 -0.0308  0.1849
 6745W        W10489   8.052   9.128   0.966  0.0086  0.1006 -0.0914
 6746W        W10490   7.564   6.196   4.229  0.2251 -0.0329 -0.2415
 6747W        W10491   6.843   3.656  12.756  0.0259 -0.0807  0.0159
 6748W        W10492   1.738   4.719   1.135  0.1863 -0.3916  0.0519
 6749W        W10493   8.993   2.680  11.362  0.1386  0.2704 -0.1096
 6750W        W10494   7.316   7.305  10.344 -0.1244  0.0679 -0.3002
 6751W        W10495   1.892   8.452   4.081 -0.1733  0.0812  0.0634
 6752W        W10496   3.156   7.766   3.707 -0.0041  0.0556  0.2233
 6753W        W10497   2.965   7.187   0.640  0.1813  0.1271 -0.0540
 6754W        W10498   1.269   9.870   8.772 -0.0974 -0.1635 -0.2569
 6755W        W10499   0.562   3.458  10.231  0.2437  0.2452  0.0391
 6756W        W10500   4.146   6.260   9.047  0.0987  0.0683  0.0224
 6757W        W10501   9.259   8.723   7.775 -0.0375  0.1957 -0.0625
 6758W        W10502   4.937   2.505  12.721  0.3369 -0.1361 -0.1577
 6759W        W10503   4.200   5.767   4.036  0.3655  0.1941 -0.2403
 6760W        W10504   0.345   8.189   8.458 -0.4601 -0.0248 -0.0055
 6761W        W10505   5.796   8.442   1.133  0.0899  0.3421 -0.0683
 6762W        W10506   8.925   9.604  12.724 -0.0798 -0.1760  0.2020
 6763W        W10507   5.042   9.013   1.448  0.0070 -0.0613  0.1674
 6764W        W10508   0.896   8.552  11.844  0.0650  0.3549 -0.1646
 6765W        W10509   5.311   3.391  12.192 -0.1801 -0.1301  0.2258
 6766W        W10510   8.504   2.475   0.959  0.1262  0.2343  0.2636
 6767W        W10511   9.701   6.928  10.483  0.1134  0.2908 -0.0518
 6768W        W10512   0.205   6.051   2.631 -0.1280 -0.1665  0.0052
 6769W        W10513   2.000   9.370   9.155  0.2586  0.4664  0.2275
 6770W        W10514   3.819   5.403   3.158 -0.3121  0.0687  0.1835
 6771W        W10515   9.928   6.500   1.491  0.3276 -0.0468  0.1591
 6772W        W10516   2.694   7.741  12.240 -0.1753  0.1044 -0.0669
 6773W        W10517   5.353   3.386  10.830 -0.0742  0.4665  0.2691
 6774W        W10518   3.886   0.141   3.252  0.4310 -0.5371 -0.0309
 6775W        W10519   0.318   6.169  10.455  0.0474  0.1057  0.0386
 6776W        W10520   7.958   0.091   3.709 -0.0294  0.3022  0.0673
 6777W        W10521   9.888   2.181   9.849 -0.0780 -0.2524 -0.2121
 6778W        W10522   7.260   5.199  11.614 -0.1328 -0.0468  0.0377
 6779W        W10523   5.112   3.976   0.051 -0.1279  0.2082 -0.1595
 6780W        W10524   8.632   1.232   9.493 -0.0840  0.0259  0.0255
 6781W        W10525   8.766   9.074   1.781  0.3842  0.0213 -0.2220
 6782W        W10526   9.928   8.935   1.090  0.3081  0.2628  0.1515
 6783W        W10527   8.312   8.620  11.918  0.3026 -0.0332 -0.1379
 6784W        W10528   7.029   6.027   1.946 -0.0767 -0.0923  0.2266
 6785W        W10529   9.259   7.508   2.895 -0.0231  0.1494  0.0782
 6786W        W10530   7.205   3.362   2.145  0.2357  0.0926  0.0466
 6787W        W10531   1.575   2.806   1.055 -0.1475  0.1206  0.0701
 6788W        W10532   0.244   9.622   9.771 -0.0346  0.1670  0.1502
 6789W        W10533   3.794   0.651   2.527 -0.2799 -0.2724  0.2639
 6790W        W10534   5.909   5.087   1.409 -0.3939 -0.0262  0.1257
 6791W        W10535   0.602   9.087   3.706  0.1505 -0.0183 -0.0347
 6792W        W10536   3.226   1.295  10.469 -0.5103 -0.2624  0.3954
 6793W        W10537   4.816   6.460   1.668 -0.0725 -0.0317  0.1070
 6794W        W10538   0.124   3.222   2.992 -0.0604  0.0316 -0.0534
 6795W        W10539   7.475   0.249  12.310  0.0558  0.0565  0.2282
 6796W        W10540   8.694   2.004  10.644  0.1723  0.0340  0.1610
 6797W        W10541   4.043   2.694   2.717 -0.2665  0.0258 -0.0699
 6798W        W10542   8.164   5.435  11.604 -0.3599 -0.1792 -0.2679
 6799W        W10543   7.424   9.402  12.558 -0.2335 -0.1412 -0.2370
 6800W        W10544   5.355   5.719   0.853  0.0623 -0.0482 -0.0414
 6801W        W10545   7.802   7.121   1.252  0.0226  0.0539  0.4757
 6802W        W10546   0.132   3.685   3.119 -0.0365  0.1460 -0.1521
 6803W        W10547   5.057   3.916   0.584 -0.0359  0.4621 -0.0364
 6804W        W10548   7.013   1.227  11.080  0.2496  0.0089  0.3017
 6805W        W10549   6.277   9.877  11.670  0.2359 -0.0546 -0.1255
 6806W        W10550   4.148   5.319   2.227 -0.1502 -0.0528  0.1836
 6807W        W10551   8.015   6.306  11.339 -0.0944 -0.2609 -0.0688
 6808W        W10552   4.931   5.707  10.173  0.0894  0.1107 -0.1137
 6809W        W10553   0.622   7.311   2.592 -0.2437  0.0458  0.2292
 6810W        W10554   0.014   9.212   1.441 -0.0274  0.2707 -0.1734
 6811W        W10555   2.015   0.700   2.144 -0.0351 -0.2146 -0.1114
 6812W        W10556   5.203   8.932   2.389  0.1921 -0.1778  0.1076
 6813W        W10557   1.090   2.940   2.385  0.4082 -0.0720  0.3340
 6814W        W10558   4.128   9.251   3.900  0.0226 -0.0541  0.3277
 6815W        W10559   2.927   1.986  11.304  0.0818 -0.0389 -0.4631
 6816W        W10560   8.124   7.939   2.269  0.2553  0.0821  0.0268
 6817W        W10561   6.904   0.869   4.131  0.0442  0.2541  0.0093
 6818W        W10562   1.755   8.243  11.172 -0.1471 -0.0107 -0.2510
 6819W        W10563   2.242   7.304   3.405 -0.0720 -0.3238  0.1797
 6820W        W10564   2.516   4.549  11.097 -0.1944 -0.0405  0.1916
 6821W        W10565   2.809   1.679   0.886  0.0922  0.2838 -0.0245
 6822W        W10566   4.024   0.626   1.267 -0.0852  0.0781  0.1637
 6823W        W10567   0.728   6.624  12.523 -0.3740 -0.1357 -0.1714
 6824W        W10568   9.813   1.843  11.371 -0.2139  0.1706  0.1338
 6825W        W10569   8.890   4.395   0.667  0.0289 -0.0992  0.1026
 6826W        W10570   6.643   6.576   3.033 -0.1113 -0.2397 -0.2776
 6827W        W10571   5.714   5.082   9.429  0.1257 -0.0770 -0.0574
 6828W        W10572   3.957   5.926  10.349  0.2220 -0.0593  0.0611
 6829W        W10573   8.151   0.487   9.862  0.3018  0.2548 -0.3567
 6830W        W10574   4.736   3.149   8.921 -0.0858  0.0845 -0.1164
 6831W        W10575   6.499   4.154   9.379 -0.0591  0.0837 -0.2091
 6832W        W10576   6.187   9.778   4.167 -0.2628  0.0289 -0.3223
 6833W        W10577   8.009   1.725   9.492 -0.2305 -0.5175 -0.0869
 6834W        W10578   1.348   5.219   2.865 -0.0220 -0.0753  0.0842
 6835W        W10579   0.173   0.190   2.568 -0.1663 -0.0940  0.3466
 6836W        W10580   3.680   3.676   1.308 -0.0554 -0.1598 -0.0383
 6837W        W10581   9.706   6.442   8.626  0.1114 -0.2096 -0.1178
 6838W        W10582   0.173   0.242   1.003  0.2100 -0.0067  0.0441
 6839W        W10583   6.524   3.999   2.533  0.1603 -0.5775  0.1510
 6840W        W10584   8.653   8.048   3.315 -0.0131 -0.1555 -0.0882
 6841W        W10585   6.911   3.487   9.736 -0.0865 -0.0936  0.2121
 6842W        W10586   0.665   5.210   2.254 -0.0274 -0.0461 -0.2258
 6843W        W10587   7.515   3.017   2.918 -0.0118  0.0352  0.2505
 6844W        W10588   3.317   6.036  10.917 -0.0658 -0.1576  0.2683
 6845W        W10589   5.467   9.848   2.536 -0.1293  0.2632 -0.1394
 6846W        W10590   7.493   3.844   4.492 -0.0176  0.0517 -0.1181
 6847W        W10591   6.982   5.522  11.285 -0.0687  0.1762  0.0055
 6848W        W10592   4.307   1.546   1.235  0.2608  0.2340  0.0437
 6849W        W10593   0.556   7.952   3.151 -0.1100 -0.2334  0.1009
 6850W        W10594   6.565   8.127   9.331  0.1258  0.1056  0.1398
 6851W        W10595   4.364   5.497   0.663  0.1880  0.0963  0.1252
 6852W        W10596   3.696   4.999   0.771  0.0726  0.2571 -0.2052
 6853W        W10597   6.535   7.882   8.348  0.1251 -0.0912 -0.1771
 6854W        W10598   3.949   7.710   0.146  0.2070 -0.3884 -0.0478
 6855W        W10599   3.861   5.524   9.102  0.3442 -0.0860  0.0281
 6856W        W10600   3.878   1.647   2.353 -0.1575 -0.3604  0.1674
 6857W        W10601   0.178   9.687   1.661  0.1391  0.1276 -0.1118
 6858W        W10602   9.749   3.364   2.224  0.4934 -0.0735  0.2661
 6859W        W10603   6.414   0.794   8.104 -0.2457 -0.0402 -0.1477
 6860W        W10604   6.307   2.286   0.920  0.0620  0.0754  0.6240
 6861W        W10605   7.709   7.420   8.922 -0.2060  0.0894 -0.2107
 6862W        W10606   4.362   0.666  12.379  0.0577  0.0714  0.3062
 6863W        W10607   4.639   0.474   0.975  0.0002  0.0888  0.0584
 6864W        W10608   7.588   7.992   3.658  0.0890 -0.2575  0.1021
 6865W        W10609   6.339   0.208  11.198 -0.0623  0.1137  0.1333
 6866W        W10610   3.484   9.396   0.251 -0.2562 -0.0506 -0.1971
 6867W        W10611   2.919   7.686  10.860 -0.0262 -0.2240  0.0571
 6868W        W10612   5.244   3.079   9.125 -0.3086  0.1253  0.3094
 6869W        W10613   8.753   2.384  10.970 -0.5741 -0.1376 -0.1127
 6870W        W10614   9.724   5.424  11.571 -0.0600 -0.0173 -0.1853
 6871W        W10615   8.521   3.062  12.210 -0.4247  0.1618 -0.1088
 6872W        W10616   7.113   5.643   1.226 -0.0878 -0.0716 -0.4462
 6873W        W10617   5.968   1.410  10.335 -0.1232  0.2140 -0.5244
 6874W        W10618   2.828   4.015  10.251 -0.5899 -0.4841 -0.2242
 6875W        W10619   3.816   3.901  12.038  0.0288  0.0736 -0.0762
 6876W        W10620   8.952   9.748   0.975 -0.3027 -0.0204  0.3422
 6877W        W10621   9.689   2.347   1.926  0.1589  0.1427  0.0154
 6878W        W10622   0.617   8.433   2.977 -0.1425  0.1459  0.0072
 6879W        W10623   6.342   2.117   4.292  0.1982 -0.2068  0.1875
 6880W        W10624   2.879   8.472   8.117  0.0642  0.0068 -0.1091
 6881W        W10625   5.314   7.717   2.870 -0.0521  0.0376 -0.2389
 6882W        W10626   2.015   8.502   1.575  0.3422 -0.1454 -0.1377
 6883W        W10627   5.286   8.213   9.544  0.3598 -0.1071  0.2714
 6884W        W10628   1.119   7.876   3.045  0.1593 -0.0016 -0.0369
 6885W        W10629   5.170   2.754   3.986  0.1461 -0.0625  0.2713
 6886W        W10630   7.549   6.411   2.560 -0.0139 -0.1396 -0.2553
 6887W        W10631   6.772   6.174   9.057 -0.1939 -0.2338  0.1207
 6888W        W10632   1.632   4.850   3.111 -0.0925  0.0572 -0.1923
 6889W        W10633   2.969   6.433  10.931  0.1501  0.0273 -0.0322
 6890W        W10634   1.606   3.075   2.396 -0.1211  0.0223  0.2802
 6891W        W10635   6.824   2.457  12.320  0.2952 -0.1226  0.2507
 6892W        W10636   0.928   6.697  11.898 -0.1952 -0.1821  0.2305
 6893W        W10637   8.349   8.303   3.042 -0.1269 -0.0826 -0.2727
 6894W        W10638   1.876   6.246  11.649  0.1108  0.0072  0.0959
 6895W        W10639   0.038   7.566  12.703 -0.1016  0.3921 -0.1664
 6896W        W10640   1.921   6.820  11.431 -0.0973 -0.3586 -0.0661
 6897W        W10641   5.899   0.737   9.609  0.1391  0.0829 -0.1853
 6898W        W10642   2.262   7.540   1.866  0.3301  0.2779  0.3369
 6899W        W10643   3.984   0.886   0.654  0.1621 -0.0229 -0.0805
 6900W        W10644   6.950   9.028   1.792  0.3312  0.1903 -0.1653
 6901W        W10645   1.969   1.518  11.773 -0.0554 -0.1203  0.0520
 6902W        W10646   7.549   0.586   9.006  0.1756  0.0327 -0.2855
 6903W        W10647   3.721   5.010   2.333 -0.3917  0.0300 -0.5121
 6904W        W10648   1.764   1.068  11.836  0.2105 -0.2079 -0.2882
 6905W        W10649   6.728   8.664   1.009 -0.0443 -0.1198 -0.1155
 6906W        W10650   3.247   1.118   9.343 -0.2268 -0.2212  0.1475
 6907W        W10651   7.494   0.510   8.488 -0.3030  0.0793  0.1698
 6908W        W10652   5.944   5.888   4.667  0.0134 -0.2079  0.0913
 6909W        W10653   0.424   9.689  10.261 -0.2854 -0.0154  0.0133
 6910W        W10654   2.279   0.401  10.872  0.1740 -0.3093  0.2785
 6911W        W10655   3.775   9.840   0.098  0.0161  0.0753  0.1251
 6912W        W10656   0.682   0.718   1.547  0.0741 -0.3449  0.2051
 6913W        W10657   4.152   9.644   9.936 -0.0504 -0.0177  0.1391
 6914W        W10658   0.926   3.895  10.034  0.0706 -0.0381  0.0350
 6915W        W10659   7.586   4.880  10.793  0.1487  0.1162 -0.0322
 6916W        W10660   5.710   0.042   0.024  0.2009 -0.2949  0.2508
 6917W        W10661   9.169   3.447  10.204  0.3177 -0.1601 -0.0678
 6918W        W10662   9.032   7.063   3.096 -0.1830 -0.0244 -0.1562
 6919W        W10663   0.740   4.352  10.065 -0.0451 -0.4459  0.0175
 6920W        W10664   3.750   5.912   4.338 -0.0352  0.0191  0.0851
 6921W        W10665   7.847   0.865   1.338 -0.0965  0.1969 -0.1972
 6922W        W10666   9.454   3.034  12.219 -0.0492  0.1171  0.0328
 6923W        W10667   6.498   2.430   1.797  0.0935  0.1279  0.1979
 6924W        W10668   2.689   6.799  11.195  0.0588  0.1406  0.0411
 6925W        W10669   2.034   5.706   2.718  0.2963 -0.1647  0.2909
 6926W        W10670   3.335   2.090   1.589  0.0108  0.2008  0.2125
 6927W        W10671   4.509   7.179   9.864  0.1745 -0.2630 -0.1607
 6928W        W10672   7.550   1.925  10.438 -0.1278  0.1542 -0.0173
 6929W        W10673   8.622   1.177   8.978 -0.3001  0.2693 -0.0525
 6930W        W10674   3.536   4.192   9.576  0.1760 -0.1863 -0.0491
 6931W        W10675   5.464   1.507  10.640  0.1922 -0.0045 -0.3326
 6932W        W10676   2.943   5.358   0.554  0.0289  0.0426 -0.1585
 6933W        W10677   4.220   9.050   3.403 -0.0305 -0.0325 -0.0257
 6934W        W10678   6.703   5.480   4.199 -0.0748 -0.1351  0.1022
 6935W        W10679   4.635   7.334   1.114 -0.0181 -0.3188 -0.0718
 6936W        W10680   5.880   4.023   0.469 -0.0143 -0.2400 -0.0892
 6937W        W10681   7.589   1.596   0.796 -0.3525  0.2738  0.1563
 6938W        W10682   7.327   6.937   1.885 -0.1074 -0.1275 -0.2341
 6939W        W10683   9.478   1.594   4.330 -0.1516 -0.1615  0.0669
 6940W        W10684   4.860   3.554   4.175 -0.1034  0.1550  0.4331
 6941W        W10685   7.106   7.476  11.007 -0.1870 -0.3917 -0.0259
 6942W        W10686   1.503   6.295   9.522  0.2198 -0.1091  0.0008
 6943W        W10687   8.068   8.178   3.484  0.1059  0.0253  0.2933
 6944W        W10688   7.224   3.165  10.050 -0.1346  0.1679 -0.2603
 6945W        W10689   8.797   6.941  11.209  0.1042 -0.0730  0.3684
 6946W        W10690   3.959   1.080   2.872 -0.0489 -0.0885 -0.3428
 6947W        W10691   4.689   8.453   1.611 -0.0599 -0.0367 -0.1350
 6948W        W10692   4.947   3.416  10.416 -0.0821 -0.2289  0.0173
 6949W        W10693   0.430   8.942  11.797 -0.0918 -0.0631  0.0913
 6950W        W10694   6.306   1.992   3.058 -0.3079 -0.1166  0.4002
 6951W        W10695   2.905   6.684   3.667  0.1158  0.1016  0.1736
 6952W        W10696   3.033   1.342   9.805  0.0086  0.2113  0.0046
 6953W        W10697   6.784   3.032   8.175 -0.0296  0.1732 -0.0829
 6954W        W10698   9.108   0.088  12.726  0.2736  0.1643  0.1718
 6955W        W10699   4.222   0.471   2.200  0.4122  0.1894  0.0999
 6956W        W10700   9.347   1.813  11.070 -0.3992 -0.1082 -0.0480
 6957W        W10701   8.300   6.262   3.064  0.1236  0.0144 -0.2756
 6958W        W10702   8.697   5.703  10.935  0.1143  0.1492  0.0003
 6959W        W10703   4.008   1.904   8.466 -0.0385 -0.2743  0.0891
 6960W        W10704   6.378   6.860   1.641 -0.0800  0.4816  0.0034
 6961W        W10705   8.429   5.692   0.806 -0.1362  0.3998 -0.4130
 6962W        W10706   0.393   8.343   9.260 -0.1710 -0.0474  0.3276
 6963W        W10707   4.274   7.310  11.593 -0.2365  0.0486  0.1980
 6964W        W10708   6.615   5.672   0.312 -0.1800  0.0579  0.0425
 6965W        W10709   6.322   6.557   3.541  0.2103  0.0564  0.0346
 6966W        W10710   6.311   4.274   0.665  0.0477  0.2045  0.1636
 6967W        W10711   9.949   7.535   0.792  0.2489  0.1646 -0.2553
 6968W        W10712   7.042   5.567   3.767 -0.3193  0.0449  0.0706
 6969W        W10713   7.801   5.458  12.511 -0.0898 -0.1590  0.1765
 6970W        W10714   6.403   7.070  10.561  0.1408  0.0230 -0.1967
 6971W        W10715   6.593   4.860   9.087  0.2980 -0.0013  0.0628
 6972W        W10716   0.534   4.188   2.294 -0.0640 -0.2785  0.0253
 6973W        W10717   6.866   8.442   2.949 -0.0056  0.0452 -0.3380
 6974W        W10718   3.959   9.312  10.453  0.1025 -0.2334  0.2242
 6975W        W10719   1.741   7.593  12.338  0.1032  0.1411 -0.1735
 6976W        W10720   8.808   3.647  10.464  0.0755  0.1793 -0.0838
 6977W        W10721   5.677   3.992  11.534 -0.3142  0.4279 -0.0708
 6978W        W10722   9.868   8.414   3.078  0.2484 -0.0229  0.2119
 6979W        W10723   9.217   0.431  10.437  0.0559 -0.3714 -0.2046
 6980W        W10724   8.656   4.665   3.171  0.0162 -0.0156 -0.1534
 6981W        W10725   6.053   2.475  10.229 -0.1989  0.1857 -0.4871
 6982W        W10726   0.576   0.078   9.860 -0.1084  0.1290  0.0505
 6983W        W10727   0.520   6.962   0.900  0.1404  0.0501  0.0908
 6984W        W10728   9.926   4.097   9.748  0.0513  0.0797  0.0288
 6985W        W10729   3.343   8.152  10.980  0.0476  0.0144 -0.2382
 6986W        W10730   5.361   4.808   0.421  0.0680  0.1722 -0.3949
 6987W        W10731   4.116   7.691   3.207 -0.5129  0.0225  0.0035
 6988W        W10732   2.031   9.787   2.029  0.4349  0.2916 -0.1282
 6989W        W10733   6.475   8.969  11.555  0.1202  0.3081 -0.3702
 6990W        W10734   1.560   9.730   1.222 -0.2844 -0.0045 -0.0388
 6991W        W10735   8.185   4.082  11.638 -0.1893 -0.2070  0.2422
 6992W        W10736   5.784   0.047   4.565  0.0209 -0.3510 -0.1072
 6993W        W10737   4.367   4.953   1.486  0.0752  0.1649 -0.0025
 6994W        W10738   9.016   4.505   4.115 -0.1961  0.1439 -0.3418
 6995W        W10739   8.939   3.568  11.189  0.0336 -0.1779  0.1384
 6996W        W10740   5.920   4.569   1.441  0.3670  0.0911  0.0165
 6997W        W10741   0.535   2.076  11.899  0.1088 -0.2234 -0.0336
 6998W        W10742   7.933   5.023   9.759 -0.0110  0.0553  0.0457
 6999W        W10743   4.314   7.986   4.034  0.0382 -0.1018  0.0384
 7000W        W10744   6.134   6.871   3.938 -0.3391 -0.4351  0.2963
 7001W        W10745   7.486   9.413  10.680  0.0980 -0.1905 -0.0658
 7002W        W10746   0.291   8.109   1.487 -0.0503  0.2772 -0.0187
 7003W        W10747   2.456   9.085   2.988  0.2340  0.0183 -0.0557
 7004W        W10748   1.378   7.458   3.278  0.0014 -0.4309  0.0868
 7005W        W10749   8.763   0.799   2.378 -0.0063  0.0001 -0.0149
 7006W        W10750   4.657   3.543   1.418  0.1529  0.1738 -0.0688
 7007W        W10751   7.594   3.930   9.567 -0.3171  0.0597  0.3220
 7008W        W10752   4.095   1.680  10.008 -0.2475  0.0136  0.3285
 7009W        W10753   4.993   4.465   4.911  0.3125 -0.2788 -0.1047
 7010W        W10754   0.726   1.699   9.693  0.1840 -0.2376  0.2284
 7011W        W10755   2.329   2.603   1.157 -0.1203 -0.1669 -0.1691
 7012W        W10756   9.002   5.123   0.064 -0.1823  0.2787 -0.0043
 7013W        W10757   0.225   1.505  11.093  0.3310 -0.0845 -0.0332
 7014W        W10758   1.302   6.023  10.429 -0.0355 -0.0096 -0.2479
 7015W        W10759   3.632   7.954   3.882  0.1643 -0.1729  0.3236
 7016W        W10760   7.396   9.828   1.223 -0.4412 -0.2937  0.0519
 7017W        W10761   4.116   0.013   9.589  0.1537  0.0606  0.0433
 7018W        W10762   7.586   2.452   3.167  0.0325 -0.0383  0.1472
 7019W        W10763   8.334   9.507   3.029  0.2138 -0.2680 -0.1190
 7020W        W10764   2.308   2.480  10.402 -0.1092  0.1830  0.2896
 7021W        W10765   7.085   2.902   1.965 -0.4551 -0.0443 -0.1892
 7022W        W10766   5.222   7.427   4.082  0.1412  0.1291  0.0516
 7023W        W10767   3.034   3.394   2.024 -0.0554 -0.0855  0.1146
 7024W        W10768   5.296   9.263   3.145 -0.3198  0.1176  0.2614
 7025W        W10769   4.646   4.282  10.678  0.0544 -0.1378 -0.1535
 7026W        W10770   9.511   4.476   0.570 -0.0680  0.2019 -0.1818
 7027W        W10771   7.477   1.119   0.715 -0.2917  0.0695  0.2811
 7028W        W10772   4.845   8.320  11.011  0.0252 -0.2536 -0.3351
 7029W        W10773   3.834   3.360   0.961 -0.0050 -0.1245 -0.0032
 7030W        W10774   9.658   7.405   8.405 -0.3002  0.3432 -0.0810
 7031W        W10775   9.615   6.171   2.915  0.1393  0.0958  0.0272
 7032W        W10776   1.399   6.770  11.136  0.2139  0.1071 -0.4443
 7033W        W10777   2.188   1.177   3.851  0.1083  0.2835  0.0529
 7034W        W10778   1.003   4.199  11.935  0.2745 -0.1365 -0.2357
 7035W        W10779   5.338   4.277  11.132 -0.2053 -0.1533  0.0176
 7036W        W10780   5.987   2.408   9.388  0.3099 -0.3882 -0.1967
 7037W        W10781   8.331   0.779   0.297 -0.2194  0.0989 -0.2229
 7038W        W10782   5.160   9.231   1.981 -0.1199 -0.0112 -0.1742
 7039W        W10783   4.481   4.198   4.365  0.1319  0.0459 -0.0872
 7040W        W10784   4.494   6.465  12.075 -0.1153 -0.0788  0.0502
 7041W        W10785   2.910   9.014   0.792 -0.3650  0.3137  0.0798
 7042W        W10786   0.404   4.921  11.756 -0.1308 -0.2202  0.2353
 7043W        W10787   3.550   1.374   2.751  0.0803  0.0346  0.1482
 7044W        W10788   1.047   2.601   3.885  0.1188 -0.0255  0.2943
 7045W        W10789   5.508   7.174   2.724 -0.1543  0.0340  0.0540
 7046W        W10790   1.926   6.207   2.608  0.1946 -0.1678 -0.3217
 7047W        W10791   8.942   0.426   2.679 -0.0674  0.0011 -0.2150
 7048W        W10792   2.009   6.342   0.593  0.1033 -0.1928  0.1185
 7049W        W10793   2.035   2.982   1.147  0.0730 -0.1332 -0.3425
 7050W        W10794   3.507   1.883   2.845  0.0336 -0.3039 -0.0462
 7051W        W10795   2.276   4.827  10.752  0.0064 -0.1649  0.1232
 7052W        W10796   0.254   1.776   2.976 -0.0809  0.1218  0.3661
 7053W        W10797   9.238   9.659   0.587 -0.2449  0.3923  0.1437
 7054W        W10798   5.225   7.723   9.517 -0.0553 -0.1208 -0.0262
 7055W        W10799   2.242   3.527  10.876  0.0825  0.3384  0.1247
 7056W        W10800   2.253   9.769   9.029 -0.0640  0.4896  0.0777
 7057W        W10801   3.647   2.319  10.818  0.0171 -0.0201 -0.1213
 7058W        W10802   2.056   9.604   0.180 -0.2450  0.0430  0.0372
 7059W        W10803   8.772   3.423   0.244  0.2240 -0.5047 -0.0959
 7060W        W10804   5.469   2.392  11.859  0.3436  0.1459  0.0375
 7061W        W10805   6.049   7.876   1.877  0.0534 -0.0213  0.2064
 7062W        W10806   3.530   5.270   9.385  0.1583 -0.0728  0.3837
 7063W        W10807   1.755   1.576   0.121 -0.0447 -0.1416 -0.0768
 7064W        W10808   7.779   5.067  11.797 -0.2319 -0.0856 -0.1669
 7065W        W10809   3.294   7.740   2.195  0.0028 -0.0789  0.1886
 7066W        W10810   7.472   0.917   0.231  0.0780  0.0371 -0.1883
 7067W        W10811   7.524   5.156   1.962  0.5983  0.2315 -0.0387
 7068W        W10812   5.602   0.096   3.534 -0.1535  0.0494 -0.0795
 7069W        W10813   9.941   1.457  11.692  0.3492  0.2510  0.1615
 7070W        W10814   1.693   6.176  12.210  0.0265  0.0231  0.1746
 7071W        W10815   2.662   1.686   9.899  0.0291 -0.3286 -0.3561
 7072W        W10816   9.182   8.188   3.597  0.1140 -0.2770 -0.1119
 7073W        W10817   9.394   9.801  12.405  0.0719  0.0456 -0.0312
 7074W        W10818   0.557   2.787   3.940 -0.2056  0.5083 -0.0871
 7075W        W10819   2.368   2.760   4.591  0.0900 -0.0914 -0.0362
 7076W        W10820   8.113   0.338   0.596 -0.4056 -0.2082  0.0802
 7077W        W10821   9.049   7.253   3.687  0.0193 -0.0668  0.0476
 7078W        W10822   1.307   3.914   0.920 -0.0763 -0.0878 -0.2126
 7079W        W10823   7.628   0.260  11.023  0.1452 -0.1126 -0.0266
 7080W        W10824   5.653   9.274   1.735 -0.0572  0.0208  0.0910
 7081W        W10825   0.565   7.992   2.302  0.0364 -0.4243  0.2665
 7082W        W10826   1.883   0.044  11.012  0.1888  0.1136 -0.5443
 7083W        W10827   4.705   9.399   1.313  0.0509 -0.1087  0.1728
 7084W        W10828   2.246   9.053   1.537 -0.1690  0.1650  0.3138
 7085W        W10829   1.847   1.464   3.551 -0.1058  0.0676  0.2633
 7086W        W10830   6.772   7.391   0.559  0.1043  0.0928  0.2704
 7087W        W10831   4.946   4.245   2.121  0.1226  0.2957 -0.2920
 7088W        W10832   3.297   3.099   0.986  0.0705  0.0347 -0.2178
 7089W        W10833   9.786   1.772   3.289  0.1387 -0.0813  0.0671
 7090W        W10834   5.316   1.391   9.071 -0.1872 -0.1499  0.0398
 7091W        W10835   5.449   0.941   0.261 -0.0258 -0.0998  0.1876
 7092W        W10836   0.237   1.609   1.490  0.1392 -0.1960  0.1446
 7093W        W10837   7.798   0.513  11.572  0.2615  0.0827  0.2602
 7094W        W10838   0.191   4.759  12.259 -0.4395  0.0739  0.0506
 7095W        W10839   6.152   4.334  11.009  0.1626  0.1441  0.0186
 7096W        W10840   6.113   4.859   2.693  0.3730 -0.0641  0.3280
 7097W        W10841   9.593   5.717   4.618  0.1750 -0.2175  0.1193
 7098W        W10842   8.499   5.494   3.643 -0.0536  0.2417 -0.4636
 7099W        W10843   9.863   9.433  11.238  0.1229 -0.0320 -0.0127
 7100W        W10844   5.890   4.574   3.201 -0.1558 -0.1353 -0.1051
 7101W        W10845   8.219   0.160   9.517 -0.3406 -0.2050  0.1327
 7102W        W10846   4.708   5.892   9.769  0.0467  0.1872  0.0624
 7103W        W10847   3.197   9.389   3.588 -0.1509 -0.0827  0.0045
 7104W        W10848   0.732   8.474   0.398 -0.1642  0.0081  0.0410
 7105W        W10849   5.238   2.161   0.114 -0.1241  0.0367 -0.1719
 7106W        W10850   6.709   1.759  11.934  0.2157 -0.1534  0.3333
 7107W        W10851   9.755   0.604   0.041 -0.1270  0.0749 -0.2576
 7108W        W10852   5.113   6.627  10.059  0.1062  0.3208  0.1218
 7109W        W10853   7.250   3.960   4.068  0.1242 -0.1142  0.0906
 7110W        W10854   4.121   4.690   3.797 -0.2067  0.0764  0.0334
 7111W        W10855   0.958   1.112   1.335 -0.2908  0.0551 -0.2125
 7112W        W10856   0.551   7.158   4.150  0.0043  0.0030  0.0381
 7113W        W10857   3.765   8.501   1.311 -0.0217 -0.1093 -0.0681
 7114W        W10858   9.543   6.909   1.521 -0.0536  0.1904  0.0996
 7115W        W10859   2.891   2.030   1.307 -0.2495 -0.3538  0.0544
 7116W        W10860   4.591   7.239   2.484 -0.0036 -0.2453  0.3062
 7117W        W10861   5.585   1.427   0.562  0.1488  0.2956  0.0881
 7118W        W10862   1.530   4.905   0.177  0.1478 -0.3810  0.1879
 7119W        W10863   7.713   1.471   4.352  0.2201 -0.1886  0.0825
 7120W        W10864   1.484   9.372   2.473 -0.0029 -0.2621  0.1773
 7121W        W10865   4.764   2.772   4.917  0.0066 -0.0381 -0.0313
 7122W        W10866   0.937   8.905   0.434 -0.1470  0.1099 -0.0777
 7123W        W10867   6.608   8.788   9.311 -0.2127 -0.0671  0.1018
 7124W        W10868   3.959   2.439   1.029  0.2295  0.0143  0.1692
 7125W        W10869   9.466   7.560   4.179  0.0804  0.5564  0.0322
 7126W        W10870   7.140   2.393  10.370 -0.2711  0.1606  0.1529
 7127W        W10871   1.955   5.847   2.235  0.0673 -0.1371 -0.1253
 7128W        W10872   3.144   2.948  10.439 -0.1632 -0.1659 -0.0465
 7129W        W10873   6.665   8.688   3.766  0.0407  0.0050  0.0365
 7130W        W10874   1.616   8.691   1.020 -0.1449 -0.1473 -0.2874
 7131W        W10875   7.433   4.844   2.734  0.1173 -0.0105  0.1138
 7132W        W10876   6.175   1.906   3.816  0.1770 -0.1161  0.0072
 7133W        W10877   5.655   3.457  10.062 -0.2052  0.2422 -0.1450
 7134W        W10878   5.767   6.305  10.562  0.3270 -0.0533 -0.0250
 7135W        W10879   4.731   1.275  10.761  0.0343  0.2890  0.1138
 7136W        W10880   9.526   1.971   4.747  0.1455  0.0993  0.0509
 7137W        W10881   8.811   0.922   0.099  0.0873  0.2067 -0.1790
 7138W        W10882   6.530   9.428   2.410 -0.0317  0.1909  0.1101
 7139W        W10883   0.863   6.757   2.431  0.3683 -0.0043  0.0716
 7140W        W10884   0.099   0.473  10.456 -0.0209  0.1886  0.2291
 7141W        W10885   2.350   3.115  10.609  0.0475  0.3698 -0.1402
 7142W        W10886   9.863   0.540   9.766  0.0058  0.0986  0.2592
 7143W        W10887   4.329   8.790   1.787 -0.0639  0.2062  0.0460
 7144W        W10888   3.053   8.493  12.127 -0.0216  0.0149  0.1896
 7145W        W10889   5.270   6.412   1.891  0.2120 -0.0546  0.0771
 7146W        W10890   5.989   1.829   3.390  0.0990 -0.1841  0.1170
 7147W        W10891   5.701   8.619   3.590  0.2970  0.0871  0.3504
 7148W        W10892   0.362   7.246   2.138 -0.1581  0.1913  0.0922
 7149W        W10893   8.825   4.725  11.565  0.0949 -0.2159 -0.3040
 7150W        W10894   9.005   2.303   3.136  0.0456  0.0686  0.1207
 7151W        W10895   8.228   4.247   0.437 -0.4532  0.0493 -0.1413
 7152W        W10896   5.847   7.065   4.309  0.0313 -0.0385  0.0894
 7153W        W10897   4.603   9.960   1.113 -0.1966  0.0684 -0.2231
 7154W        W10898   5.530   0.384   2.568 -0.0039 -0.1968  0.2139
 7155W        W10899   8.254   2.899   0.876 -0.3761  0.0573  0.1191
 7156W        W10900   2.865   4.775   3.444 -0.1988  0.2900 -0.0378
 7157W        W10901   6.892   9.212   4.450 -0.0383 -0.3288 -0.1254
 7158W        W10902   9.693   8.592  11.224 -0.0446  0.2593  0.0734
 7159W        W10903   7.394   0.413   2.918 -0.0130 -0.0229  0.0639
 7160W        W10904   0.152   3.072  12.389  0.2788  0.1368 -0.1462
 7161W        W10905   5.562   9.100   4.121 -0.0258 -0.1150  0.3212
 7162W        W10906   6.216   5.921   0.683 -0.3506 -0.2087 -0.2973
 7163W        W10907   1.074   4.535   9.757 -0.1269 -0.2896 -0.0702
 7164W        W10908   6.029   3.699  10.242 -0.1010  0.2416  0.2348
 7165W        W10909   5.273   0.021  11.943 -0.2830  0.2474  0.0469
 7166W        W10910   7.563   5.437   2.840 -0.2638  0.1545 -0.1075
 7167W        W10911   5.748   8.038  11.195  0.0450  0.3630 -0.0359
 7168W        W10912   0.775   0.701   8.638 -0.0170 -0.1384 -0.0125
 7169W        W10913   4.244   0.775  11.454 -0.0428  0.1072 -0.0652
 7170W        W10914   5.370   0.842   8.688  0.0907 -0.1144  0.2886
 7171W        W10915   2.104   4.180  12.750  0.1193  0.0191  0.0178
 7172W        W10916   4.604   1.029  12.633 -0.0363  0.2127 -0.3941
 7173W        W10917   6.026   6.641  12.097  0.1009 -0.0650  0.1581
 7174W        W10918   9.149   6.529   8.707 -0.0881  0.3315 -0.1889
 7175W        W10919   8.276   5.608   0.334  0.1545 -0.0561  0.0599
 7176W        W10920   4.866   0.090   9.602 -0.2126 -0.0783  0.3013
 7177W        W10921   0.924   9.678  11.658 -0.1962  0.1077  0.0353
 7178W        W10922   7.963   2.833  10.535 -0.1557 -0.0294 -0.1402
 7179W        W10923   7.091   7.244  11.662 -0.1675 -0.0152  0.0874
 7180W        W10924   3.488   3.136  12.136 -0.0128  0.4331 -0.1074
 7181W        W10925   6.870   6.631  10.546  0.0274 -0.2709  0.0531
 7182W        W10926   4.842   0.080   3.221 -0.0179  0.0908  0.3275
 7183W        W10927   0.871   5.715   0.927  0.0139  0.1240  0.0557
 7184W        W10928   9.035   2.924  10.912 -0.1612  0.1507 -0.1611
 7185W        W10929   6.203   3.492  11.985  0.0428  0.0427  0.0433
 7186W        W10930   0.209   5.244  11.395  0.0515 -0.2312 -0.0616
 7187W        W10931   2.902   5.512   1.102  0.1185 -0.2850  0.0259
 7188W        W10932   6.957   1.770   8.616  0.2201  0.0407  0.1175
 7189W        W10933   5.290   4.132   5.304  0.1663 -0.1076 -0.1134
 7190W        W10934   2.527   3.773  11.605  0.1563  0.0416 -0.0654
 7191W        W10935   2.598   5.156   0.939 -0.3614 -0.0562  0.0479
 7192W        W10936   4.038   6.237   3.374  0.1687 -0.1098  0.4102
 7193W        W10937   2.558   3.843   2.322 -0.0752 -0.0039  0.1257
 7194W        W10938   6.068   0.327  11.981  0.1451  0.2122  0.2724
 7195W        W10939   0.446   0.192   3.717  0.0733  0.2303 -0.3393
 7196W        W10940   8.184   8.358   1.346  0.1568 -0.3558 -0.1346
 7197W        W10941   0.945   7.406   0.966 -0.0480  0.3344 -0.2584
 7198W        W10942   4.787   3.013   0.563 -0.0130 -0.0397 -0.1839
 7199W        W10943   3.103   6.715  10.496  0.0552  0.2644  0.0704
 7200W        W10944   6.151   1.432   3.631  0.0405  0.1286 -0.4375
 7201W        W10945   1.530   7.117   2.769  0.1854  0.1849 -0.1147
 7202W        W10946   8.480   2.860  10.895  0.1431 -0.0185 -0.5048
 7203W        W10947   2.172   4.647   0.696  0.1829  0.0111  0.2865
 7204W        W10948   8.727   2.314  12.238 -0.0896  0.4635 -0.0489
 7205W        W10949   3.735   5.466   2.631 -0.0935 -0.2550 -0.3765
 7206W        W10950   1.526   9.685   2.077 -0.0573  0.0858  0.0157
 7207W        W10951   3.662   9.919   1.511  0.3304  0.0805 -0.2137
 7208W        W10952   4.799   1.408  11.824 -0.2951 -0.0104 -0.0885
 7209W        W10953   8.614   6.207   9.392 -0.1117 -0.0536 -0.0358
 7210W        W10954   4.605   1.959  10.175  0.2101 -0.1371  0.2154
 7211W        W10955   4.701   2.367  11.937 -0.2729  0.3412  0.1834
 7212W        W10956   5.974   2.964   8.134  0.3030  0.3125  0.0635
 7213W        W10957   3.239   2.189   0.806  0.2677 -0.0369  0.0203
 7214W        W10958   0.405   7.335  10.264 -0.1084  0.0078 -0.2651
 7215W        W10959   8.121   7.426  10.038 -0.3220 -0.1965  0.2339
 7216W        W10960   5.482   6.722  10.338 -0.1324  0.0709  0.1296
 7217W        W10961   4.018   6.582  10.835 -0.0065 -0.2352  0.1074
 7218W        W10962   1.130   3.274  10.198  0.0480 -0.0609 -0.1853
 7219W        W10963   8.321   9.028  10.590 -0.2703  0.1001 -0.1070
 7220W        W10964   0.792   7.894  10.377 -0.1377  0.3990 -0.3856
 7221W        W10965   2.543   8.696  12.023  0.0973 -0.1152  0.2992
 7222W        W10966   2.018   9.863   3.860 -0.2706 -0.2557  0.3195
 7223W        W10967   0.162   9.882   0.060  0.1507 -0.3150  0.1270
 7224W        W10968   8.053   0.980   1.779  0.1969  0.2267 -0.0839
 7225W        W10969   9.195   8.681  10.923 -0.1699  0.1283 -0.2226
 7226W        W10970   2.528   2.296  11.601  0.0659 -0.2943 -0.2827
 7227W        W10971   7.072   2.709  10.964  0.2505 -0.0080 -0.0695
 7228W        W10972   6.732   3.939   3.001  0.1242 -0.1925 -0.0170
 7229W        W10973   6.486   1.112  10.903 -0.0209 -0.1487  0.0480
 7230ION    NA+10974   6.897   5.840  10.876 -0.2646  0.2128  0.1078
 7231ION    NA+10975   6.040   3.929  11.209  0.0201 -0.2406  0.0795
 7232ION    NA+10976   5.454   4.399   1.420 -0.2364 -0.1121 -0.1207
 7233ION    NA+10977   5.200   3.425   0.651 -0.1571  0.1059  0.2208
 7234ION    NA+10978   1.494   2.644   9.196  0.1769  0.2603 -0.2350
 7235ION    NA+10979   9.681   1.277   4.812  0.1046  0.3336  0.2551
 7236ION    NA+10980   7.123   6.473   4.319 -0.2823 -0.0822 -0.1717
 7237ION    NA+10981   3.245   9.586   1.482  0.2872 -0.3428 -0.2351
 7238ION    NA+10982   8.780   0.063   8.804  0.2666  0.3754  0.1263
 7239ION    NA+10983   1.794   7.841   9.948 -0.0790 -0.0328  0.0654
 7240ION    NA+10984   4.678   1.273   0.841 -0.1076 -0.2505  0.1542
 7241ION    NA+10985   9.413   9.961   1.070  0.0179 -0.1468 -0.0537
 7242ION    NA+10986   0.411   4.944   1.830  0.0984  0.2555 -0.2114
 7243ION    NA+10987   5.688   1.819  12.229  0.2879  0.2014  0.0088
 7244ION    NA+10988   6.056   1.633   1.009  0.0504  0.1988  0.1950
 7245ION    NA+10989   0.993   6.958  12.745 -0.0441 -0.1298 -0.1102
 7246ION    NA+10990   7.901   3.238   2.374  0.1281 -0.1172  0.0188
 7247ION    NA+10991   4.289   7.545   9.505  0.0874  0.2406 -0.0100
 7248ION    NA+10992   6.530   4.624   9.953 -0.2046  0.0406 -0.0088
 7249ION    NA+10993   8.766   4.164  10.443  0.3675  0.0427  0.1173
 7250ION    NA+10994   3.380   1.045  10.036 -0.1602 -0.0396  0.0150
 7251ION    NA+10995   1.800   2.454   1.325  0.1464 -0.0410  0.3760
 7252ION    NA+10996   9.254   5.814   2.630  0.1660 -0.0252  0.1400
 7253ION    NA+10997   5.427   7.316   0.745 -0.0275 -0.1373  0.0042
 7254ION    NA+10998   2.928   9.176  10.774 -0.2765  0.2140  0.0430
 7255ION    NA+10999   4.491   4.750  10.848 -0.2549  0.1284 -0.1651
 7256ION    NA+11000   1.796   3.317  10.341  0.1186 -0.5066 -0.1182
 7257ION    NA+11001   5.800   1.421   9.257 -0.1700 -0.0120  0.1383
 7258ION    NA+11002   5.872   7.102   3.072  0.0657 -0.0551 -0.1672
 7259ION    NA+11003   8.017   2.132   2.651  0.0237 -0.2991  0.0300
 7260ION    NA+11004   1.688   4.548   9.681 -0.2938 -0.0397  0.5345
 7261ION    NA+11005   2.802   5.648   3.164 -0.1974 -0.2267  0.2265
 7262ION    NA+11006   9.656   4.549  12.008  0.0371 -0.0465 -0.1590
 7263ION    NA+11007   3.764   1.130   1.614 -0.0215  0.0609 -0.0815
 7264ION    NA+11008   9.590   8.621   9.691 -0.2358  0.0513 -0.0887
 7265ION    NA+11009   2.386   7.704   8.567  0.1682  0.3051 -0.2028
 7266ION    NA+11010   5.844   5.028  10.562 -0.3855 -0.0658  0.0475
 7267ION    NA+11011   9.896   6.717  11.488  0.1268  0.0000 -0.2080
 7268ION    NA+11012   0.103   9.265   1.961 -0.1823  0.0762 -0.0382
 7269ION    NA+11013   4.613   2.087   4.280 -0.0419  0.1087 -0.1321
 7270ION    NA+11014   4.545   8.229   4.422  0.3041  0.2359  0.0459
 7271ION    NA+11015   6.063   5.860  11.410  0.0572 -0.0468  0.3325
 7272ION    NA+11016   5.144   2.982  12.515  0.1930 -0.0673 -0.0568
 7273ION    NA+11017   6.662   6.108   0.959  0.2388  0.1566 -0.0344
 7274ION    NA+11018   2.550   0.257   0.739  0.2452  0.1525  0.0709
 7275ION    NA+11019   2.382   1.290   8.116  0.0190  0.4159  0.0410
 7276ION    NA+11020   4.999   4.548   1.251  0.0542 -0.1834  0.0365
 7277ION    NA+11021   3.804   7.773  10.239 -0.1821 -0.1125  0.2545
 7278ION    NA+11022   6.789   3.746  11.408  0.0973  0.0616  0.1320
 7279ION    NA+11023   4.557   1.700  12.229 -0.0609 -0.0043 -0.0735
 7280ION    NA+11024   3.493   6.557  10.810 -0.2400 -0.1334  0.0164
 7281ION    NA+11025   3.203   4.884   0.014  0.2138 -0.0573 -0.2724
 7282ION    NA+11026   9.270   7.238   8.167 -0.2404 -0.0190  0.1592
 7283ION    NA+11027   4.857   4.598   4.408  0.1516 -0.0181 -0.1387
 7284ION    NA+11028   2.299   0.637   2.565 -0.0163  0.2428  0.0865
 7285ION    NA+11029   5.409   8.459   9.992 -0.0056 -0.0262  0.0546
 7286ION    NA+11030   8.166   1.633   0.942 -0.4655 -0.2705  0.0318
 7287ION    NA+11031   2.391   9.834  11.132 -0.4411  0.0322 -0.1301
 7288ION    NA+11032   4.838   8.665   2.044 -0.0685  0.0379 -0.0824
 7289ION    NA+11033   7.214   6.519   2.149  0.1562 -0.1800 -0.2048
 7290ION    NA+11034   7.697   2.426   8.322 -0.1070 -0.2748  0.0841
 7291ION    NA+11035   5.185   8.819   3.372 -0.1745  0.2753 -0.3783
 7292ION    NA+11036   7.934   8.517  12.475 -0.2427  0.0622 -0.2689
 7293ION    NA+11037   8.494   6.144   1.520  0.1410  0.2196  0.0181
 7294ION    NA+11038   0.488   9.225   2.872 -0.0606 -0.1254 -0.3581
 7295ION    NA+11039   1.092   3.316   0.341 -0.0152 -0.1112  0.0317
 7296ION    NA+11040   3.416   0.743   2.037  0.1332  0.1373  0.1765
 7297ION    NA+11041   3.740   0.608   3.980 -0.3122 -0.4272 -0.0615
 7298ION    NA+11042   8.177   4.043   4.865  0.0520  0.1666 -0.1487
 7299ION    NA+11043   2.721   3.974   0.003 -0.0858 -0.1980  0.2165
 7300ION    NA+11044   9.954   0.895   3.810 -0.2049  0.1260 -0.1072
 7301ION    NA+11045   2.000   4.273  11.768  0.1801 -0.1066 -0.1854
 7302ION    NA+11046   8.160   1.887   4.983 -0.1690 -0.3523 -0.1355
 7303ION    NA+11047   0.009   0.612  12.332 -0.0855  0.0232  0.0011
 7304ION    NA+11048   2.334   4.294   3.265 -0.2057  0.2381 -0.1904
 7305ION    NA+11049   0.536   2.841  11.967 -0.0901  0.1978 -0.1545
 7306ION    CL-11050   4.945   5.306   3.983  0.1365  0.1878 -0.0599
 7307ION    CL-11051   3.727   9.392   1.616 -0.3222 -0.0629 -0.1144
 7308ION    CL-11052   3.655   7.048  11.000  0.1765 -0.1095  0.0636
 7309ION    CL-11053   0.426   6.793  11.578  0.3424  0.1200  0.0078
 7310ION    CL-11054   9.640   8.131   9.511 -0.3255  0.2070  0.1288
 7311ION    CL-11055   9.733   6.932   9.428  0.2213 -0.2139 -0.1966
 7312ION    CL-11056   6.310   4.249  10.177  0.0440  0.1725  0.1162
 7313ION    CL-11057   7.125   4.101   9.514 -0.0458 -0.0792  0.1041
 7314ION    CL-11058   1.308   2.680   1.464 -0.3182  0.0706 -0.4030
 7315ION    CL-11059   9.608   3.588   3.074  0.0204  0.1808 -0.0856
 7316ION    CL-11060   5.234   3.091   0.274 -0.1995  0.2160 -0.3637
 7317ION    CL-11061   6.668   5.001   9.622  0.2359 -0.0365 -0.1444
 7318ION    CL-11062   2.946   4.495   0.227  0.0848  0.2586  0.2585
 7319ION    CL-11063   9.379   8.096   0.117 -0.2130  0.0998  0.3688
 7320ION    CL-11064   7.509   1.431   8.701 -0.0569 -0.2224  0.3599
 7321ION    CL-11065   6.580   0.178   3.009 -0.1319 -0.4827  0.1216
 7322ION    CL-11066   8.747   0.211   1.246  0.0771  0.3185  0.0902
 7323ION    CL-11067   9.698   9.582   1.867  0.0925  0.1290 -0.0405
 7324ION    CL-11068   0.357   9.171   2.386  0.1909  0.0340 -0.1096
 7325ION    CL-11069   7.303   6.446   1.681  0.1403 -0.0536  0.0359
 7326ION    CL-11070   1.670   8.217   9.577  0.3408 -0.1247  0.0496
 7327ION    CL-11071   3.088   0.910   0.786 -0.1590  0.1909 -0.1290
 7328ION    CL-11072   5.241   8.349   3.680  0.1613 -0.0158  0.1415
 7329ION    CL-11073   4.335   1.256  12.184 -0.1121  0.3144 -0.2853
 7330ION    CL-11074   2.118   0.701   9.970 -0.1530  0.4416 -0.1584
 7331ION    CL-11075   1.004   4.184  10.412 -0.2327 -0.1669 -0.1319
 7332ION    CL-11076   7.745   1.511   1.289  0.3001 -0.0945  0.1689
 7333ION    CL-11077   8.125   1.982   2.186 -0.0795  0.1467  0.0593
 7334ION    CL-11078   6.657   6.520   1.325 -0.1395  0.2860  0.0840
 7335ION    CL-11079   3.590   4.375  10.100  0.2265 -0.2450 -0.0527
 7336ION    CL-11080   5.953   1.237  10.881 -0.2525  0.0400 -0.3655
 7337ION    CL-11081   0.407   9.581   3.735 -0.0769  0.1920  0.0118
 7338ION    CL-11082   4.877   1.129   3.769 -0.0710  0.1610  0.2797
 7339ION    CL-11083   0.432   0.325  12.041  0.1796 -0.1982  0.0673
 7340ION    CL-11084   5.917   1.208   4.043  0.0430 -0.2075 -0.4933
 7341ION    CL-11085   4.927   2.860   1.196 -0.0478 -0.0069 -0.0361
 7342ION    CL-11086   4.241   1.770   3.903 -0.1725 -0.0323 -0.0383
 7343ION    CL-11087   6.686   5.647  10.474 -0.1748 -0.1962 -0.0664
 7344ION    CL-11088   7.756   2.584   2.712  0.2615  0.0705 -0.4157
 7345ION    CL-11089   6.781   6.587   3.849  0.3229  0.1862 -0.3050
 7346ION    CL-11090   2.850   0.839   2.461 -0.0131 -0.0857 -0.2245
 7347ION    CL-11091   5.053   4.219   1.596  0.3241  0.0482 -0.1198
 7348ION    CL-11092   0.257   3.128  11.690  0.3114 -0.0560  0.2719
 7349ION    CL-11093   4.343   7.866   9.886 -0.0889 -0.3085  0.1982
 7350ION    CL-11094   2.573   0.096   4.020 -0.1147 -0.0314 -0.0804
 7351ION    CL-11095   5.317   8.030  10.303 -0.5231 -0.1208  0.0330
 7352ION    CL-11096   0.635   5.321   1.573 -0.0634  0.0419  0.0635
 7353ION    CL-11097   3.212   1.093   1.772  0.1178 -0.0299  0.0007
 7354ION    CL-11098   2.523   2.515  12.448 -0.3022  0.1134 -0.0315
 7355ION    CL-11099   7.692   8.105   3.147  0.0396 -0.3369  0.1712
 7356ION    CL-11100   2.422   0.268   1.199 -0.0814 -0.0068  0.2081
 7357ION    CL-11101   4.252   1.096   1.518  0.0818  0.0179 -0.1854
 7358ION    CL-11102   5.288   1.319   9.578 -0.0483  0.3190  0.2369
 7359ION    CL-11103   9.321   6.563   3.113 -0.0600  0.1874  0.0102
 7360ION    CL-11104   1.611   3.303   9.893  0.0501 -0.1735 -0.0431
 7361ION    CL-11105   0.125   1.457  10.329  0.0310  0.0785 -0.0502
 7362ION    CL-11106   6.133   5.396  11.183  0.0946  0.0218  0.1637
 7363ION    CL-11107   1.585   5.852  11.806 -0.0111 -0.0055  0.0034
 7364ION    CL-11108   3.145   6.022   3.134 -0.1316  0.1029 -0.0979
 7365ION    CL-11109   2.790   3.490   4.177 -0.0393  0.2204 -0.0828
 7366ION    CL-11110   8.329   1.661   0.421  0.1208 -0.1530 -0.0258
 7367ION    CL-11111   5.604   6.115  11.422 -0.1693 -0.2012 -0.1770
 7368ION    CL-11112   4.444   4.539   0.603  0.0067 -0.0833 -0.1212
 7369ION    CL-11113   8.097   4.037   9.577 -0.2033 -0.0942 -0.1943
 7370ION    CL-11114   6.629   4.606   0.455 -0.4563  0.0706 -0.2264
 7371ION    CL-11115   4.712   2.867  12.379 -0.0076 -0.0016 -0.2117
 7372ION    CL-11116   2.537   9.379  10.959 -0.1328 -0.0869 -0.0142
 7373ION    CL-11117   5.732   1.330   1.389 -0.0986 -0.2394  0.2471
 7374ION    CL-11118   2.163   6.963   3.061  0.3981 -0.1170 -0.3404
 7375ION    CL-11119   0.387   4.412   1.843 -0.0023 -0.1710 -0.2083
 7376ION    CL-11120   7.298   3.516   4.822 -0.3311  0.0830 -0.0486
 7377ION    CL-11121   1.869   0.397   2.637 -0.2543 -0.0891  0.2441
 7378ION    CL-11122   9.015   3.904  10.820  0.2600 -0.0585 -0.1131
 7379ION    CL-11123   3.392   6.579  10.122  0.2990 -0.1611  0.2446
 7380ION    CL-11124   8.791   5.790   1.703  0.1300 -0.0332 -0.1466
 7381ION    CL-11125   7.713   9.491  10.052  0.0782 -0.2508  0.0117
   9.96344   9.96344  12.77949
