Protein in INSANE! Membrane UpperLeaflet>POPC=1.0 LowerLeaflet>POPC=1.0
11530
    1AU     AUC    1   5.244   5.294   5.987
    1AU     AUC    2   5.399   5.285   5.908
    1AU     AUC    3   5.423   5.298   6.069
    1AU     AUC    4   5.111   5.264   5.887
    1AU     AUC    5   5.119   5.258   6.086
    1AU     AUC    6   5.152   5.410   5.985
    1AU     AUC    7   5.328   5.417   5.983
    1AU     AUC    8   5.183   5.131   6.001
    1AU     AUC    9   5.333   5.124   5.988
    1AU     AUC   10   5.244   5.195   6.129
    1AU     AUC   11   5.226   5.370   6.137
    1AU     AUC   12   5.271   5.186   5.846
    1AU     AUC   13   5.252   5.372   5.859
    1AU     AUC   14   5.525   5.286   5.804
    1AU     AUC   15   5.577   5.238   5.938
    1AU     AUC   16   5.529   5.289   6.148
    1AU     AUC   17   4.986   5.254   5.825
    1AU     AUC   18   4.929   5.240   6.019
    1AU     AUC   19   4.963   5.273   6.145
    1AU     AUC   20   5.036   5.514   5.980
    1AU     AUC   21   5.160   5.599   5.994
    1AU     AUC   22   5.370   5.580   6.004
    1AU     AUC   23   5.079   4.999   5.977
    1AU     AUC   24   5.199   4.923   6.080
    1AU     AUC   25   5.427   5.005   6.022
    1AU     AUC   26   5.307   5.132   6.270
    1AU     AUC   27   5.274   5.315   6.309
    1AU     AUC   28   5.244   5.448   6.252
    1AU     AUC   29   5.262   5.138   5.701
    1AU     AUC   30   5.274   5.310   5.658
    1AU     AUC   31   5.237   5.444   5.720
    1AU     AUC   32   5.454   5.243   6.203
    1AU     AUC   33   5.431   5.400   6.234
    1AU     AUC   34   5.399   5.160   5.723
    1AU     AUC   35   5.395   5.404   5.715
    1AU     AUC   36   5.087   5.130   6.255
    1AU     AUC   37   5.062   5.384   6.244
    1AU     AUC   38   5.101   5.168   5.739
    1AU     AUC   39   5.092   5.373   5.721
    1AU     AUC   40   5.521   5.410   5.829
    1AU     AUC   41   5.474   5.497   6.070
    1AU     AUC   42   4.971   5.390   5.886
    1AU     AUC   43   4.961   5.411   6.071
    1AU     AUC   44   5.481   5.045   5.953
    1AU     AUC   45   5.494   5.055   6.074
    1AU     AUC   46   5.033   5.065   5.902
    1AU     AUC   47   4.972   5.122   6.076
    1AU     AUC   48   5.134   5.527   6.161
    1AU     AUC   49   5.339   5.560   6.117
    1AU     AUC   50   5.068   5.002   6.192
    1AU     AUC   51   5.353   5.064   6.208
    1AU     AUC   52   5.121   5.560   5.866
    1AU     AUC   53   5.342   5.544   5.819
    1AU     AUC   54   5.214   4.954   5.805
    1AU     AUC   55   5.353   5.023   5.820
    1AU    AUSL   56   5.703   5.330   6.452
    1AU    AUSL   57   5.496   4.959   6.524
    1AU     AUL   58   5.844   4.925   6.282
    1AU       S   59   5.684   4.631   6.749
    1AU     LIG   60   5.838   4.185   6.936
    1AU     LIG   61   6.140   3.807   6.967
    1AU       S   62   5.979   5.370   6.798
    1AU     LIG   63   6.143   5.350   7.242
    1AU     LIG   64   6.130   5.068   7.622
    1AU    AUSL   65   5.443   5.235   6.449
    1AU    AUSL   66   5.194   5.342   6.412
    1AU     AUL   67   5.187   5.338   6.701
    1AU       S   68   5.902   5.082   6.869
    1AU     LIG   69   5.697   5.094   7.303
    1AU     LIG   70   5.609   4.960   7.744
    1AU       S   71   4.709   4.953   7.144
    1AU     LIG   72   4.718   5.220   7.523
    1AU     LIG   73   4.572   5.296   7.968
    1AU    AUSL   74   5.380   5.499   6.560
    1AU    AUSL   75   5.515   5.483   6.324
    1AU     AUL   76   5.441   5.198   6.719
    1AU       S   77   5.607   5.675   6.945
    1AU     LIG   78   5.809   5.725   7.328
    1AU     LIG   79   5.799   5.454   7.694
    1AU       S   80   5.924   5.820   6.603
    1AU     LIG   81   6.301   5.815   6.854
    1AU     LIG   82   6.729   5.970   6.987
    1AU    AUSL   83   5.599   5.345   5.452
    1AU    AUSL   84   5.553   5.594   5.609
    1AU     AUL   85   5.327   5.425   5.301
    1AU       S   86   5.808   5.243   5.088
    1AU     LIG   87   6.030   5.017   4.713
    1AU     LIG   88   6.215   5.067   4.276
    1AU       S   89   5.885   5.785   5.339
    1AU     LIG   90   6.036   6.116   5.051
    1AU     LIG   91   6.209   6.516   4.878
    1AU    AUSL   92   5.377   5.160   5.425
    1AU    AUSL   93   5.531   5.169   5.660
    1AU     AUL   94   5.682   5.099   5.622
    1AU       S   95   5.785   4.387   5.292
    1AU     LIG   96   6.249   4.452   5.201
    1AU     LIG   97   6.585   4.239   4.960
    1AU       S   98   5.517   5.047   4.995
    1AU     LIG   99   5.550   4.845   4.585
    1AU     LIG  100   5.772   4.812   4.184
    1AU    AUSL  101   5.362   5.390   5.581
    1AU    AUSL  102   5.124   5.262   5.417
    1AU     AUL  103   5.290   5.610   5.510
    1AU       S  104   4.944   5.112   5.019
    1AU     LIG  105   4.849   4.907   4.620
    1AU     LIG  106   4.577   4.909   4.230
    1AU       S  107   5.627   5.298   4.821
    1AU     LIG  108   5.742   5.297   4.373
    1AU     LIG  109   5.871   5.264   3.917
    1AU    AUSL  110   4.966   5.249   6.538
    1AU    AUSL  111   4.999   5.530   6.485
    1AU     AUL  112   5.161   5.619   6.702
    1AU       S  113   4.761   5.160   6.930
    1AU     LIG  114   4.400   5.377   7.148
    1AU     LIG  115   4.205   5.327   7.584
    1AU       S  116   4.640   5.676   6.755
    1AU     LIG  117   4.499   6.059   7.006
    1AU     LIG  118   4.330   6.435   7.248
    1AU    AUSL  119   5.226   5.091   6.560
    1AU    AUSL  120   4.789   5.121   6.354
    1AU     AUL  121   5.008   4.846   6.441
    1AU       S  122   4.490   4.889   6.620
    1AU     LIG  123   4.102   4.578   6.716
    1AU     LIG  124   3.924   4.309   7.032
    1AU       S  125   5.003   4.919   6.976
    1AU     LIG  126   5.114   4.891   7.452
    1AU     LIG  127   4.858   4.849   7.865
    1AU    AUSL  128   4.884   5.269   5.553
    1AU    AUSL  129   5.113   5.084   5.637
    1AU     AUL  130   5.160   4.967   5.505
    1AU       S  131   4.675   5.181   5.144
    1AU     LIG  132   4.382   5.001   4.806
    1AU     LIG  133   4.156   5.166   4.405
    1AU       S  134   4.682   4.663   5.151
    1AU     LIG  135   4.406   4.456   4.867
    1AU     LIG  136   4.221   4.024   4.789
    1AU    AUSL  137   5.099   5.431   5.630
    1AU    AUSL  138   4.851   5.507   5.715
    1AU     AUL  139   5.063   5.534   5.351
    1AU       S  140   4.547   5.664   5.304
    1AU     LIG  141   4.321   6.008   5.046
    1AU     LIG  142   4.190   6.262   4.661
    1AU       S  143   4.747   5.349   4.896
    1AU     LIG  144   4.632   5.366   4.467
    1AU     LIG  145   4.463   5.407   4.035
    1AU    AUSL  146   5.589   5.510   5.964
    1AU    AUSL  147   5.706   5.382   5.705
    1AU     AUL  148   5.669   5.647   5.882
    1AU       S  149   6.088   5.586   5.461
    1AU     LIG  150   6.403   5.754   5.151
    1AU     LIG  151   6.563   6.155   4.974
    1AU       S  152   6.295   5.913   6.078
    1AU     LIG  153   6.722   6.166   5.994
    1AU     LIG  154   7.066   6.386   5.731
    1AU    AUSL  155   5.849   5.411   5.938
    1AU    AUSL  156   5.874   5.146   6.071
    1AU     AUL  157   5.905   5.205   6.304
    1AU       S  158   6.230   5.608   5.951
    1AU     LIG  159   6.591   5.732   5.698
    1AU     LIG  160   7.038   5.747   5.791
    1AU       S  161   6.299   4.906   6.027
    1AU     LIG  162   6.697   4.713   6.199
    1AU     LIG  163   7.089   4.519   6.412
    1AU    AUSL  164   5.715   5.369   6.169
    1AU    AUSL  165   5.400   5.660   6.114
    1AU     AUL  166   5.703   5.668   6.176
    1AU       S  167   6.003   6.092   6.484
    1AU     LIG  168   6.331   6.317   6.709
    1AU     LIG  169   6.689   6.476   6.965
    1AU       S  170   6.225   5.623   6.254
    1AU     LIG  171   6.722   5.684   6.221
    1AU     LIG  172   7.195   5.615   6.297
    1AU    AUSL  173   4.875   5.508   6.001
    1AU    AUSL  174   4.943   5.359   6.280
    1AU     AUL  175   4.752   5.583   5.995
    1AU       S  176   4.461   5.444   6.636
    1AU     LIG  177   4.134   5.722   6.823
    1AU     LIG  178   3.990   6.063   7.103
    1AU       S  179   4.418   5.955   6.094
    1AU     LIG  180   4.260   6.410   6.074
    1AU     LIG  181   3.877   6.616   5.934
    1AU    AUSL  182   4.841   5.260   5.828
    1AU    AUSL  183   4.844   5.764   5.808
    1AU     AUL  184   4.548   5.517   5.807
    1AU       S  185   4.339   5.184   5.495
    1AU     LIG  186   3.950   5.379   5.685
    1AU     LIG  187   3.602   5.685   5.758
    1AU       S  188   4.581   6.060   5.609
    1AU     LIG  189   4.390   6.404   5.384
    1AU     LIG  190   4.135   6.599   5.058
    1AU    AUSL  191   4.638   5.325   5.999
    1AU    AUSL  192   4.682   5.050   5.905
    1AU     AUL  193   4.690   5.375   6.187
    1AU       S  194   4.213   4.986   5.925
    1AU     LIG  195   3.823   4.864   5.640
    1AU     LIG  196   3.393   4.699   5.764
    1AU       S  197   4.185   5.510   6.183
    1AU     LIG  198   3.861   5.816   6.381
    1AU     LIG  199   3.408   6.011   6.340
    1AU    AUSL  200   5.724   4.910   6.023
    1AU    AUSL  201   5.622   5.115   6.196
    1AU     AUL  202   5.638   5.090   6.331
    1AU       S  203   6.074   4.612   5.965
    1AU     LIG  204   6.392   4.352   5.958
    1AU     LIG  205   6.631   4.205   5.581
    1AU       S  206   6.018   4.572   6.676
    1AU     LIG  207   6.336   4.288   6.841
    1AU     LIG  208   6.464   4.108   7.242
    1AU    AUSL  209   5.664   5.180   5.906
    1AU    AUSL  210   5.561   4.935   5.805
    1AU     AUL  211   5.895   5.178   5.785
    1AU       S  212   6.202   4.800   5.784
    1AU     LIG  213   6.643   4.708   5.682
    1AU     LIG  214   7.080   4.666   5.848
    1AU       S  215   5.858   4.585   5.521
    1AU     LIG  216   6.109   4.158   5.589
    1AU     LIG  217   6.258   3.923   5.210
    1AU    AUSL  218   4.960   4.981   5.915
    1AU    AUSL  219   4.841   5.018   5.668
    1AU     AUL  220   4.916   4.761   5.955
    1AU       S  221   4.585   4.764   5.421
    1AU     LIG  222   4.171   4.703   5.276
    1AU     LIG  223   3.927   4.378   5.068
    1AU       S  224   4.010   5.040   6.065
    1AU     LIG  225   3.936   4.554   6.029
    1AU     LIG  226   3.763   4.333   5.648
    1AU    AUSL  227   4.844   5.163   6.093
    1AU    AUSL  228   4.908   4.914   6.191
    1AU     AUL  229   4.672   4.827   6.082
    1AU       S  230   4.556   4.616   6.519
    1AU     LIG  231   4.360   4.176   6.487
    1AU     LIG  232   4.093   3.867   6.758
    1AU       S  233   4.230   5.023   6.216
    1AU     LIG  234   3.772   4.846   6.437
    1AU     LIG  235   3.293   4.935   6.468
    1AU    AUSL  236   5.246   5.597   6.331
    1AU    AUSL  237   4.841   5.613   6.265
    1AU     AUL  238   5.186   5.667   6.418
    1AU       S  239   4.643   5.915   6.529
    1AU     LIG  240   4.251   6.148   6.559
    1AU     LIG  241   4.068   6.488   6.804
    1AU       S  242   5.158   6.150   6.634
    1AU     LIG  243   5.334   6.610   6.746
    1AU     LIG  244   5.341   7.111   6.736
    1AU    AUSL  245   5.080   5.659   6.128
    1AU    AUSL  246   5.246   5.847   5.954
    1AU     AUL  247   4.952   5.780   6.071
    1AU       S  248   4.998   6.387   6.424
    1AU     LIG  249   5.084   6.846   6.353
    1AU     LIG  250   4.853   7.181   6.587
    1AU       S  251   5.366   6.365   5.861
    1AU     LIG  252   5.577   6.822   5.792
    1AU     LIG  253   5.592   7.205   5.499
    1AU    AUSL  254   5.240   5.862   6.226
    1AU    AUSL  255   5.471   5.748   6.371
    1AU     AUL  256   5.514   5.823   6.036
    1AU       S  257   5.681   6.036   6.584
    1AU     LIG  258   5.905   6.135   6.996
    1AU     LIG  259   6.309   6.211   7.219
    1AU       S  260   5.257   6.255   6.357
    1AU     LIG  261   5.545   6.600   6.277
    1AU     LIG  262   5.597   7.052   6.291
    1AU    AUSL  263   5.341   5.015   6.312
    1AU    AUSL  264   5.548   4.841   6.240
    1AU     AUL  265   5.355   4.633   6.230
    1AU       S  266   4.863   4.189   6.615
    1AU     LIG  267   4.927   3.758   6.793
    1AU     LIG  268   4.963   3.364   7.029
    1AU       S  269   5.788   4.453   6.482
    1AU     LIG  270   6.133   4.097   6.411
    1AU     LIG  271   6.485   3.800   6.587
    1AU    AUSL  272   5.078   4.693   6.179
    1AU    AUSL  273   5.073   5.099   6.332
    1AU     AUL  274   5.276   4.855   6.378
    1AU       S  275   4.896   4.292   6.319
    1AU     LIG  276   4.742   3.782   6.314
    1AU     LIG  277   4.900   3.331   6.491
    1AU       S  278   4.597   4.605   6.799
    1AU     LIG  279   4.430   4.206   6.994
    1AU     LIG  280   4.156   3.921   7.284
    1AU    AUSL  281   5.285   4.865   6.089
    1AU    AUSL  282   5.177   4.675   5.911
    1AU     AUL  283   5.403   4.469   6.004
    1AU       S  284   4.948   4.225   5.826
    1AU     LIG  285   4.702   3.760   5.800
    1AU     LIG  286   4.755   3.388   5.501
    1AU       S  287   5.108   4.105   6.444
    1AU     LIG  288   5.260   3.672   6.380
    1AU     LIG  289   5.373   3.314   6.684
    1AU    AUSL  290   5.241   5.825   5.677
    1AU    AUSL  291   5.391   5.652   5.830
    1AU     AUL  292   5.598   5.907   5.777
    1AU       S  293   5.255   6.253   5.515
    1AU     LIG  294   5.112   6.628   5.241
    1AU     LIG  295   5.236   7.073   5.138
    1AU       S  296   6.138   5.922   5.535
    1AU     LIG  297   6.340   6.343   5.411
    1AU     LIG  298   6.616   6.665   5.192
    1AU    AUSL  299   5.087   5.645   5.844
    1AU    AUSL  300   5.015   5.693   5.582
    1AU     AUL  301   5.012   5.998   5.900
    1AU       S  302   5.161   6.527   5.734
    1AU     LIG  303   5.086   6.965   5.651
    1AU     LIG  304   4.776   7.093   5.358
    1AU       S  305   4.755   5.970   5.327
    1AU     LIG  306   4.724   6.335   5.004
    1AU     LIG  307   4.516   6.670   4.726
    1AU    AUSL  308   5.280   4.906   5.799
    1AU    AUSL  309   5.031   4.812   5.704
    1AU     AUL  310   5.256   4.701   5.507
    1AU       S  311   4.739   4.528   5.456
    1AU     LIG  312   4.369   4.222   5.343
    1AU     LIG  313   3.953   3.957   5.354
    1AU       S  314   5.071   4.036   5.610
    1AU     LIG  315   5.065   3.708   5.254
    1AU     LIG  316   5.020   3.347   4.932
    1AU    AUSL  317   5.492   4.739   5.980
    1AU    AUSL  318   5.434   4.921   5.560
    1AU     AUL  319   5.382   4.582   5.733
    1AU       S  320   5.127   3.963   5.932
    1AU     LIG  321   5.200   3.541   5.724
    1AU     LIG  322   5.230   3.182   5.378
    1AU       S  323   5.745   4.702   5.266
    1AU     LIG  324   5.898   4.530   4.830
    1AU     LIG  325   6.132   4.124   4.720
    2POPC   NC3  326   3.435   8.764   8.049
    2POPC   PO4  327   3.990   8.329   8.204
    2POPC   GL1  328   3.849   8.640   7.724
    2POPC   GL2  329   3.480   8.646   7.567
    2POPC   C1A  330   3.827   8.734   7.243
    2POPC   D2A  331   3.732   8.458   6.948
    2POPC   C3A  332   3.490   8.442   6.597
    2POPC   C4A  333   3.573   8.584   6.214
    2POPC   C1B  334   3.261   8.602   7.232
    2POPC   C2B  335   3.222   8.790   6.893
    2POPC   C3B  336   3.136   8.783   6.511
    2POPC   C4B  337   3.194   8.919   6.113
    3POPC   NC3  338   1.186   5.042   8.135
    3POPC   PO4  339   0.573   4.728   8.135
    3POPC   GL1  340   0.900   4.817   7.747
    3POPC   GL2  341   1.072   5.127   7.665
    3POPC   C1A  342   1.115   4.712   7.357
    3POPC   D2A  343   0.942   4.829   6.955
    3POPC   C3A  344   1.052   4.628   6.576
    3POPC   C4A  345   1.175   4.753   6.159
    3POPC   C1B  346   1.348   5.170   7.328
    3POPC   C2B  347   1.462   5.056   6.938
    3POPC   C3B  348   1.299   5.056   6.570
    3POPC   C4B  349   1.404   5.203   6.198
    4POPC   NC3  350   9.325   1.766   8.166
    4POPC   PO4  351   8.929   2.220   7.880
    4POPC   GL1  352   9.078   1.914   7.637
    4POPC   GL2  353   9.340   1.682   7.677
    4POPC   C1A  354   9.208   1.976   7.227
    4POPC   D2A  355   9.304   1.787   6.827
    4POPC   C3A  356   9.500   2.051   6.518
    4POPC   C4A  357   9.661   2.265   6.168
    4POPC   C1B  358   9.396   1.497   7.284
    4POPC   C2B  359   9.738   1.617   7.026
    4POPC   C3B  360   9.803   1.628   6.564
    4POPC   C4B  361   9.944   1.404   6.198
    5POPC   NC3  362   0.447   7.941   8.357
    5POPC   PO4  363   0.095   7.446   8.042
    5POPC   GL1  364   0.227   7.645   7.583
    5POPC   GL2  365   0.270   8.008   7.448
    5POPC   C1A  366   0.393   7.609   7.161
    5POPC   D2A  367   0.604   7.789   6.796
    5POPC   C3A  368   0.573   7.669   6.341
    5POPC   C4A  369   0.255   7.718   5.978
    5POPC   C1B  370   0.345   8.365   7.254
    5POPC   C2B  371   0.437   8.272   6.860
    5POPC   C3B  372   0.279   8.057   6.515
    5POPC   C4B  373   0.407   8.157   6.139
    6POPC   NC3  374   2.991   1.475   8.193
    6POPC   PO4  375   3.581   1.740   8.174
    6POPC   GL1  376   3.619   1.471   7.828
    6POPC   GL2  377   3.610   1.106   7.835
    6POPC   C1A  378   3.487   1.522   7.435
    6POPC   D2A  379   3.512   1.697   7.044
    6POPC   C3A  380   3.670   1.524   6.641
    6POPC   C4A  381   3.475   1.442   6.241
    6POPC   C1B  382   3.390   1.031   7.435
    6POPC   C2B  383   3.508   1.197   7.016
    6POPC   C3B  384   3.360   1.099   6.601
    6POPC   C4B  385   3.515   0.939   6.204
    7POPC   NC3  386   8.562   9.122   8.164
    7POPC   PO4  387   9.009   9.594   8.362
    7POPC   GL1  388   8.995   9.441   7.800
    7POPC   GL2  389   8.763   9.252   7.705
    7POPC   C1A  390   8.866   9.646   7.380
    7POPC   D2A  391   8.698   9.590   6.964
    7POPC   C3A  392   8.745   9.347   6.611
    7POPC   C4A  393   8.691   9.561   6.234
    7POPC   C1B  394   8.641   9.150   7.291
    7POPC   C2B  395   8.393   9.038   6.926
    7POPC   C3B  396   8.220   9.190   6.550
    7POPC   C4B  397   8.281   9.307   6.119
    8POPC   NC3  398   6.218   0.322   8.158
    8POPC   PO4  399   6.770  10.426   8.081
    8POPC   GL1  400   6.628   0.178   7.655
    8POPC   GL2  401   6.366   0.441   7.688
    8POPC   C1A  402   6.507   0.432   7.213
    8POPC   D2A  403   6.297   0.700   6.894
    8POPC   C3A  404   6.491   0.697   6.493
    8POPC   C4A  405   6.754   0.545   6.139
    8POPC   C1B  406   6.208   0.060   7.432
    8POPC   C2B  407   6.366  10.432   7.026
    8POPC   C3B  408   6.427   0.208   6.658
    8POPC   C4B  409   6.295   0.291   6.225
    9POPC   NC3  410   8.957   4.785   8.187
    9POPC   PO4  411   8.574   5.248   7.967
    9POPC   GL1  412   8.881   5.100   7.701
    9POPC   GL2  413   8.733   4.786   7.685
    9POPC   C1A  414   8.888   5.171   7.252
    9POPC   D2A  415   8.693   5.014   6.867
    9POPC   C3A  416   8.751   4.858   6.481
    9POPC   C4A  417   8.833   4.985   6.091
    9POPC   C1B  418   8.530   4.809   7.294
    9POPC   C2B  419   8.300   4.693   6.922
    9POPC   C3B  420   8.338   4.571   6.477
    9POPC   C4B  421   8.412   4.660   6.017
   10POPC   NC3  422   4.208   9.452   7.981
   10POPC   PO4  423   3.593   9.246   8.195
   10POPC   GL1  424   3.781   9.553   7.701
   10POPC   GL2  425   4.149   9.595   7.482
   10POPC   C1A  426   3.710   9.533   7.266
   10POPC   D2A  427   3.996   9.470   6.901
   10POPC   C3A  428   3.786   9.552   6.498
   10POPC   C4A  429   3.958   9.507   6.044
   10POPC   C1B  430   4.423   9.287   7.191
   10POPC   C2B  431   4.636   9.052   6.862
   10POPC   C3B  432   4.468   8.899   6.493
   10POPC   C4B  433   4.178   9.241   6.432
   11POPC   NC3  434   9.902   5.553   8.333
   11POPC   PO4  435   9.737   5.266   7.782
   11POPC   GL1  436   9.924   5.402   7.487
   11POPC   GL2  437  10.163   5.587   7.719
   11POPC   C1A  438   9.762   5.206   7.108
   11POPC   D2A  439   9.693   5.500   6.801
   11POPC   C3A  440   9.668   5.406   6.378
   11POPC   C4A  441   9.845   5.663   6.059
   11POPC   C1B  442  10.315   5.738   7.348
   11POPC   C2B  443  10.107   5.897   6.960
   11POPC   C3B  444  10.082   5.750   6.542
   11POPC   C4B  445  10.311   5.844   6.152
   12POPC   NC3  446   6.284   1.533   8.273
   12POPC   PO4  447   5.959   2.114   8.298
   12POPC   GL1  448   6.322   1.890   7.918
   12POPC   GL2  449   6.544   2.127   7.759
   12POPC   C1A  450   6.251   1.762   7.425
   12POPC   D2A  451   6.452   1.691   6.978
   12POPC   C3A  452   6.237   1.579   6.584
   12POPC   C4A  453   6.250   1.703   6.159
   12POPC   C1B  454   6.484   2.209   7.295
   12POPC   C2B  455   6.656   2.186   6.885
   12POPC   C3B  456   6.578   1.950   6.514
   12POPC   C4B  457   6.627   2.019   6.067
   13POPC   NC3  458   1.458   0.899   8.043
   13POPC   PO4  459   2.107   0.848   8.046
   13POPC   GL1  460   1.967   1.076   7.679
   13POPC   GL2  461   2.283   1.244   7.667
   13POPC   C1A  462   1.739   1.044   7.292
   13POPC   D2A  463   1.684   0.778   6.899
   13POPC   C3A  464   1.895   0.852   6.485
   13POPC   C4A  465   1.675   0.814   6.071
   13POPC   C1B  466   2.122   1.398   7.285
   13POPC   C2B  467   1.955   1.253   6.881
   13POPC   C3B  468   1.771   1.336   6.490
   13POPC   C4B  469   1.983   1.202   6.105
   14POPC   NC3  470   7.140   2.011   8.075
   14POPC   PO4  471   6.661   1.447   8.046
   14POPC   GL1  472   6.846   1.704   7.715
   14POPC   GL2  473   7.207   1.765   7.639
   14POPC   C1A  474   6.846   1.841   7.281
   14POPC   D2A  475   6.970   1.765   6.861
   14POPC   C3A  476   7.063   2.082   6.556
   14POPC   C4A  477   7.051   1.826   6.253
   14POPC   C1B  478   7.362   1.719   7.218
   14POPC   C2B  479   7.624   1.574   6.878
   14POPC   C3B  480   7.508   1.780   6.505
   14POPC   C4B  481   7.500   2.092   6.180
   15POPC   NC3  482   6.446   9.150   8.054
   15POPC   PO4  483   6.930   9.593   8.171
   15POPC   GL1  484   6.621   9.579   7.747
   15POPC   GL2  485   6.361   9.354   7.600
   15POPC   C1A  486   6.518   9.742   7.308
   15POPC   D2A  487   6.529   9.571   6.866
   15POPC   C3A  488   6.513   9.811   6.478
   15POPC   C4A  489   6.443   9.767   6.016
   15POPC   C1B  490   6.235   9.264   7.181
   15POPC   C2B  491   6.037   9.391   6.789
   15POPC   C3B  492   6.244   9.339   6.401
   15POPC   C4B  493   6.159   9.322   5.961
   16POPC   NC3  494   9.432   3.271   8.098
   16POPC   PO4  495   9.761   3.892   8.139
   16POPC   GL1  496   9.699   3.581   7.779
   16POPC   GL2  497   9.368   3.601   7.693
   16POPC   C1A  498   9.677   3.351   7.359
   16POPC   D2A  499   9.548   3.520   6.942
   16POPC   C3A  500   9.766   3.543   6.553
   16POPC   C4A  501   9.588   3.546   6.134
   16POPC   C1B  502   9.189   3.424   7.300
   16POPC   C2B  503   9.034   3.490   6.893
   16POPC   C3B  504   9.247   3.466   6.508
   16POPC   C4B  505   9.192   3.204   6.127
   17POPC   NC3  506   0.504   5.749   8.320
   17POPC   PO4  507  10.365   5.582   8.218
   17POPC   GL1  508   0.174   5.520   7.816
   17POPC   GL2  509   0.510   5.732   7.798
   17POPC   C1A  510   0.287   5.476   7.326
   17POPC   D2A  511   0.123   5.746   6.943
   17POPC   C3A  512   0.176   5.808   6.499
   17POPC   C4A  513   0.181   5.462   6.205
   17POPC   C1B  514   0.635   5.891   7.371
   17POPC   C2B  515   0.653   5.716   6.947
   17POPC   C3B  516   0.605   5.558   6.521
   17POPC   C4B  517   0.570   5.768   6.111
   18POPC   NC3  518  10.181   0.472   8.264
   18POPC   PO4  519   9.638   0.153   8.053
   18POPC   GL1  520   9.983   0.174   7.746
   18POPC   GL2  521  10.242   0.406   7.727
   18POPC   C1A  522   9.917   0.187   7.292
   18POPC   D2A  523  10.059   0.508   7.046
   18POPC   C3A  524  10.093   0.527   6.619
   18POPC   C4A  525  10.241   0.379   6.223
   18POPC   C1B  526  10.483   0.462   7.333
   18POPC   C2B  527   0.069   0.607   6.888
   18POPC   C3B  528   0.016   0.776   6.460
   18POPC   C4B  529  10.474   0.725   5.957
   19POPC   NC3  530   1.525  10.426   8.053
   19POPC   PO4  531   2.228  10.350   8.012
   19POPC   GL1  532   1.877  10.274   7.688
   19POPC   GL2  533   1.786   9.928   7.563
   19POPC   C1A  534   1.681  10.355   7.277
   19POPC   D2A  535   1.536  10.242   6.901
   19POPC   C3A  536   1.786  10.434   6.559
   19POPC   C4A  537   1.630  10.473   6.150
   19POPC   C1B  538   2.068   9.994   7.229
   19POPC   C2B  539   1.951   9.996   6.808
   19POPC   C3B  540   1.600   9.980   6.478
   19POPC   C4B  541   1.901  10.024   6.157
   20POPC   NC3  542   0.532   6.744   8.265
   20POPC   PO4  543   0.805   6.066   8.148
   20POPC   GL1  544   0.647   6.286   7.772
   20POPC   GL2  545   0.341   6.476   7.792
   20POPC   C1A  546   0.581   6.411   7.337
   20POPC   D2A  547   0.686   6.265   6.941
   20POPC   C3A  548   0.637   6.502   6.557
   20POPC   C4A  549   0.443   6.261   6.231
   20POPC   C1B  550   0.122   6.657   7.415
   20POPC   C2B  551   0.068   6.825   7.004
   20POPC   C3B  552   0.125   6.659   6.607
   20POPC   C4B  553   0.287   6.769   6.212
   21POPC   NC3  554   2.458   2.028   8.113
   21POPC   PO4  555   2.526   1.375   8.096
   21POPC   GL1  556   2.708   1.636   7.779
   21POPC   GL2  557   2.754   2.012   7.698
   21POPC   C1A  558   2.586   1.619   7.363
   21POPC   D2A  559   2.798   1.775   7.016
   21POPC   C3A  560   2.645   1.721   6.608
   21POPC   C4A  561   2.527   1.547   6.234
   21POPC   C1B  562   2.499   2.116   7.338
   21POPC   C2B  563   2.378   2.081   6.895
   21POPC   C3B  564   2.462   2.164   6.451
   21POPC   C4B  565   2.895   2.097   6.290
   22POPC   NC3  566   9.242  10.401   8.143
   22POPC   PO4  567   9.267   9.856   7.900
   22POPC   GL1  568   9.403  10.256   7.674
   22POPC   GL2  569   9.739  10.276   7.537
   22POPC   C1A  570   9.388  10.436   7.227
   22POPC   D2A  571   9.541  10.377   6.816
   22POPC   C3A  572   9.176  10.376   6.531
   22POPC   C4A  573   9.022   0.069   6.153
   22POPC   C1B  574   9.594   9.961   7.283
   22POPC   C2B  575   9.647   9.838   6.873
   22POPC   C3B  576   9.497   9.968   6.529
   22POPC   C4B  577   9.707  10.302   6.279
   23POPC   NC3  578   9.700   8.561   8.019
   23POPC   PO4  579   9.197   8.274   7.775
   23POPC   GL1  580   9.457   8.568   7.578
   23POPC   GL2  581   9.455   8.909   7.721
   23POPC   C1A  582   9.780   8.482   7.298
   23POPC   D2A  583   9.584   8.455   6.907
   23POPC   C3A  584   9.833   8.434   6.579
   23POPC   C4A  585   9.700   8.381   6.195
   23POPC   C1B  586   9.677   8.987   7.356
   23POPC   C2B  587   9.508   8.969   6.959
   23POPC   C3B  588   9.658   8.916   6.533
   23POPC   C4B  589   9.355   8.789   6.233
   24POPC   NC3  590   5.479   2.123   8.272
   24POPC   PO4  591   6.012   2.260   7.786
   24POPC   GL1  592   5.662   2.414   7.580
   24POPC   GL2  593   5.660   2.780   7.601
   24POPC   C1A  594   5.710   2.490   7.149
   24POPC   D2A  595   5.665   2.310   6.784
   24POPC   C3A  596   5.779   2.527   6.439
   24POPC   C4A  597   5.566   2.667   6.044
   24POPC   C1B  598   5.610   2.986   7.185
   24POPC   C2B  599   5.505   2.822   6.774
   24POPC   C3B  600   5.720   3.028   6.420
   24POPC   C4B  601   5.957   3.062   6.048
   25POPC   NC3  602   7.459   4.153   8.104
   25POPC   PO4  603   7.073   3.719   7.880
   25POPC   GL1  604   7.253   3.893   7.518
   25POPC   GL2  605   7.246   4.223   7.633
   25POPC   C1A  606   7.485   4.205   7.204
   25POPC   D2A  607   7.483   4.397   6.766
   25POPC   C3A  608   7.425   4.107   6.391
   25POPC   C4A  609   7.337   4.091   5.914
   25POPC   C1B  610   6.972   4.156   7.219
   25POPC   C2B  611   6.834   4.180   6.792
   25POPC   C3B  612   6.636   4.251   6.406
   25POPC   C4B  613   6.872   4.236   6.037
   26POPC   NC3  614   2.679  10.097   7.954
   26POPC   PO4  615   3.192   0.005   8.230
   26POPC   GL1  616   3.071  10.395   7.790
   26POPC   GL2  617   2.729   0.039   7.715
   26POPC   C1A  618   2.995  10.289   7.329
   26POPC   D2A  619   3.124  10.260   6.892
   26POPC   C3A  620   2.820  10.294   6.569
   26POPC   C4A  621   2.744  10.080   6.170
   26POPC   C1B  622   2.461  10.329   7.368
   26POPC   C2B  623   2.488  10.131   6.940
   26POPC   C3B  624   2.348  10.079   6.511
   26POPC   C4B  625   2.337   9.767   6.253
   27POPC   NC3  626   1.059   0.225   8.125
   27POPC   PO4  627   0.977   0.929   8.025
   27POPC   GL1  628   1.170   0.600   7.715
   27POPC   GL2  629   1.243   0.255   7.673
   27POPC   C1A  630   0.963   0.450   7.313
   27POPC   D2A  631   1.086   0.483   6.862
   27POPC   C3A  632   0.929   0.308   6.455
   27POPC   C4A  633   0.834   0.510   6.050
   27POPC   C1B  634   1.476   0.350   7.309
   27POPC   C2B  635   1.528   0.235   6.920
   27POPC   C3B  636   1.443   0.338   6.517
   27POPC   C4B  637   1.357   0.405   6.098
   28POPC   NC3  638   4.415  10.269   8.112
   28POPC   PO4  639   3.895   9.851   8.100
   28POPC   GL1  640   3.989  10.033   7.701
   28POPC   GL2  641   4.140  10.339   7.685
   28POPC   C1A  642   3.900  10.091   7.237
   28POPC   D2A  643   3.936   9.964   6.776
   28POPC   C3A  644   4.158   9.906   6.357
   28POPC   C4A  645   4.121   9.966   5.877
   28POPC   C1B  646   4.395  10.161   7.360
   28POPC   C2B  647   4.503  10.266   6.923
   28POPC   C3B  648   4.253  10.389   6.576
   28POPC   C4B  649   4.282  10.371   6.151
   29POPC   NC3  650   8.326   1.803   8.132
   29POPC   PO4  651   8.388   2.397   8.358
   29POPC   GL1  652   8.382   2.232   7.868
   29POPC   GL2  653   8.559   1.927   7.712
   29POPC   C1A  654   8.293   2.173   7.365
   29POPC   D2A  655   8.281   2.261   6.888
   29POPC   C3A  656   8.456   2.035   6.503
   29POPC   C4A  657   8.595   2.035   6.061
   29POPC   C1B  658   8.701   1.882   7.288
   29POPC   C2B  659   8.807   2.028   6.885
   29POPC   C3B  660   8.919   1.826   6.494
   29POPC   C4B  661   9.065   2.167   6.280
   30POPC   NC3  662   3.303   4.137   7.936
   30POPC   PO4  663   3.797   3.728   8.089
   30POPC   GL1  664   3.693   3.877   7.606
   30POPC   GL2  665   3.344   3.931   7.475
   30POPC   C1A  666   3.677   3.852   7.103
   30POPC   D2A  667   3.538   4.142   6.760
   30POPC   C3A  668   3.839   4.204   6.438
   30POPC   C4A  669   3.778   4.009   6.038
   30POPC   C1B  670   3.128   4.345   7.332
   30POPC   C2B  671   3.081   4.630   6.950
   30POPC   C3B  672   3.145   4.447   6.549
   30POPC   C4B  673   3.461   4.478   6.237
   31POPC   NC3  674   3.580   1.277   8.313
   31POPC   PO4  675   4.256   1.432   8.153
   31POPC   GL1  676   4.116   1.332   7.757
   31POPC   GL2  677   4.190   0.966   7.740
   31POPC   C1A  678   3.868   1.162   7.401
   31POPC   D2A  679   3.907   0.850   7.059
   31POPC   C3A  680   3.868   1.009   6.628
   31POPC   C4A  681   3.942   1.266   6.248
   31POPC   C1B  682   4.367   1.147   7.340
   31POPC   C2B  683   4.468   1.032   6.934
   31POPC   C3B  684   4.366   1.132   6.538
   31POPC   C4B  685   4.273   0.880   6.239
   32POPC   NC3  686   1.964   9.161   8.171
   32POPC   PO4  687   2.210   8.527   8.200
   32POPC   GL1  688   1.871   8.686   7.871
   32POPC   GL2  689   1.576   8.953   7.896
   32POPC   C1A  690   1.820   8.546   7.427
   32POPC   D2A  691   1.992   8.341   7.046
   32POPC   C3A  692   1.983   8.584   6.665
   32POPC   C4A  693   2.299   8.838   6.443
   32POPC   C1B  694   1.589   9.013   7.443
   32POPC   C2B  695   1.649   8.857   7.015
   32POPC   C3B  696   1.497   8.795   6.582
   32POPC   C4B  697   1.751   8.714   6.221
   33POPC   NC3  698   0.224   5.037   8.091
   33POPC   PO4  699   0.783   5.381   8.149
   33POPC   GL1  700   0.578   5.214   7.746
   33POPC   GL2  701   0.395   4.895   7.656
   33POPC   C1A  702   0.707   5.125   7.314
   33POPC   D2A  703   0.535   5.195   6.899
   33POPC   C3A  704   0.775   5.074   6.528
   33POPC   C4A  705   0.656   4.987   6.107
   33POPC   C1B  706   0.252   4.886   7.255
   33POPC   C2B  707   0.106   4.938   6.849
   33POPC   C3B  708   0.221   4.981   6.402
   33POPC   C4B  709   0.271   4.629   6.083
   34POPC   NC3  710   9.933   4.929   8.025
   34POPC   PO4  711   0.040   4.626   7.986
   34POPC   GL1  712  10.325   4.775   7.693
   34POPC   GL2  713  10.334   5.112   7.766
   34POPC   C1A  714  10.280   4.657   7.286
   34POPC   D2A  715  10.109   4.867   6.952
   34POPC   C3A  716  10.228   4.818   6.525
   34POPC   C4A  717  10.315   4.884   6.086
   34POPC   C1B  718  10.347   5.180   7.341
   34POPC   C2B  719  10.234   5.382   6.987
   34POPC   C3B  720  10.407   5.357   6.622
   34POPC   C4B  721  10.163   5.312   6.295
   35POPC   NC3  722   7.814   0.736   8.185
   35POPC   PO4  723   8.065   0.202   7.977
   35POPC   GL1  724   8.108   0.477   7.617
   35POPC   GL2  725   7.769   0.682   7.619
   35POPC   C1A  726   8.111   0.453   7.149
   35POPC   D2A  727   8.229   0.719   6.810
   35POPC   C3A  728   8.057   0.646   6.396
   35POPC   C4A  729   8.315   0.639   6.025
   35POPC   C1B  730   7.685   0.277   7.370
   35POPC   C2B  731   7.751  10.471   7.020
   35POPC   C3B  732   7.702  10.473   6.574
   35POPC   C4B  733   7.740   0.268   6.199
   36POPC   NC3  734   8.122   5.811   8.604
   36POPC   PO4  735   7.999   5.430   8.089
   36POPC   GL1  736   8.129   5.466   7.670
   36POPC   GL2  737   8.143   5.818   7.671
   36POPC   C1A  738   7.939   5.523   7.240
   36POPC   D2A  739   7.668   5.285   6.920
   36POPC   C3A  740   7.696   5.362   6.464
   36POPC   C4A  741   8.057   5.529   6.336
   36POPC   C1B  742   8.050   6.019   7.316
   36POPC   C2B  743   7.764   5.990   6.983
   36POPC   C3B  744   7.927   5.986   6.578
   36POPC   C4B  745   7.778   5.986   6.178
   37POPC   NC3  746   8.509   0.271   8.137
   37POPC   PO4  747   9.021   0.748   8.042
   37POPC   GL1  748   8.662   0.636   7.749
   37POPC   GL2  749   8.639   0.274   7.661
   37POPC   C1A  750   8.596   0.580   7.280
   37POPC   D2A  751   8.773   0.530   6.876
   37POPC   C3A  752   8.588   0.527   6.463
   37POPC   C4A  753   8.822   0.557   6.075
   37POPC   C1B  754   8.398  10.495   7.406
   37POPC   C2B  755   8.285  10.464   6.974
   37POPC   C3B  756   8.156   0.217   6.654
   37POPC   C4B  757   8.233   0.195   6.228
   38POPC   NC3  758   3.284   7.132   8.052
   38POPC   PO4  759   2.626   7.024   8.126
   38POPC   GL1  760   2.840   7.001   7.718
   38POPC   GL2  761   2.911   7.364   7.723
   38POPC   C1A  762   2.759   6.889   7.264
   38POPC   D2A  763   2.600   6.861   6.836
   38POPC   C3A  764   2.849   6.891   6.460
   38POPC   C4A  765   2.903   7.203   6.125
   38POPC   C1B  766   2.698   7.391   7.311
   38POPC   C2B  767   2.559   7.458   6.891
   38POPC   C3B  768   2.484   7.258   6.510
   38POPC   C4B  769   2.490   7.523   6.189
   39POPC   NC3  770   4.744   8.608   7.989
   39POPC   PO4  771   5.439   8.657   8.037
   39POPC   GL1  772   5.202   8.869   7.708
   39POPC   GL2  773   5.112   8.535   7.590
   39POPC   C1A  774   4.961   8.942   7.310
   39POPC   D2A  775   5.001   8.700   6.921
   39POPC   C3A  776   5.021   8.956   6.542
   39POPC   C4A  777   5.225   9.066   6.157
   39POPC   C1B  778   4.730   8.493   7.308
   39POPC   C2B  779   4.569   8.448   6.867
   39POPC   C3B  780   4.801   8.474   6.484
   39POPC   C4B  781   4.805   8.369   6.075
   40POPC   NC3  782   5.828   1.872   7.922
   40POPC   PO4  783   5.211   1.743   8.173
   40POPC   GL1  784   5.341   2.039   7.788
   40POPC   GL2  785   5.456   1.788   7.573
   40POPC   C1A  786   5.318   2.159   7.289
   40POPC   D2A  787   5.407   1.885   6.928
   40POPC   C3A  788   5.412   1.999   6.478
   40POPC   C4A  789   5.483   1.744   6.095
   40POPC   C1B  790   5.797   1.985   7.260
   40POPC   C2B  791   6.108   2.079   6.911
   40POPC   C3B  792   5.960   2.003   6.474
   40POPC   C4B  793   5.749   2.163   6.103
   41POPC   NC3  794   0.294   2.024   8.077
   41POPC   PO4  795   0.642   1.543   8.126
   41POPC   GL1  796   0.556   1.721   7.700
   41POPC   GL2  797   0.643   2.071   7.639
   41POPC   C1A  798   0.527   1.783   7.237
   41POPC   D2A  799   0.686   2.046   6.958
   41POPC   C3A  800   0.544   2.057   6.578
   41POPC   C4A  801   0.679   1.829   6.238
   41POPC   C1B  802   0.290   2.221   7.355
   41POPC   C2B  803   0.164   2.445   6.967
   41POPC   C3B  804   0.019   2.331   6.556
   41POPC   C4B  805   0.175   2.063   6.230
   42POPC   NC3  806   5.948   0.981   7.947
   42POPC   PO4  807   6.540   0.669   8.104
   42POPC   GL1  808   6.479   0.976   7.765
   42POPC   GL2  809   6.293   1.312   7.739
   42POPC   C1A  810   6.316   0.948   7.350
   42POPC   D2A  811   6.186   1.241   7.029
   42POPC   C3A  812   6.114   1.092   6.605
   42POPC   C4A  813   6.322   1.114   6.219
   42POPC   C1B  814   6.570   1.388   7.383
   42POPC   C2B  815   6.827   1.284   7.064
   42POPC   C3B  816   6.618   1.239   6.694
   42POPC   C4B  817   6.675   1.485   6.322
   43POPC   NC3  818   1.344   1.940   8.150
   43POPC   PO4  819   1.456   2.604   8.232
   43POPC   GL1  820   1.482   2.382   7.768
   43POPC   GL2  821   1.291   2.050   7.659
   43POPC   C1A  822   1.487   2.253   7.267
   43POPC   D2A  823   1.555   2.018   6.869
   43POPC   C3A  824   1.453   2.250   6.482
   43POPC   C4A  825   1.462   2.189   6.013
   43POPC   C1B  826   1.028   1.824   7.386
   43POPC   C2B  827   1.111   1.741   6.987
   43POPC   C3B  828   1.059   1.892   6.584
   43POPC   C4B  829   1.312   1.757   6.260
   44POPC   NC3  830   2.589   4.053   8.099
   44POPC   PO4  831   3.127   3.706   7.916
   44POPC   GL1  832   2.863   3.913   7.648
   44POPC   GL2  833   2.711   4.223   7.627
   44POPC   C1A  834   2.886   3.882   7.230
   44POPC   D2A  835   2.811   4.203   6.956
   44POPC   C3A  836   2.780   4.085   6.571
   44POPC   C4A  837   2.873   4.217   6.160
   44POPC   C1B  838   2.423   4.081   7.291
   44POPC   C2B  839   2.314   4.223   6.838
   44POPC   C3B  840   2.351   4.275   6.373
   44POPC   C4B  841   2.481   4.442   5.969
   45POPC   NC3  842   8.503   7.827   8.140
   45POPC   PO4  843   9.060   8.078   8.323
   45POPC   GL1  844   8.841   7.961   7.812
   45POPC   GL2  845   8.542   8.078   7.705
   45POPC   C1A  846   8.961   7.794   7.382
   45POPC   D2A  847   9.103   7.874   6.961
   45POPC   C3A  848   8.981   7.824   6.537
   45POPC   C4A  849   8.974   7.531   6.202
   45POPC   C1B  850   8.577   8.133   7.273
   45POPC   C2B  851   8.643   8.016   6.873
   45POPC   C3B  852   8.610   8.181   6.491
   45POPC   C4B  853   8.655   7.959   6.137
   46POPC   NC3  854   9.894  10.245   8.003
   46POPC   PO4  855  10.456   0.110   8.134
   46POPC   GL1  856   0.035  10.407   7.776
   46POPC   GL2  857  10.372  10.070   7.792
   46POPC   C1A  858  10.347  10.445   7.392
   46POPC   D2A  859  10.354   0.116   6.978
   46POPC   C3A  860  10.291   0.007   6.554
   46POPC   C4A  861  10.326  10.355   6.112
   46POPC   C1B  862  10.130   9.978   7.405
   46POPC   C2B  863   9.981  10.214   7.052
   46POPC   C3B  864  10.019  10.089   6.629
   46POPC   C4B  865  10.105   9.940   6.240
   47POPC   NC3  866   0.932   4.447   8.067
   47POPC   PO4  867   1.415   4.330   8.497
   47POPC   GL1  868   1.306   4.144   7.919
   47POPC   GL2  869   1.089   3.899   7.736
   47POPC   C1A  870   1.407   4.276   7.421
   47POPC   D2A  871   1.410   4.521   6.974
   47POPC   C3A  872   1.389   4.250   6.568
   47POPC   C4A  873   1.481   4.294   6.102
   47POPC   C1B  874   0.924   4.112   7.382
   47POPC   C2B  875   0.949   4.306   6.991
   47POPC   C3B  876   0.871   4.160   6.578
   47POPC   C4B  877   1.038   4.053   6.189
   48POPC   NC3  878   2.180   0.369   8.041
   48POPC   PO4  879   1.494   0.394   8.091
   48POPC   GL1  880   1.755   0.312   7.740
   48POPC   GL2  881   1.696   0.652   7.640
   48POPC   C1A  882   2.054   0.182   7.395
   48POPC   D2A  883   2.098  10.468   6.990
   48POPC   C3A  884   2.336   0.073   6.615
   48POPC   C4A  885   2.186  10.487   6.186
   48POPC   C1B  886   2.110   0.687   7.389
   48POPC   C2B  887   2.241   0.489   7.000
   48POPC   C3B  888   1.959   0.392   6.697
   48POPC   C4B  889   1.881   0.392   6.281
   49POPC   NC3  890   6.895   0.376   8.026
   49POPC   PO4  891   7.383   0.853   8.031
   49POPC   GL1  892   7.227   0.744   7.666
   49POPC   GL2  893   7.296   0.389   7.680
   49POPC   C1A  894   7.357   0.679   7.243
   49POPC   D2A  895   7.338   0.323   6.949
   49POPC   C3A  896   7.532   0.477   6.604
   49POPC   C4A  897   7.563   0.777   6.260
   49POPC   C1B  898   6.987   0.343   7.351
   49POPC   C2B  899   6.844   0.156   6.964
   49POPC   C3B  900   6.928   0.342   6.578
   49POPC   C4B  901   7.221   0.346   6.208
   50POPC   NC3  902   6.941   2.892   8.224
   50POPC   PO4  903   7.667   3.053   8.132
   50POPC   GL1  904   7.411   2.895   7.776
   50POPC   GL2  905   7.277   2.536   7.819
   50POPC   C1A  906   7.482   2.674   7.365
   50POPC   D2A  907   7.243   2.680   6.963
   50POPC   C3A  908   7.328   2.951   6.582
   50POPC   C4A  909   6.971   2.983   6.274
   50POPC   C1B  910   7.125   2.274   7.429
   50POPC   C2B  911   7.282   2.179   7.005
   50POPC   C3B  912   7.462   2.388   6.604
   50POPC   C4B  913   7.286   2.573   6.236
   51POPC   NC3  914   7.068   9.973   8.421
   51POPC   PO4  915   7.560   9.974   7.905
   51POPC   GL1  916   7.249  10.055   7.628
   51POPC   GL2  917   7.105  10.392   7.702
   51POPC   C1A  918   7.060   9.845   7.279
   51POPC   D2A  919   7.165   9.651   6.901
   51POPC   C3A  920   7.061   9.927   6.579
   51POPC   C4A  921   6.907  10.042   6.190
   51POPC   C1B  922   7.288  10.445   7.314
   51POPC   C2B  923   7.180  10.290   6.945
   51POPC   C3B  924   7.189  10.418   6.530
   51POPC   C4B  925   7.396  10.218   6.221
   52POPC   NC3  926  10.180   1.252   8.238
   52POPC   PO4  927   9.764   0.787   8.286
   52POPC   GL1  928  10.063   0.867   7.899
   52POPC   GL2  929  10.140   1.224   7.743
   52POPC   C1A  930  10.111   0.832   7.429
   52POPC   D2A  931  10.200   0.980   6.968
   52POPC   C3A  932   9.956   1.061   6.610
   52POPC   C4A  933  10.081   0.902   6.239
   52POPC   C1B  934  10.214   1.374   7.317
   52POPC   C2B  935  10.197   1.480   6.882
   52POPC   C3B  936  10.412   1.269   6.565
   52POPC   C4B  937  10.496   1.218   6.147
   53POPC   NC3  938   8.519   7.077   7.940
   53POPC   PO4  939   8.977   7.562   8.082
   53POPC   GL1  940   8.656   7.505   7.702
   53POPC   GL2  941   8.732   7.183   7.504
   53POPC   C1A  942   8.525   7.571   7.251
   53POPC   D2A  943   8.764   7.495   6.881
   53POPC   C3A  944   8.522   7.617   6.518
   53POPC   C4A  945   8.495   7.428   6.100
   53POPC   C1B  946   8.356   7.082   7.283
   53POPC   C2B  947   8.333   7.222   6.879
   53POPC   C3B  948   8.524   7.106   6.534
   53POPC   C4B  949   8.729   6.986   6.211
   54POPC   NC3  950   8.868   4.096   8.129
   54POPC   PO4  951   8.482   4.590   8.084
   54POPC   GL1  952   8.562   4.286   7.723
   54POPC   GL2  953   8.865   4.269   7.654
   54POPC   C1A  954   8.526   3.996   7.361
   54POPC   D2A  955   8.381   3.810   6.970
   54POPC   C3A  956   8.450   4.029   6.625
   54POPC   C4A  957   8.477   3.775   6.262
   54POPC   C1B  958   8.918   4.484   7.304
   54POPC   C2B  959   8.767   4.507   6.917
   54POPC   C3B  960   8.881   4.378   6.558
   54POPC   C4B  961   8.699   4.233   6.226
   55POPC   NC3  962   9.339   7.287   8.233
   55POPC   PO4  963   9.093   6.686   8.328
   55POPC   GL1  964   9.318   6.896   7.853
   55POPC   GL2  965   9.516   7.222   7.756
   55POPC   C1A  966   9.201   7.091   7.377
   55POPC   D2A  967   8.956   6.981   6.979
   55POPC   C3A  968   9.050   7.183   6.575
   55POPC   C4A  969   9.225   7.095   6.157
   55POPC   C1B  970   9.695   7.006   7.404
   55POPC   C2B  971   9.546   6.961   6.992
   55POPC   C3B  972   9.547   7.053   6.573
   55POPC   C4B  973   9.785   7.006   6.229
   56POPC   NC3  974  10.156   7.674   8.089
   56POPC   PO4  975   0.014   8.163   8.313
   56POPC   GL1  976  10.418   7.992   7.808
   56POPC   GL2  977  10.144   7.945   7.675
   56POPC   C1A  978  10.374   7.775   7.293
   56POPC   D2A  979   0.050   7.914   6.958
   56POPC   C3A  980  10.319   7.744   6.683
   56POPC   C4A  981  10.380   7.785   6.288
   56POPC   C1B  982   9.927   7.970   7.296
   56POPC   C2B  983  10.034   8.100   6.916
   56POPC   C3B  984   9.901   7.934   6.490
   56POPC   C4B  985   9.785   7.890   6.090
   57POPC   NC3  986   1.508   2.979   8.491
   57POPC   PO4  987   0.917   3.086   8.122
   57POPC   GL1  988   1.007   3.366   7.783
   57POPC   GL2  989   1.391   3.423   7.729
   57POPC   C1A  990   1.060   3.272   7.359
   57POPC   D2A  991   1.284   3.235   6.984
   57POPC   C3A  992   1.032   3.289   6.617
   57POPC   C4A  993   1.166   3.385   6.206
   57POPC   C1B  994   1.311   3.706   7.343
   57POPC   C2B  995   1.082   3.788   6.972
   57POPC   C3B  996   1.218   3.761   6.564
   57POPC   C4B  997   1.502   3.787   6.211
   58POPC   NC3  998  10.110   3.577   8.073
   58POPC   PO4  999   9.803   3.011   8.137
   58POPC   GL1 1000   9.976   3.124   7.718
   58POPC   GL2 1001  10.140   3.438   7.565
   58POPC   C1A 1002  10.028   2.996   7.282
   58POPC   D2A 1003   9.836   3.097   6.887
   58POPC   C3A 1004  10.098   3.141   6.537
   58POPC   C4A 1005   9.990   3.217   6.114
   58POPC   C1B 1006  10.052   3.649   7.170
   58POPC   C2B 1007  10.243   3.576   6.779
   58POPC   C3B 1008  10.222   3.620   6.335
   58POPC   C4B 1009  10.031   3.686   5.947
   59POPC   NC3 1010   7.182   7.836   8.421
   59POPC   PO4 1011   7.256   7.913   7.893
   59POPC   GL1 1012   7.090   8.008   7.576
   59POPC   GL2 1013   6.947   8.357   7.506
   59POPC   C1A 1014   7.147   7.752   7.239
   59POPC   D2A 1015   7.371   7.608   6.907
   59POPC   C3A 1016   7.198   7.695   6.470
   59POPC   C4A 1017   7.300   7.689   5.984
   59POPC   C1B 1018   7.314   8.256   7.229
   59POPC   C2B 1019   7.197   8.092   6.862
   59POPC   C3B 1020   7.179   8.206   6.504
   59POPC   C4B 1021   7.015   8.055   6.137
   60POPC   NC3 1022   2.651   6.558   8.148
   60POPC   PO4 1023   3.029   5.980   8.022
   60POPC   GL1 1024   2.814   6.248   7.686
   60POPC   GL2 1025   2.562   6.505   7.656
   60POPC   C1A 1026   2.873   6.370   7.232
   60POPC   D2A 1027   3.150   6.258   6.857
   60POPC   C3A 1028   3.024   6.383   6.425
   60POPC   C4A 1029   3.027   6.147   6.001
   60POPC   C1B 1030   2.330   6.262   7.351
   60POPC   C2B 1031   2.226   6.234   6.923
   60POPC   C3B 1032   2.430   6.423   6.546
   60POPC   C4B 1033   2.584   6.379   6.127
   61POPC   NC3 1034   8.138   4.264   7.985
   61POPC   PO4 1035   7.760   3.769   8.181
   61POPC   GL1 1036   7.681   3.829   7.750
   61POPC   GL2 1037   7.783   4.103   7.618
   61POPC   C1A 1038   7.667   3.715   7.291
   61POPC   D2A 1039   7.640   3.907   6.842
   61POPC   C3A 1040   7.939   3.885   6.506
   61POPC   C4A 1041   8.170   4.162   6.219
   61POPC   C1B 1042   8.011   4.106   7.210
   61POPC   C2B 1043   8.010   4.296   6.778
   61POPC   C3B 1044   7.823   4.473   6.388
   61POPC   C4B 1045   7.501   4.537   6.098
   62POPC   NC3 1046   0.204   0.450   7.949
   62POPC   PO4 1047   0.651   0.018   8.063
   62POPC   GL1 1048   0.595   0.223   7.655
   62POPC   GL2 1049   0.667   0.582   7.779
   62POPC   C1A 1050   0.349   0.107   7.231
   62POPC   D2A 1051   0.284   0.162   6.725
   62POPC   C3A 1052   0.274  10.445   6.313
   62POPC   C4A 1053   0.576   0.074   6.004
   62POPC   C1B 1054   0.489   0.654   7.379
   62POPC   C2B 1055   0.580   0.506   6.978
   62POPC   C3B 1056   0.535   0.610   6.572
   62POPC   C4B 1057   0.314   0.429   6.253
   63POPC   NC3 1058   0.010   4.395   8.451
   63POPC   PO4 1059   0.414   3.929   8.114
   63POPC   GL1 1060   0.588   4.077   7.765
   63POPC   GL2 1061   0.519   4.402   7.752
   63POPC   C1A 1062   0.405   4.077   7.340
   63POPC   D2A 1063   0.546   3.996   6.941
   63POPC   C3A 1064   0.366   4.108   6.538
   63POPC   C4A 1065   0.520   4.044   6.133
   63POPC   C1B 1066   0.634   4.548   7.354
   63POPC   C2B 1067   0.472   4.520   6.945
   63POPC   C3B 1068   0.543   4.603   6.531
   63POPC   C4B 1069   0.756   4.480   6.168
   64POPC   NC3 1070   3.989   0.641   8.280
   64POPC   PO4 1071   3.971   0.007   8.164
   64POPC   GL1 1072   3.925   0.281   7.817
   64POPC   GL2 1073   4.263   0.409   7.783
   64POPC   C1A 1074   3.912   0.182   7.372
   64POPC   D2A 1075   3.725   0.340   6.987
   64POPC   C3A 1076   3.843   0.250   6.551
   64POPC   C4A 1077   3.862   0.600   6.298
   64POPC   C1B 1078   4.423   0.180   7.403
   64POPC   C2B 1079   4.242   0.231   6.983
   64POPC   C3B 1080   4.195   0.579   6.698
   64POPC   C4B 1081   4.342   0.365   6.324
   65POPC   NC3 1082   4.961   9.555   8.228
   65POPC   PO4 1083   4.564   9.031   8.100
   65POPC   GL1 1084   4.900   9.305   7.776
   65POPC   GL2 1085   5.034   9.701   7.751
   65POPC   C1A 1086   5.115   9.424   7.356
   65POPC   D2A 1087   4.882   9.494   7.001
   65POPC   C3A 1088   5.126   9.459   6.675
   65POPC   C4A 1089   5.168   9.537   6.302
   65POPC   C1B 1090   4.656   9.661   7.453
   65POPC   C2B 1091   4.432   9.767   7.040
   65POPC   C3B 1092   4.506   9.615   6.621
   65POPC   C4B 1093   4.714   9.320   6.351
   66POPC   NC3 1094   2.766   5.037   8.082
   66POPC   PO4 1095   2.988   4.463   8.020
   66POPC   GL1 1096   2.804   4.724   7.677
   66POPC   GL2 1097   2.445   4.752   7.735
   66POPC   C1A 1098   2.698   5.037   7.354
   66POPC   D2A 1099   2.780   5.373   7.086
   66POPC   C3A 1100   2.841   5.113   6.715
   66POPC   C4A 1101   2.795   5.168   6.294
   66POPC   C1B 1102   2.487   4.577   7.289
   66POPC   C2B 1103   2.566   4.671   6.854
   66POPC   C3B 1104   2.682   4.670   6.427
   66POPC   C4B 1105   2.996   4.711   6.122
   67POPC   NC3 1106   8.852   8.410   8.052
   67POPC   PO4 1107   9.044   9.057   8.117
   67POPC   GL1 1108   8.973   8.794   7.706
   67POPC   GL2 1109   8.789   8.501   7.563
   67POPC   C1A 1110   9.095   8.774   7.274
   67POPC   D2A 1111   9.050   8.384   7.052
   67POPC   C3A 1112   9.080   8.484   6.627
   67POPC   C4A 1113   8.997   8.368   6.222
   67POPC   C1B 1114   8.526   8.645   7.256
   67POPC   C2B 1115   8.584   8.554   6.842
   67POPC   C3B 1116   8.632   8.690   6.407
   67POPC   C4B 1117   8.505   8.442   6.030
   68POPC   NC3 1118   5.257   0.483   7.932
   68POPC   PO4 1119   4.966  10.441   8.153
   68POPC   GL1 1120   4.786   0.220   7.799
   68POPC   GL2 1121   4.747   0.598   7.799
   68POPC   C1A 1122   4.925   0.304   7.358
   68POPC   D2A 1123   5.146   0.469   7.013
   68POPC   C3A 1124   5.061   0.413   6.633
   68POPC   C4A 1125   5.074   0.366   6.219
   68POPC   C1B 1126   4.571   0.677   7.382
   68POPC   C2B 1127   4.648   0.542   6.956
   68POPC   C3B 1128   4.660   0.712   6.546
   68POPC   C4B 1129   4.711   0.686   6.118
   69POPC   NC3 1130   9.353   5.477   7.954
   69POPC   PO4 1131   9.768   5.982   8.201
   69POPC   GL1 1132   9.717   5.814   7.802
   69POPC   GL2 1133   9.391   5.876   7.623
   69POPC   C1A 1134   9.837   5.918   7.398
   69POPC   D2A 1135   9.542   6.059   7.116
   69POPC   C3A 1136   9.612   5.993   6.688
   69POPC   C4A 1137   9.462   5.924   6.291
   69POPC   C1B 1138   9.425   5.564   7.274
   69POPC   C2B 1139   9.218   5.357   6.920
   69POPC   C3B 1140   9.196   5.521   6.520
   69POPC   C4B 1141   9.197   5.356   6.141
   70POPC   NC3 1142   4.317   2.775   7.889
   70POPC   PO4 1143   3.871   2.350   8.048
   70POPC   GL1 1144   3.925   2.557   7.626
   70POPC   GL2 1145   3.785   2.890   7.538
   70POPC   C1A 1146   4.254   2.482   7.281
   70POPC   D2A 1147   4.467   2.699   6.927
   70POPC   C3A 1148   4.255   2.817   6.509
   70POPC   C4A 1149   4.207   2.639   6.091
   70POPC   C1B 1150   3.805   2.672   7.135
   70POPC   C2B 1151   3.749   2.753   6.670
   70POPC   C3B 1152   3.727   2.749   6.220
   70POPC   C4B 1153   3.847   2.928   5.820
   71POPC   NC3 1154   6.967   6.906   8.489
   71POPC   PO4 1155   7.486   6.829   8.116
   71POPC   GL1 1156   7.550   6.710   7.721
   71POPC   GL2 1157   7.410   6.402   7.696
   71POPC   C1A 1158   7.360   6.823   7.336
   71POPC   D2A 1159   7.132   6.783   6.961
   71POPC   C3A 1160   7.319   6.813   6.552
   71POPC   C4A 1161   7.132   6.559   6.230
   71POPC   C1B 1162   7.201   6.344   7.263
   71POPC   C2B 1163   7.133   6.282   6.815
   71POPC   C3B 1164   7.021   6.098   6.428
   71POPC   C4B 1165   7.291   6.081   6.072
   72POPC   NC3 1166   1.105   5.698   8.079
   72POPC   PO4 1167   1.515   6.189   8.043
   72POPC   GL1 1168   1.582   5.864   7.738
   72POPC   GL2 1169   1.386   5.531   7.697
   72POPC   C1A 1170   1.486   5.826   7.317
   72POPC   D2A 1171   1.451   5.589   6.983
   72POPC   C3A 1172   1.487   5.879   6.605
   72POPC   C4A 1173   1.356   5.770   6.188
   72POPC   C1B 1174   1.036   5.562   7.371
   72POPC   C2B 1175   1.015   5.351   6.959
   72POPC   C3B 1176   1.109   5.524   6.568
   72POPC   C4B 1177   0.949   5.417   6.158
   73POPC   NC3 1178   3.603  10.225   8.171
   73POPC   PO4 1179   3.098   9.876   7.889
   73POPC   GL1 1180   3.455  10.007   7.650
   73POPC   GL2 1181   3.594  10.356   7.674
   73POPC   C1A 1182   3.400   9.942   7.211
   73POPC   D2A 1183   3.421   9.660   6.876
   73POPC   C3A 1184   3.432   9.935   6.595
   73POPC   C4A 1185   3.241  10.157   6.293
   73POPC   C1B 1186   3.485  10.441   7.246
   73POPC   C2B 1187   3.624  10.368   6.819
   73POPC   C3B 1188   3.769  10.277   6.383
   73POPC   C4B 1189   3.685   9.927   6.151
   74POPC   NC3 1190   0.184   8.406   7.938
   74POPC   PO4 1191   0.789   8.736   8.108
   74POPC   GL1 1192   0.670   8.480   7.764
   74POPC   GL2 1193   0.524   8.776   7.631
   74POPC   C1A 1194   0.831   8.469   7.356
   74POPC   D2A 1195   0.654   8.715   7.012
   74POPC   C3A 1196   0.764   8.595   6.604
   74POPC   C4A 1197   0.651   8.598   6.196
   74POPC   C1B 1198   0.226   8.878   7.305
   74POPC   C2B 1199   0.177   8.836   6.871
   74POPC   C3B 1200   0.236   8.587   6.520
   74POPC   C4B 1201   0.077   8.532   6.142
   75POPC   NC3 1202   1.090   6.422   8.021
   75POPC   PO4 1203   0.964   6.998   8.250
   75POPC   GL1 1204   1.178   6.877   7.791
   75POPC   GL2 1205   0.995   6.628   7.566
   75POPC   C1A 1206   1.427   6.720   7.351
   75POPC   D2A 1207   1.185   6.538   6.964
   75POPC   C3A 1208   1.399   6.540   6.528
   75POPC   C4A 1209   1.308   6.472   6.088
   75POPC   C1B 1210   1.091   6.200   7.384
   75POPC   C2B 1211   1.109   5.974   6.993
   75POPC   C3B 1212   1.050   6.149   6.585
   75POPC   C4B 1213   0.962   6.105   6.168
   76POPC   NC3 1214   0.085   4.179   7.910
   76POPC   PO4 1215  10.103   4.502   8.228
   76POPC   GL1 1216  10.086   4.313   7.791
   76POPC   GL2 1217  10.129   3.948   7.716
   76POPC   C1A 1218   9.932   4.264   7.343
   76POPC   D2A 1219  10.112   4.314   6.936
   76POPC   C3A 1220   9.888   4.411   6.577
   76POPC   C4A 1221  10.075   4.446   6.191
   76POPC   C1B 1222  10.379   4.021   7.319
   76POPC   C2B 1223   0.018   3.996   6.896
   76POPC   C3B 1224  10.341   4.096   6.476
   76POPC   C4B 1225  10.429   4.015   6.024
   77POPC   NC3 1226   1.898   5.900   8.156
   77POPC   PO4 1227   1.521   5.368   8.164
   77POPC   GL1 1228   1.873   5.451   7.826
   77POPC   GL2 1229   2.135   5.694   7.765
   77POPC   C1A 1230   1.804   5.386   7.387
   77POPC   D2A 1231   1.913   5.336   6.957
   77POPC   C3A 1232   1.684   5.407   6.580
   77POPC   C4A 1233   1.846   5.457   6.179
   77POPC   C1B 1234   2.002   5.866   7.378
   77POPC   C2B 1235   1.852   5.891   6.962
   77POPC   C3B 1236   2.011   5.806   6.553
   77POPC   C4B 1237   2.227   6.029   6.261
   78POPC   NC3 1238   8.458   3.380   7.901
   78POPC   PO4 1239   9.069   3.021   7.975
   78POPC   GL1 1240   8.902   3.355   7.688
   78POPC   GL2 1241   8.881   3.740   7.719
   78POPC   C1A 1242   8.684   3.503   7.293
   78POPC   D2A 1243   8.543   3.283   6.935
   78POPC   C3A 1244   8.717   3.362   6.502
   78POPC   C4A 1245   8.486   3.294   6.103
   78POPC   C1B 1246   9.061   3.920   7.338
   78POPC   C2B 1247   8.869   3.982   6.939
   78POPC   C3B 1248   8.945   3.875   6.509
   78POPC   C4B 1249   8.948   3.638   6.134
   79POPC   NC3 1250   9.774   4.094   8.552
   79POPC   PO4 1251   9.227   4.395   8.210
   79POPC   GL1 1252   9.321   4.138   7.805
   79POPC   GL2 1253   9.627   4.081   7.703
   79POPC   C1A 1254   9.399   4.340   7.357
   79POPC   D2A 1255   9.249   4.313   6.937
   79POPC   C3A 1256   9.384   4.495   6.554
   79POPC   C4A 1257   9.237   4.253   6.202
   79POPC   C1B 1258   9.601   3.865   7.333
   79POPC   C2B 1259   9.672   4.025   6.942
   79POPC   C3B 1260   9.481   3.973   6.560
   79POPC   C4B 1261   9.793   4.017   6.249
   80POPC   NC3 1262   6.266   6.660   7.820
   80POPC   PO4 1263   6.675   7.112   8.159
   80POPC   GL1 1264   6.643   7.128   7.691
   80POPC   GL2 1265   6.362   7.338   7.636
   80POPC   C1A 1266   6.673   6.921   7.251
   80POPC   D2A 1267   6.690   6.936   6.773
   80POPC   C3A 1268   6.630   6.626   6.421
   80POPC   C4A 1269   6.333   6.662   6.052
   80POPC   C1B 1270   6.602   7.448   7.267
   80POPC   C2B 1271   6.451   7.368   6.872
   80POPC   C3B 1272   6.337   7.168   6.489
   80POPC   C4B 1273   6.045   7.327   6.211
   81POPC   NC3 1274   0.656   1.121   8.309
   81POPC   PO4 1275   0.004   0.800   8.172
   81POPC   GL1 1276   0.099   0.925   7.736
   81POPC   GL2 1277   0.457   1.083   7.750
   81POPC   C1A 1278   0.095   0.956   7.275
   81POPC   D2A 1279   0.444   1.004   6.983
   81POPC   C3A 1280   0.419   1.100   6.559
   81POPC   C4A 1281   0.404   0.900   6.155
   81POPC   C1B 1282   0.288   1.381   7.421
   81POPC   C2B 1283   0.211   1.482   6.944
   81POPC   C3B 1284   0.314   1.568   6.454
   81POPC   C4B 1285   0.555   1.357   6.111
   82POPC   NC3 1286   9.258   6.295   8.149
   82POPC   PO4 1287   8.839   6.768   7.841
   82POPC   GL1 1288   9.026   6.370   7.698
   82POPC   GL2 1289   9.403   6.385   7.671
   82POPC   C1A 1290   9.056   6.188   7.291
   82POPC   D2A 1291   8.840   6.270   6.884
   82POPC   C3A 1292   9.125   6.275   6.513
   82POPC   C4A 1293   9.178   6.681   6.409
   82POPC   C1B 1294   9.332   6.606   7.296
   82POPC   C2B 1295   9.401   6.492   6.866
   82POPC   C3B 1296   9.632   6.459   6.462
   82POPC   C4B 1297   9.961   6.186   6.331
   83POPC   NC3 1298   9.456   0.612   7.961
   83POPC   PO4 1299   8.963   0.239   8.262
   83POPC   GL1 1300   9.135   0.258   7.777
   83POPC   GL2 1301   9.487   0.263   7.591
   83POPC   C1A 1302   9.104   0.451   7.327
   83POPC   D2A 1303   9.323   0.352   6.916
   83POPC   C3A 1304   9.133   0.459   6.518
   83POPC   C4A 1305   9.024   0.866   6.418
   83POPC   C1B 1306   9.623   0.609   7.309
   83POPC   C2B 1307   9.659   0.749   6.876
   83POPC   C3B 1308   9.624   0.671   6.439
   83POPC   C4B 1309   9.503   0.278   6.218
   84POPC   NC3 1310   7.111   7.044   7.923
   84POPC   PO4 1311   7.495   7.459   8.340
   84POPC   GL1 1312   7.378   7.435   7.813
   84POPC   GL2 1313   7.048   7.455   7.624
   84POPC   C1A 1314   7.495   7.348   7.382
   84POPC   D2A 1315   7.540   7.116   6.969
   84POPC   C3A 1316   7.602   7.309   6.579
   84POPC   C4A 1317   7.343   7.255   6.251
   84POPC   C1B 1318   7.055   7.253   7.165
   84POPC   C2B 1319   7.069   7.253   6.700
   84POPC   C3B 1320   6.892   7.045   6.311
   84POPC   C4B 1321   6.810   6.788   5.907
   85POPC   NC3 1322   7.747   1.721   8.067
   85POPC   PO4 1323   7.993   2.109   8.189
   85POPC   GL1 1324   8.032   1.888   7.696
   85POPC   GL2 1325   7.722   1.706   7.573
   85POPC   C1A 1326   8.077   1.714   7.230
   85POPC   D2A 1327   8.167   1.754   6.799
   85POPC   C3A 1328   7.991   1.603   6.408
   85POPC   C4A 1329   8.091   1.533   5.920
   85POPC   C1B 1330   7.739   2.089   7.282
   85POPC   C2B 1331   7.778   2.098   6.876
   85POPC   C3B 1332   7.924   2.119   6.492
   85POPC   C4B 1333   8.100   2.004   6.132
   86POPC   NC3 1334   7.204   9.165   8.156
   86POPC   PO4 1335   7.462   9.767   8.376
   86POPC   GL1 1336   7.419   9.499   7.862
   86POPC   GL2 1337   7.123   9.552   7.700
   86POPC   C1A 1338   7.386   9.221   7.424
   86POPC   D2A 1339   7.366   8.999   6.992
   86POPC   C3A 1340   7.345   9.196   6.607
   86POPC   C4A 1341   7.466   9.046   6.189
   86POPC   C1B 1342   6.864   9.314   7.379
   86POPC   C2B 1343   6.884   9.213   6.931
   86POPC   C3B 1344   6.908   9.440   6.506
   86POPC   C4B 1345   7.315   9.602   6.287
   87POPC   NC3 1346   6.908   1.042   8.092
   87POPC   PO4 1347   7.394   1.459   8.138
   87POPC   GL1 1348   7.237   1.273   7.747
   87POPC   GL2 1349   6.938   1.198   7.628
   87POPC   C1A 1350   7.328   1.218   7.317
   87POPC   D2A 1351   7.297   1.105   6.903
   87POPC   C3A 1352   7.128   1.369   6.574
   87POPC   C4A 1353   7.154   1.346   6.120
   87POPC   C1B 1354   6.830   0.850   7.362
   87POPC   C2B 1355   6.932   0.696   6.947
   87POPC   C3B 1356   7.113   0.807   6.534
   87POPC   C4B 1357   6.836   1.013   6.305
   88POPC   NC3 1358   2.559   0.900   8.114
   88POPC   PO4 1359   3.201   1.003   8.173
   88POPC   GL1 1360   3.108   1.259   7.767
   88POPC   GL2 1361   2.789   1.122   7.699
   88POPC   C1A 1362   3.026   1.379   7.315
   88POPC   D2A 1363   2.995   1.141   6.958
   88POPC   C3A 1364   2.848   1.251   6.557
   88POPC   C4A 1365   3.010   1.080   6.210
   88POPC   C1B 1366   2.579   1.101   7.291
   88POPC   C2B 1367   2.484   1.326   6.916
   88POPC   C3B 1368   2.315   1.187   6.520
   88POPC   C4B 1369   2.466   1.057   6.120
   89POPC   NC3 1370   0.494   9.118   8.074
   89POPC   PO4 1371   0.423   9.747   7.945
   89POPC   GL1 1372   0.657   9.408   7.693
   89POPC   GL2 1373   0.376   9.273   7.600
   89POPC   C1A 1374   0.696   9.165   7.248
   89POPC   D2A 1375   0.433   9.274   6.862
   89POPC   C3A 1376   0.499   9.030   6.486
   89POPC   C4A 1377   0.533   9.049   6.005
   89POPC   C1B 1378   0.458   9.623   7.300
   89POPC   C2B 1379   0.351   9.782   6.940
   89POPC   C3B 1380   0.480   9.770   6.552
   89POPC   C4B 1381   0.334   9.462   6.270
   90POPC   NC3 1382   5.714   9.023   8.012
   90POPC   PO4 1383   5.422   9.653   8.121
   90POPC   GL1 1384   5.505   9.454   7.730
   90POPC   GL2 1385   5.857   9.450   7.732
   90POPC   C1A 1386   5.567   9.175   7.368
   90POPC   D2A 1387   5.322   9.098   6.974
   90POPC   C3A 1388   5.531   9.125   6.579
   90POPC   C4A 1389   5.729   9.333   6.237
   90POPC   C1B 1390   5.872   9.598   7.329
   90POPC   C2B 1391   5.569   9.554   7.004
   90POPC   C3B 1392   5.620   9.661   6.606
   90POPC   C4B 1393   6.006   9.786   6.343
   91POPC   NC3 1394   3.771   2.796   8.180
   91POPC   PO4 1395   3.140   2.995   8.265
   91POPC   GL1 1396   3.382   2.977   7.867
   91POPC   GL2 1397   3.442   2.622   7.821
   91POPC   C1A 1398   3.241   3.008   7.424
   91POPC   D2A 1399   3.039   2.844   7.056
   91POPC   C3A 1400   3.221   2.873   6.643
   91POPC   C4A 1401   3.290   3.021   6.253
   91POPC   C1B 1402   3.387   2.507   7.398
   91POPC   C2B 1403   3.379   2.480   6.952
   91POPC   C3B 1404   3.404   2.412   6.519
   91POPC   C4B 1405   3.298   2.483   6.124
   92POPC   NC3 1406   1.846   8.191   8.118
   92POPC   PO4 1407   1.793   7.558   8.270
   92POPC   GL1 1408   1.595   7.772   7.846
   92POPC   GL2 1409   1.643   8.089   7.641
   92POPC   C1A 1410   1.676   7.640   7.375
   92POPC   D2A 1411   1.681   7.916   7.010
   92POPC   C3A 1412   1.668   7.811   6.556
   92POPC   C4A 1413   1.685   8.198   6.284
   92POPC   C1B 1414   2.047   7.974   7.405
   92POPC   C2B 1415   2.160   7.793   6.981
   92POPC   C3B 1416   2.107   8.054   6.623
   92POPC   C4B 1417   2.092   7.849   6.239
   93POPC   NC3 1418   7.740   7.701   7.999
   93POPC   PO4 1419   8.184   8.164   8.171
   93POPC   GL1 1420   8.049   7.998   7.742
   93POPC   GL2 1421   7.724   8.127   7.684
   93POPC   C1A 1422   8.129   7.876   7.301
   93POPC   D2A 1423   8.172   8.130   6.910
   93POPC   C3A 1424   8.153   7.989   6.494
   93POPC   C4A 1425   8.081   8.200   6.164
   93POPC   C1B 1426   7.633   7.853   7.340
   93POPC   C2B 1427   7.691   8.001   6.945
   93POPC   C3B 1428   7.659   7.875   6.538
   93POPC   C4B 1429   7.551   8.106   6.194
   94POPC   NC3 1430   0.567   7.572   7.906
   94POPC   PO4 1431   0.459   6.967   7.886
   94POPC   GL1 1432   0.579   6.901   7.533
   94POPC   GL2 1433   0.617   7.254   7.483
   94POPC   C1A 1434   0.739   6.865   7.147
   94POPC   D2A 1435   0.496   7.143   6.969
   94POPC   C3A 1436   0.495   7.027   6.590
   94POPC   C4A 1437   0.719   7.155   6.244
   94POPC   C1B 1438   0.163   7.192   7.366
   94POPC   C2B 1439  10.463   7.358   7.027
   94POPC   C3B 1440   0.223   7.465   6.667
   94POPC   C4B 1441   0.217   7.303   6.262
   95POPC   NC3 1442   2.222   7.461   8.120
   95POPC   PO4 1443   1.635   7.011   7.995
   95POPC   GL1 1444   1.787   7.081   7.608
   95POPC   GL2 1445   1.899   7.386   7.739
   95POPC   C1A 1446   1.673   7.163   7.184
   95POPC   D2A 1447   1.623   6.878   6.862
   95POPC   C3A 1448   1.604   7.032   6.470
   95POPC   C4A 1449   1.679   6.824   6.107
   95POPC   C1B 1450   2.192   7.461   7.420
   95POPC   C2B 1451   2.217   7.162   7.104
   95POPC   C3B 1452   2.004   7.243   6.729
   95POPC   C4B 1453   2.005   7.326   6.278
   96POPC   NC3 1454   4.253   3.512   8.033
   96POPC   PO4 1455   4.675   3.971   7.816
   96POPC   GL1 1456   4.454   3.612   7.562
   96POPC   GL2 1457   4.395   3.247   7.625
   96POPC   C1A 1458   4.351   3.461   7.126
   96POPC   D2A 1459   4.531   3.186   6.801
   96POPC   C3A 1460   4.408   3.338   6.391
   96POPC   C4A 1461   4.187   3.727   6.259
   96POPC   C1B 1462   4.242   2.994   7.297
   96POPC   C2B 1463   4.071   3.042   6.935
   96POPC   C3B 1464   3.982   3.337   6.674
   96POPC   C4B 1465   3.899   3.257   6.242
   97POPC   NC3 1466   5.083   2.889   8.181
   97POPC   PO4 1467   4.528   3.100   8.121
   97POPC   GL1 1468   4.788   2.924   7.736
   97POPC   GL2 1469   5.141   2.798   7.673
   97POPC   C1A 1470   4.778   2.928   7.268
   97POPC   D2A 1471   4.995   2.888   6.848
   97POPC   C3A 1472   4.769   2.748   6.522
   97POPC   C4A 1473   4.672   2.831   6.123
   97POPC   C1B 1474   5.224   2.647   7.240
   97POPC   C2B 1475   5.153   2.373   6.849
   97POPC   C3B 1476   5.255   2.503   6.439
   97POPC   C4B 1477   5.206   2.938   6.343
   98POPC   NC3 1478   1.755   6.580   8.053
   98POPC   PO4 1479   2.278   6.179   8.087
   98POPC   GL1 1480   1.992   6.225   7.752
   98POPC   GL2 1481   2.046   6.580   7.649
   98POPC   C1A 1482   1.713   6.280   7.389
   98POPC   D2A 1483   1.671   6.379   6.954
   98POPC   C3A 1484   1.886   6.331   6.558
   98POPC   C4A 1485   1.718   6.174   6.190
   98POPC   C1B 1486   1.956   6.718   7.245
   98POPC   C2B 1487   2.105   6.728   6.837
   98POPC   C3B 1488   2.098   6.823   6.422
   98POPC   C4B 1489   2.101   6.533   6.084
   99POPC   NC3 1490   1.308   2.913   7.923
   99POPC   PO4 1491   0.978   2.215   8.002
   99POPC   GL1 1492   0.992   2.490   7.660
   99POPC   GL2 1493   0.891   2.849   7.646
   99POPC   C1A 1494   0.958   2.316   7.277
   99POPC   D2A 1495   1.135   2.305   6.886
   99POPC   C3A 1496   0.973   2.408   6.475
   99POPC   C4A 1497   1.100   2.522   6.018
   99POPC   C1B 1498   1.132   2.782   7.249
   99POPC   C2B 1499   1.073   2.808   6.803
   99POPC   C3B 1500   1.235   2.858   6.429
   99POPC   C4B 1501   0.873   2.924   6.222
  100POPC   NC3 1502   7.945  10.256   8.032
  100POPC   PO4 1503   8.284   9.690   7.977
  100POPC   GL1 1504   7.995   9.920   7.646
  100POPC   GL2 1505   7.743  10.290   7.567
  100POPC   C1A 1506   8.073  10.097   7.267
  100POPC   D2A 1507   8.038  10.001   6.866
  100POPC   C3A 1508   8.168  10.218   6.510
  100POPC   C4A 1509   7.915  10.294   6.148
  100POPC   C1B 1510   7.566  10.029   7.219
  100POPC   C2B 1511   7.542   9.991   6.773
  100POPC   C3B 1512   7.754   9.904   6.427
  100POPC   C4B 1513   7.677   9.861   6.003
  101POPC   NC3 1514   2.004   1.352   8.083
  101POPC   PO4 1515   1.944   2.030   8.186
  101POPC   GL1 1516   1.779   1.931   7.773
  101POPC   GL2 1517   1.971   2.216   7.686
  101POPC   C1A 1518   1.697   1.745   7.324
  101POPC   D2A 1519   2.000   1.761   6.940
  101POPC   C3A 1520   2.107   1.715   6.487
  101POPC   C4A 1521   1.815   1.675   6.102
  101POPC   C1B 1522   1.993   2.156   7.280
  101POPC   C2B 1523   1.932   2.374   6.940
  101POPC   C3B 1524   1.980   2.389   6.532
  101POPC   C4B 1525   1.889   2.127   6.271
  102POPC   NC3 1526   0.605   3.505   8.143
  102POPC   PO4 1527  10.477   3.355   7.931
  102POPC   GL1 1528   0.109   3.694   7.666
  102POPC   GL2 1529   0.447   3.600   7.671
  102POPC   C1A 1530   0.194   3.610   7.212
  102POPC   D2A 1531   0.210   3.226   6.960
  102POPC   C3A 1532   0.126   3.323   6.522
  102POPC   C4A 1533   0.224   3.662   6.278
  102POPC   C1B 1534   0.706   3.636   7.324
  102POPC   C2B 1535   0.651   3.515   6.896
  102POPC   C3B 1536   0.700   3.681   6.502
  102POPC   C4B 1537   0.654   3.382   6.220
  103POPC   NC3 1538   0.380  10.159   8.147
  103POPC   PO4 1539   1.110  10.222   8.139
  103POPC   GL1 1540   0.865  10.262   7.685
  103POPC   GL2 1541   0.518  10.199   7.664
  103POPC   C1A 1542   0.773  10.060   7.248
  103POPC   D2A 1543   0.530  10.248   6.909
  103POPC   C3A 1544   0.710  10.342   6.518
  103POPC   C4A 1545   0.650  10.090   6.184
  103POPC   C1B 1546   0.209  10.075   7.380
  103POPC   C2B 1547  10.479  10.118   7.018
  103POPC   C3B 1548   0.081  10.104   6.625
  103POPC   C4B 1549   0.131   9.952   6.227
  104POPC   NC3 1550   7.703   1.201   7.913
  104POPC   PO4 1551   8.234   0.920   8.201
  104POPC   GL1 1552   8.185   0.983   7.722
  104POPC   GL2 1553   7.988   1.269   7.502
  104POPC   C1A 1554   8.268   0.949   7.270
  104POPC   D2A 1555   8.171   1.245   6.911
  104POPC   C3A 1556   8.135   1.133   6.477
  104POPC   C4A 1557   7.999   1.052   6.065
  104POPC   C1B 1558   7.774   0.992   7.188
  104POPC   C2B 1559   7.748   0.934   6.742
  104POPC   C3B 1560   7.611   1.249   6.436
  104POPC   C4B 1561   7.617   1.518   6.077
  105POPC   NC3 1562   6.851   9.981   7.931
  105POPC   PO4 1563   6.219   9.592   8.045
  105POPC   GL1 1564   6.198   9.900   7.717
  105POPC   GL2 1565   6.440  10.186   7.705
  105POPC   C1A 1566   6.082  10.066   7.312
  105POPC   D2A 1567   6.128   9.903   6.895
  105POPC   C3A 1568   6.150  10.236   6.603
  105POPC   C4A 1569   6.307  10.242   6.214
  105POPC   C1B 1570   6.734  10.259   7.346
  105POPC   C2B 1571   6.716  10.060   6.946
  105POPC   C3B 1572   6.687  10.283   6.593
  105POPC   C4B 1573   6.728   0.032   6.244
  106POPC   NC3 1574   4.833   1.926   8.002
  106POPC   PO4 1575   5.131   2.440   8.116
  106POPC   GL1 1576   4.917   2.336   7.677
  106POPC   GL2 1577   4.918   1.999   7.519
  106POPC   C1A 1578   4.778   2.390   7.229
  106POPC   D2A 1579   4.609   2.216   6.848
  106POPC   C3A 1580   4.813   2.250   6.456
  106POPC   C4A 1581   4.639   2.328   6.044
  106POPC   C1B 1582   4.854   1.853   7.131
  106POPC   C2B 1583   4.937   1.822   6.724
  106POPC   C3B 1584   4.994   1.752   6.336
  106POPC   C4B 1585   5.071   2.049   6.069
  107POPC   NC3 1586  10.230   8.517   8.245
  107POPC   PO4 1587   9.790   9.022   8.074
  107POPC   GL1 1588  10.015   8.814   7.716
  107POPC   GL2 1589  10.157   8.474   7.724
  107POPC   C1A 1590  10.211   8.761   7.309
  107POPC   D2A 1591  10.004   8.816   6.939
  107POPC   C3A 1592  10.244   8.739   6.606
  107POPC   C4A 1593  10.083   8.732   6.222
  107POPC   C1B 1594  10.339   8.282   7.351
  107POPC   C2B 1595  10.432   8.405   6.937
  107POPC   C3B 1596  10.323   8.252   6.526
  107POPC   C4B 1597  10.176   8.221   6.130
  108POPC   NC3 1598   2.011   9.883   8.027
  108POPC   PO4 1599   1.551   9.365   8.259
  108POPC   GL1 1600   1.764   9.446   7.801
  108POPC   GL2 1601   1.997   9.160   7.684
  108POPC   C1A 1602   1.968   9.496   7.330
  108POPC   D2A 1603   1.760   9.532   6.931
  108POPC   C3A 1604   1.908   9.595   6.500
  108POPC   C4A 1605   1.642   9.594   6.149
  108POPC   C1B 1606   2.124   8.982   7.320
  108POPC   C2B 1607   2.107   9.130   6.926
  108POPC   C3B 1608   1.876   9.106   6.582
  108POPC   C4B 1609   1.952   9.180   6.173
  109POPC   NC3 1610   0.876   9.836   7.950
  109POPC   PO4 1611   1.562   9.971   8.021
  109POPC   GL1 1612   1.296   9.959   7.695
  109POPC   GL2 1613   1.356  10.266   7.626
  109POPC   C1A 1614   1.289   9.961   7.246
  109POPC   D2A 1615   1.300   9.777   6.879
  109POPC   C3A 1616   0.998   9.930   6.617
  109POPC   C4A 1617   1.152   9.819   6.251
  109POPC   C1B 1618   1.140  10.452   7.286
  109POPC   C2B 1619   1.058  10.393   6.878
  109POPC   C3B 1620   1.234  10.359   6.459
  109POPC   C4B 1621   1.069  10.483   6.052
  110POPC   NC3 1622   7.823   9.648   8.109
  110POPC   PO4 1623   8.117   9.067   8.342
  110POPC   GL1 1624   7.959   9.168   7.904
  110POPC   GL2 1625   8.264   9.242   7.730
  110POPC   C1A 1626   7.854   9.405   7.477
  110POPC   D2A 1627   7.639   9.546   7.083
  110POPC   C3A 1628   7.778   9.462   6.667
  110POPC   C4A 1629   7.809   9.418   6.240
  110POPC   C1B 1630   8.332   9.556   7.362
  110POPC   C2B 1631   8.189   9.523   6.962
  110POPC   C3B 1632   8.308   9.694   6.557
  110POPC   C4B 1633   8.188   9.822   6.153
  111POPC   NC3 1634   9.312   7.885   7.998
  111POPC   PO4 1635   9.951   8.181   8.073
  111POPC   GL1 1636   9.672   8.109   7.705
  111POPC   GL2 1637   9.695   7.719   7.703
  111POPC   C1A 1638   9.453   8.082   7.259
  111POPC   D2A 1639   9.576   7.932   6.878
  111POPC   C3A 1640   9.408   8.107   6.514
  111POPC   C4A 1641   9.263   7.942   6.120
  111POPC   C1B 1642   9.459   7.563   7.342
  111POPC   C2B 1643   9.348   7.427   6.936
  111POPC   C3B 1644   9.426   7.577   6.537
  111POPC   C4B 1645   9.554   7.460   6.175
  112POPC   NC3 1646   8.677   1.068   8.096
  112POPC   PO4 1647   8.103   1.440   7.963
  112POPC   GL1 1648   8.455   1.423   7.708
  112POPC   GL2 1649   8.822   1.462   7.748
  112POPC   C1A 1650   8.482   1.424   7.276
  112POPC   D2A 1651   8.643   1.544   6.875
  112POPC   C3A 1652   8.498   1.505   6.454
  112POPC   C4A 1653   8.574   1.512   6.012
  112POPC   C1B 1654   8.781   1.069   7.466
  112POPC   C2B 1655   8.705   1.028   7.033
  112POPC   C3B 1656   8.599   1.027   6.642
  112POPC   C4B 1657   8.570   1.028   6.213
  113POPC   NC3 1658   5.289   0.160   8.402
  113POPC   PO4 1659   5.612   0.718   8.136
  113POPC   GL1 1660   5.665   0.647   7.689
  113POPC   GL2 1661   5.843   0.335   7.726
  113POPC   C1A 1662   5.540   0.459   7.297
  113POPC   D2A 1663   5.632   0.639   6.864
  113POPC   C3A 1664   5.513   0.535   6.415
  113POPC   C4A 1665   5.450   0.734   6.000
  113POPC   C1B 1666   6.022   0.526   7.336
  113POPC   C2B 1667   6.010   0.288   6.983
  113POPC   C3B 1668   5.944   0.337   6.586
  113POPC   C4B 1669   5.989   0.699   6.306
  114POPC   NC3 1670   2.074   3.505   8.172
  114POPC   PO4 1671   2.406   2.913   8.268
  114POPC   GL1 1672   2.258   3.156   7.839
  114POPC   GL2 1673   1.970   3.406   7.701
  114POPC   C1A 1674   2.186   3.100   7.372
  114POPC   D2A 1675   2.014   2.918   6.990
  114POPC   C3A 1676   2.191   3.058   6.616
  114POPC   C4A 1677   2.169   3.421   6.359
  114POPC   C1B 1678   1.735   3.388   7.304
  114POPC   C2B 1679   1.609   3.620   6.914
  114POPC   C3B 1680   1.577   3.385   6.543
  114POPC   C4B 1681   1.704   3.179   6.190
  115POPC   NC3 1682   7.950   2.592   8.161
  115POPC   PO4 1683   7.549   2.089   7.881
  115POPC   GL1 1684   7.893   2.397   7.685
  115POPC   GL2 1685   7.921   2.800   7.698
  115POPC   C1A 1686   7.991   2.558   7.262
  115POPC   D2A 1687   7.763   2.645   6.933
  115POPC   C3A 1688   8.007   2.607   6.608
  115POPC   C4A 1689   7.794   2.549   6.228
  115POPC   C1B 1690   8.196   3.010   7.386
  115POPC   C2B 1691   8.078   3.049   6.981
  115POPC   C3B 1692   7.844   3.081   6.635
  115POPC   C4B 1693   8.063   2.982   6.250
  116POPC   NC3 1694   2.915   9.467   8.125
  116POPC   PO4 1695   2.242   9.489   7.992
  116POPC   GL1 1696   2.490   9.330   7.662
  116POPC   GL2 1697   2.756   9.552   7.654
  116POPC   C1A 1698   2.478   9.408   7.221
  116POPC   D2A 1699   2.304   9.622   6.865
  116POPC   C3A 1700   2.338   9.342   6.511
  116POPC   C4A 1701   2.440   9.272   6.073
  116POPC   C1B 1702   2.714   9.852   7.332
  116POPC   C2B 1703   2.912   9.808   6.966
  116POPC   C3B 1704   2.779   9.581   6.654
  116POPC   C4B 1705   2.814   9.584   6.258
  117POPC   NC3 1706   9.445   2.729   7.927
  117POPC   PO4 1707   9.505   2.175   8.283
  117POPC   GL1 1708   9.485   2.213   7.778
  117POPC   GL2 1709   9.245   2.441   7.553
  117POPC   C1A 1710   9.629   2.264   7.302
  117POPC   D2A 1711   9.403   2.347   6.932
  117POPC   C3A 1712   9.515   2.582   6.576
  117POPC   C4A 1713   9.293   2.649   6.187
  117POPC   C1B 1714   9.478   2.769   7.272
  117POPC   C2B 1715   9.296   3.030   6.974
  117POPC   C3B 1716   9.166   2.971   6.583
  117POPC   C4B 1717   9.580   3.081   6.413
  118POPC   NC3 1718   5.643   8.247   7.960
  118POPC   PO4 1719   6.122   8.779   8.073
  118POPC   GL1 1720   5.988   8.570   7.719
  118POPC   GL2 1721   5.683   8.685   7.613
  118POPC   C1A 1722   6.061   8.786   7.311
  118POPC   D2A 1723   5.833   8.950   6.969
  118POPC   C3A 1724   5.897   8.741   6.569
  118POPC   C4A 1725   6.005   8.886   6.177
  118POPC   C1B 1726   5.464   8.695   7.252
  118POPC   C2B 1727   5.473   8.586   6.824
  118POPC   C3B 1728   5.378   8.628   6.400
  118POPC   C4B 1729   5.665   8.500   6.105
  119POPC   NC3 1730   1.158   9.025   8.191
  119POPC   PO4 1731   1.467   8.473   8.097
  119POPC   GL1 1732   1.368   8.526   7.686
  119POPC   GL2 1733   1.123   8.724   7.732
  119POPC   C1A 1734   1.353   8.373   7.266
  119POPC   D2A 1735   1.519   8.357   6.848
  119POPC   C3A 1736   1.252   8.342   6.523
  119POPC   C4A 1737   1.229   8.587   6.200
  119POPC   C1B 1738   1.124   8.866   7.328
  119POPC   C2B 1739   1.152   8.720   6.949
  119POPC   C3B 1740   1.035   9.004   6.690
  119POPC   C4B 1741   0.957   8.998   6.285
  120POPC   NC3 1742   2.816  10.333   8.423
  120POPC   PO4 1743   2.646   0.413   8.180
  120POPC   GL1 1744   2.775   0.554   7.772
  120POPC   GL2 1745   3.108   0.715   7.753
  120POPC   C1A 1746   2.596   0.390   7.370
  120POPC   D2A 1747   2.687   0.114   7.016
  120POPC   C3A 1748   2.794   0.309   6.644
  120POPC   C4A 1749   2.791   0.205   6.231
  120POPC   C1B 1750   2.962   0.761   7.328
  120POPC   C2B 1751   2.710   0.722   6.951
  120POPC   C3B 1752   2.674   0.776   6.505
  120POPC   C4B 1753   2.370   0.519   6.332
  121POPC   NC3 1754   4.240   7.984   8.370
  121POPC   PO4 1755   4.376   7.417   8.074
  121POPC   GL1 1756   4.251   7.356   7.663
  121POPC   GL2 1757   4.051   7.063   7.626
  121POPC   C1A 1758   4.276   7.285   7.215
  121POPC   D2A 1759   4.466   7.431   6.833
  121POPC   C3A 1760   4.351   7.225   6.446
  121POPC   C4A 1761   4.592   6.910   6.205
  121POPC   C1B 1762   3.973   6.828   7.241
  121POPC   C2B 1763   4.087   6.987   6.833
  121POPC   C3B 1764   3.987   6.848   6.398
  121POPC   C4B 1765   4.148   7.026   6.006
  122POPC   NC3 1766   7.987   3.355   8.287
  122POPC   PO4 1767   8.481   3.829   8.015
  122POPC   GL1 1768   8.166   3.725   7.683
  122POPC   GL2 1769   7.940   3.375   7.747
  122POPC   C1A 1770   8.146   3.509   7.296
  122POPC   D2A 1771   7.953   3.523   6.911
  122POPC   C3A 1772   8.211   3.439   6.587
  122POPC   C4A 1773   8.048   3.481   6.231
  122POPC   C1B 1774   7.717   3.187   7.353
  122POPC   C2B 1775   7.450   3.336   6.987
  122POPC   C3B 1776   7.543   3.491   6.567
  122POPC   C4B 1777   7.620   3.223   6.206
  123POPC   NC3 1778   2.585   8.432   8.458
  123POPC   PO4 1779   2.303   7.964   8.012
  123POPC   GL1 1780   2.564   7.805   7.709
  123POPC   GL2 1781   2.887   7.872   7.857
  123POPC   C1A 1782   2.545   7.882   7.281
  123POPC   D2A 1783   2.561   8.128   6.930
  123POPC   C3A 1784   2.585   7.899   6.576
  123POPC   C4A 1785   2.589   8.040   6.183
  123POPC   C1B 1786   3.009   7.783   7.414
  123POPC   C2B 1787   2.964   7.766   6.956
  123POPC   C3B 1788   2.941   7.551   6.536
  123POPC   C4B 1789   2.984   7.707   6.128
  124POPC   NC3 1790   2.520   8.379   7.888
  124POPC   PO4 1791   3.005   8.268   8.367
  124POPC   GL1 1792   3.034   8.359   7.840
  124POPC   GL2 1793   2.970   8.687   7.659
  124POPC   C1A 1794   2.890   8.281   7.356
  124POPC   D2A 1795   2.736   8.602   7.017
  124POPC   C3A 1796   2.698   8.484   6.540
  124POPC   C4A 1797   2.991   8.440   6.175
  124POPC   C1B 1798   2.854   9.014   7.318
  124POPC   C2B 1799   2.631   9.078   6.868
  124POPC   C3B 1800   2.767   9.100   6.440
  124POPC   C4B 1801   2.693   8.846   6.103
  125POPC   NC3 1802   7.762   6.432   8.112
  125POPC   PO4 1803   8.257   6.823   8.229
  125POPC   GL1 1804   8.087   6.709   7.784
  125POPC   GL2 1805   8.004   6.344   7.695
  125POPC   C1A 1806   8.206   6.589   7.319
  125POPC   D2A 1807   8.107   6.358   6.938
  125POPC   C3A 1808   8.020   6.501   6.516
  125POPC   C4A 1809   8.259   6.695   6.180
  125POPC   C1B 1810   7.730   6.432   7.314
  125POPC   C2B 1811   7.591   6.520   6.905
  125POPC   C3B 1812   7.531   6.334   6.491
  125POPC   C4B 1813   7.641   6.478   6.079
  126POPC   NC3 1814   2.588   5.856   7.950
  126POPC   PO4 1815   2.347   5.228   8.082
  126POPC   GL1 1816   2.414   5.275   7.688
  126POPC   GL2 1817   2.706   5.488   7.616
  126POPC   C1A 1818   2.309   5.471   7.313
  126POPC   D2A 1819   2.316   5.695   6.964
  126POPC   C3A 1820   2.549   5.544   6.650
  126POPC   C4A 1821   2.421   5.538   6.260
  126POPC   C1B 1822   2.670   5.860   7.298
  126POPC   C2B 1823   2.686   6.040   6.861
  126POPC   C3B 1824   2.718   5.972   6.420
  126POPC   C4B 1825   2.942   5.652   6.211
  127POPC   NC3 1826   9.362   9.408   8.135
  127POPC   PO4 1827   9.927   9.790   8.019
  127POPC   GL1 1828   9.776   9.636   7.621
  127POPC   GL2 1829   9.492   9.416   7.649
  127POPC   C1A 1830   9.705   9.470   7.197
  127POPC   D2A 1831   9.840   9.318   6.812
  127POPC   C3A 1832   9.839   9.576   6.461
  127POPC   C4A 1833   9.651   9.779   6.103
  127POPC   C1B 1834   9.231   9.295   7.284
  127POPC   C2B 1835   9.297   9.462   6.839
  127POPC   C3B 1836   9.325   9.471   6.373
  127POPC   C4B 1837   9.064   9.249   6.082
  128POPC   NC3 1838   4.634   1.304   7.922
  128POPC   PO4 1839   5.061   0.839   8.138
  128POPC   GL1 1840   5.139   0.919   7.687
  128POPC   GL2 1841   4.870   1.089   7.518
  128POPC   C1A 1842   5.280   0.918   7.234
  128POPC   D2A 1843   5.012   0.932   6.852
  128POPC   C3A 1844   5.114   0.870   6.389
  128POPC   C4A 1845   5.029   1.032   5.943
  128POPC   C1B 1846   5.141   1.417   7.293
  128POPC   C2B 1847   5.229   1.406   6.834
  128POPC   C3B 1848   4.848   1.312   6.554
  128POPC   C4B 1849   4.657   1.368   6.143
  129POPC   NC3 1850   8.804   9.822   8.028
  129POPC   PO4 1851   8.410  10.316   8.165
  129POPC   GL1 1852   8.699  10.276   7.796
  129POPC   GL2 1853   8.520  10.003   7.616
  129POPC   C1A 1854   8.960  10.192   7.393
  129POPC   D2A 1855   9.161   9.974   7.004
  129POPC   C3A 1856   9.000   9.830   6.594
  129POPC   C4A 1857   8.802  10.043   6.265
  129POPC   C1B 1858   8.548  10.025   7.156
  129POPC   C2B 1859   8.719  10.216   6.792
  129POPC   C3B 1860   8.615  10.470   6.441
  129POPC   C4B 1861   8.408  10.262   6.036
  130POPC   NC3 1862   3.440   3.432   8.110
  130POPC   PO4 1863   4.003   3.111   7.949
  130POPC   GL1 1864   3.842   3.392   7.678
  130POPC   GL2 1865   3.462   3.423   7.603
  130POPC   C1A 1866   3.814   3.352   7.244
  130POPC   D2A 1867   3.537   3.101   6.981
  130POPC   C3A 1868   3.471   3.351   6.606
  130POPC   C4A 1869   3.692   3.710   6.456
  130POPC   C1B 1870   3.302   3.515   7.174
  130POPC   C2B 1871   3.169   3.793   6.807
  130POPC   C3B 1872   3.244   3.953   6.388
  130POPC   C4B 1873   3.349   3.720   6.068
  131POPC   NC3 1874   5.273  10.102   8.017
  131POPC   PO4 1875   4.645   9.846   8.067
  131POPC   GL1 1876   4.766  10.140   7.704
  131POPC   GL2 1877   5.078  10.333   7.626
  131POPC   C1A 1878   4.888  10.045   7.231
  131POPC   D2A 1879   5.199   9.921   6.908
  131POPC   C3A 1880   5.102  10.028   6.492
  131POPC   C4A 1881   4.664  10.049   6.344
  131POPC   C1B 1882   5.231  10.415   7.222
  131POPC   C2B 1883   4.998  10.448   6.848
  131POPC   C3B 1884   4.772   0.025   6.460
  131POPC   C4B 1885   5.022  10.362   6.102
  132POPC   NC3 1886   6.452   7.611   8.068
  132POPC   PO4 1887   6.763   8.095   8.321
  132POPC   GL1 1888   6.628   8.072   7.799
  132POPC   GL2 1889   6.647   7.769   7.653
  132POPC   C1A 1890   6.711   8.014   7.239
  132POPC   D2A 1891   6.815   7.727   6.867
  132POPC   C3A 1892   6.726   7.987   6.548
  132POPC   C4A 1893   6.515   8.034   6.155
  132POPC   C1B 1894   6.271   7.816   7.378
  132POPC   C2B 1895   6.309   7.870   6.920
  132POPC   C3B 1896   6.327   7.688   6.490
  132POPC   C4B 1897   6.034   7.843   6.220
  133POPC   NC3 1898   5.370   1.130   8.311
  133POPC   PO4 1899   5.885   1.424   8.072
  133POPC   GL1 1900   5.804   1.412   7.648
  133POPC   GL2 1901   5.571   1.170   7.648
  133POPC   C1A 1902   5.657   1.484   7.236
  133POPC   D2A 1903   5.863   1.631   6.909
  133POPC   C3A 1904   5.689   1.559   6.548
  133POPC   C4A 1905   5.869   1.379   6.202
  133POPC   C1B 1906   5.786   0.987   7.286
  133POPC   C2B 1907   5.689   1.131   6.875
  133POPC   C3B 1908   5.591   1.045   6.463
  133POPC   C4B 1909   5.289   1.333   6.313
  134POPC   NC3 1910   4.688   7.745   7.947
  134POPC   PO4 1911   5.345   7.882   7.935
  134POPC   GL1 1912   5.151   7.996   7.593
  134POPC   GL2 1913   4.806   8.121   7.627
  134POPC   C1A 1914   5.223   7.750   7.229
  134POPC   D2A 1915   4.964   7.577   6.914
  134POPC   C3A 1916   5.125   7.619   6.512
  134POPC   C4A 1917   5.189   7.693   6.080
  134POPC   C1B 1918   4.774   8.007   7.182
  134POPC   C2B 1919   4.615   7.927   6.766
  134POPC   C3B 1920   4.749   7.915   6.329
  134POPC   C4B 1921   4.706   7.883   5.878
  135POPC   NC3 1922   1.047   8.286   8.052
  135POPC   PO4 1923   0.424   8.015   7.910
  135POPC   GL1 1924   0.744   7.983   7.626
  135POPC   GL2 1925   1.090   8.085   7.608
  135POPC   C1A 1926   0.743   7.999   7.222
  135POPC   D2A 1927   0.953   8.218   6.912
  135POPC   C3A 1928   0.803   8.118   6.467
  135POPC   C4A 1929   0.899   8.185   6.037
  135POPC   C1B 1930   1.241   7.858   7.282
  135POPC   C2B 1931   1.343   7.550   6.960
  135POPC   C3B 1932   1.168   7.820   6.668
  135POPC   C4B 1933   1.258   7.892   6.240
  136POPC   NC3 1934   8.666   6.548   8.204
  136POPC   PO4 1935   8.134   6.087   8.206
  136POPC   GL1 1936   8.489   6.137   7.865
  136POPC   GL2 1937   8.510   6.437   7.697
  136POPC   C1A 1938   8.557   6.077   7.369
  136POPC   D2A 1939   8.440   5.927   6.960
  136POPC   C3A 1940   8.418   6.164   6.583
  136POPC   C4A 1941   8.266   6.157   6.176
  136POPC   C1B 1942   8.698   6.589   7.264
  136POPC   C2B 1943   8.498   6.704   6.875
  136POPC   C3B 1944   8.675   6.583   6.492
  136POPC   C4B 1945   8.754   6.287   6.160
  137POPC   NC3 1946   5.624   7.531   7.958
  137POPC   PO4 1947   6.146   7.951   8.019
  137POPC   GL1 1948   5.832   7.911   7.632
  137POPC   GL2 1949   5.626   8.194   7.456
  137POPC   C1A 1950   5.782   7.777   7.174
  137POPC   D2A 1951   5.910   7.551   6.759
  137POPC   C3A 1952   5.623   7.572   6.389
  137POPC   C4A 1953   5.618   7.433   5.953
  137POPC   C1B 1954   5.243   8.255   7.172
  137POPC   C2B 1955   5.087   8.131   6.770
  137POPC   C3B 1956   5.239   8.131   6.342
  137POPC   C4B 1957   5.594   7.986   6.055
  138POPC   NC3 1958   8.397   5.660   8.082
  138POPC   PO4 1959   9.080   5.872   8.077
  138POPC   GL1 1960   8.886   5.848   7.683
  138POPC   GL2 1961   8.626   5.634   7.639
  138POPC   C1A 1962   8.937   5.704   7.250
  138POPC   D2A 1963   9.122   5.860   6.882
  138POPC   C3A 1964   8.833   5.878   6.528
  138POPC   C4A 1965   8.977   5.820   6.117
  138POPC   C1B 1966   8.469   5.499   7.258
  138POPC   C2B 1967   8.699   5.500   6.847
  138POPC   C3B 1968   8.716   5.383   6.415
  138POPC   C4B 1969   8.501   5.682   6.187
  139POPC   NC3 1970   3.817   7.972   7.951
  139POPC   PO4 1971   4.512   8.177   8.043
  139POPC   GL1 1972   4.287   7.933   7.659
  139POPC   GL2 1973   3.945   7.737   7.535
  139POPC   C1A 1974   4.308   7.796   7.205
  139POPC   D2A 1975   3.998   7.628   6.922
  139POPC   C3A 1976   4.177   7.720   6.529
  139POPC   C4A 1977   4.347   7.613   6.113
  139POPC   C1B 1978   3.819   8.020   7.207
  139POPC   C2B 1979   3.670   7.995   6.755
  139POPC   C3B 1980   3.833   8.127   6.364
  139POPC   C4B 1981   3.874   7.770   6.146
  140POPC   NC3 1982   3.288   7.907   8.321
  140POPC   PO4 1983   3.530   8.311   7.911
  140POPC   GL1 1984   3.418   8.116   7.563
  140POPC   GL2 1985   3.385   7.812   7.733
  140POPC   C1A 1986   3.325   8.115   7.122
  140POPC   D2A 1987   3.068   8.274   6.840
  140POPC   C3A 1988   3.089   8.052   6.495
  140POPC   C4A 1989   3.364   8.081   6.149
  140POPC   C1B 1990   3.479   7.675   7.306
  140POPC   C2B 1991   3.433   7.560   6.867
  140POPC   C3B 1992   3.439   7.649   6.406
  140POPC   C4B 1993   3.454   7.610   5.923
  141POPC   NC3 1994   3.471   9.660   8.056
  141POPC   PO4 1995   3.053   9.034   8.021
  141POPC   GL1 1996   3.236   9.327   7.739
  141POPC   GL2 1997   3.519   9.132   7.705
  141POPC   C1A 1998   3.152   9.507   7.323
  141POPC   D2A 1999   3.080   9.279   6.944
  141POPC   C3A 2000   3.233   9.305   6.542
  141POPC   C4A 2001   3.323   9.588   6.235
  141POPC   C1B 2002   3.419   9.081   7.302
  141POPC   C2B 2003   3.595   9.148   6.932
  141POPC   C3B 2004   3.625   8.963   6.578
  141POPC   C4B 2005   3.619   9.159   6.230
  142POPC   NC3 2006   3.467   6.149   8.070
  142POPC   PO4 2007   3.597   6.790   8.082
  142POPC   GL1 2008   3.235   6.651   7.782
  142POPC   GL2 2009   3.315   6.344   7.590
  142POPC   C1A 2010   3.242   6.749   7.298
  142POPC   D2A 2011   3.150   6.757   6.852
  142POPC   C3A 2012   3.457   6.669   6.515
  142POPC   C4A 2013   3.415   6.470   6.085
  142POPC   C1B 2014   3.579   6.391   7.175
  142POPC   C2B 2015   3.649   6.223   6.749
  142POPC   C3B 2016   3.823   6.334   6.361
  142POPC   C4B 2017   3.814   6.113   5.963
  143POPC   NC3 2018   1.980   2.511   8.116
  143POPC   PO4 2019   1.685   3.136   8.099
  143POPC   GL1 2020   1.789   2.911   7.720
  143POPC   GL2 2021   2.082   2.714   7.662
  143POPC   C1A 2022   1.707   2.697   7.335
  143POPC   D2A 2023   1.528   2.663   6.927
  143POPC   C3A 2024   1.725   2.824   6.570
  143POPC   C4A 2025   1.642   2.636   6.183
  143POPC   C1B 2026   2.290   2.579   7.266
  143POPC   C2B 2027   2.383   2.566   6.787
  143POPC   C3B 2028   2.376   2.665   6.342
  143POPC   C4B 2029   2.157   2.966   6.104
  144POPC   NC3 2030   2.738   3.177   8.092
  144POPC   PO4 2031   2.431   3.711   8.373
  144POPC   GL1 2032   2.531   3.590   7.871
  144POPC   GL2 2033   2.811   3.402   7.650
  144POPC   C1A 2034   2.391   3.574   7.415
  144POPC   D2A 2035   2.348   3.398   6.972
  144POPC   C3A 2036   2.579   3.593   6.647
  144POPC   C4A 2037   2.505   3.804   6.257
  144POPC   C1B 2038   2.818   3.371   7.192
  144POPC   C2B 2039   2.998   3.317   6.796
  144POPC   C3B 2040   3.010   3.466   6.356
  144POPC   C4B 2041   2.985   3.263   5.922
  145POPC   NC3 2042   0.801   2.616   8.131
  145POPC   PO4 2043   0.137   2.460   8.117
  145POPC   GL1 2044   0.362   2.814   7.864
  145POPC   GL2 2045   0.489   2.545   7.719
  145POPC   C1A 2046   0.477   3.108   7.480
  145POPC   D2A 2047   0.713   3.052   7.065
  145POPC   C3A 2048   0.562   3.046   6.624
  145POPC   C4A 2049   0.352   2.978   6.196
  145POPC   C1B 2050   0.566   2.634   7.302
  145POPC   C2B 2051   0.650   2.553   6.878
  145POPC   C3B 2052   0.477   2.560   6.475
  145POPC   C4B 2053   0.631   2.386   6.117
  146POPC   NC3 2054   7.952   8.660   8.190
  146POPC   PO4 2055   8.520   8.720   7.933
  146POPC   GL1 2056   8.214   8.490   7.746
  146POPC   GL2 2057   7.898   8.675   7.702
  146POPC   C1A 2058   8.081   8.380   7.341
  146POPC   D2A 2059   8.064   8.624   6.968
  146POPC   C3A 2060   8.153   8.518   6.560
  146POPC   C4A 2061   8.170   8.800   6.229
  146POPC   C1B 2062   8.081   8.932   7.379
  146POPC   C2B 2063   7.880   9.092   7.006
  146POPC   C3B 2064   7.787   8.918   6.584
  146POPC   C4B 2065   7.722   8.586   6.250
  147POPC   NC3 2066   1.284   9.770   8.321
  147POPC   PO4 2067   0.855   9.392   8.149
  147POPC   GL1 2068   1.236   9.476   7.867
  147POPC   GL2 2069   1.150   9.231   7.675
  147POPC   C1A 2070   1.468   9.517   7.415
  147POPC   D2A 2071   1.310   9.273   7.039
  147POPC   C3A 2072   1.406   9.360   6.578
  147POPC   C4A 2073   1.429   9.130   6.183
  147POPC   C1B 2074   0.983   9.567   7.358
  147POPC   C2B 2075   0.836   9.576   6.946
  147POPC   C3B 2076   0.862   9.442   6.524
  147POPC   C4B 2077   0.813   9.467   6.096
  148POPC   NC3 2078   9.676   4.404   8.093
  148POPC   PO4 2079   9.519   5.048   8.225
  148POPC   GL1 2080   9.499   4.801   7.809
  148POPC   GL2 2081   9.214   4.638   7.745
  148POPC   C1A 2082   9.768   4.734   7.413
  148POPC   D2A 2083   9.663   4.611   6.998
  148POPC   C3A 2084   9.700   4.920   6.660
  148POPC   C4A 2085   9.809   4.907   6.233
  148POPC   C1B 2086   9.279   4.858   7.346
  148POPC   C2B 2087   9.180   4.834   6.915
  148POPC   C3B 2088   9.226   5.007   6.514
  148POPC   C4B 2089   9.311   4.805   6.137
  149POPC   NC3 2090   0.929   1.352   7.827
  149POPC   PO4 2091   1.530   1.380   8.009
  149POPC   GL1 2092   1.310   1.089   7.605
  149POPC   GL2 2093   0.904   0.980   7.497
  149POPC   C1A 2094   1.275   0.846   7.206
  149POPC   D2A 2095   1.065   1.000   6.815
  149POPC   C3A 2096   1.368   0.999   6.452
  149POPC   C4A 2097   1.455   1.287   6.088
  149POPC   C1B 2098   0.773   1.336   7.196
  149POPC   C2B 2099   0.700   1.534   6.785
  149POPC   C3B 2100   0.936   1.390   6.443
  149POPC   C4B 2101   0.871   0.957   6.326
  150POPC   NC3 2102   7.845   7.094   8.317
  150POPC   PO4 2103   8.190   7.521   7.953
  150POPC   GL1 2104   7.956   7.421   7.612
  150POPC   GL2 2105   7.801   7.154   7.794
  150POPC   C1A 2106   7.942   7.403   7.160
  150POPC   D2A 2107   8.037   7.629   6.820
  150POPC   C3A 2108   8.040   7.496   6.386
  150POPC   C4A 2109   7.796   7.673   6.075
  150POPC   C1B 2110   7.851   6.951   7.384
  150POPC   C2B 2111   7.982   6.862   6.954
  150POPC   C3B 2112   8.015   7.006   6.536
  150POPC   C4B 2113   7.756   6.966   6.188
  151POPC   NC3 2114   5.881   9.880   8.155
  151POPC   PO4 2115   5.588  10.461   8.114
  151POPC   GL1 2116   5.630  10.323   7.685
  151POPC   GL2 2117   5.668   9.954   7.701
  151POPC   C1A 2118   5.731  10.471   7.264
  151POPC   D2A 2119   5.511   0.146   6.868
  151POPC   C3A 2120   5.383   0.040   6.458
  151POPC   C4A 2121   5.760   0.090   6.191
  151POPC   C1B 2122   5.524   9.987   7.297
  151POPC   C2B 2123   5.668  10.134   6.888
  151POPC   C3B 2124   5.666  10.141   6.457
  151POPC   C4B 2125   5.493   9.878   6.161
  152POPC   NC3 2126   6.275   2.512   8.069
  152POPC   PO4 2127   6.912   2.403   8.199
  152POPC   GL1 2128   6.769   2.600   7.757
  152POPC   GL2 2129   6.407   2.605   7.600
  152POPC   C1A 2130   6.798   2.636   7.288
  152POPC   D2A 2131   6.495   2.680   6.964
  152POPC   C3A 2132   6.721   2.703   6.616
  152POPC   C4A 2133   6.802   2.458   6.280
  152POPC   C1B 2134   6.115   2.800   7.307
  152POPC   C2B 2135   6.011   2.845   6.858
  152POPC   C3B 2136   6.221   2.782   6.459
  152POPC   C4B 2137   6.316   2.347   6.346
  153POPC   NC3 2138  10.208   5.995   8.059
  153POPC   PO4 2139   0.073   6.560   8.227
  153POPC   GL1 2140  10.300   6.460   7.813
  153POPC   GL2 2141   9.926   6.307   7.755
  153POPC   C1A 2142  10.301   6.255   7.383
  153POPC   D2A 2143   0.084   6.269   7.022
  153POPC   C3A 2144  10.378   6.201   6.629
  153POPC   C4A 2145  10.444   6.368   6.221
  153POPC   C1B 2146   9.845   6.484   7.319
  153POPC   C2B 2147  10.120   6.540   6.947
  153POPC   C3B 2148  10.104   6.655   6.503
  153POPC   C4B 2149  10.016   6.611   6.025
  154POPC   NC3 2150   8.182   5.002   8.019
  154POPC   PO4 2151   7.729   4.486   7.962
  154POPC   GL1 2152   7.880   4.602   7.584
  154POPC   GL2 2153   8.204   4.655   7.632
  154POPC   C1A 2154   7.823   4.603   7.144
  154POPC   D2A 2155   7.849   4.831   6.762
  154POPC   C3A 2156   7.505   4.879   6.480
  154POPC   C4A 2157   7.478   5.059   6.052
  154POPC   C1B 2158   8.079   5.025   7.339
  154POPC   C2B 2159   8.206   5.206   6.938
  154POPC   C3B 2160   8.292   5.101   6.547
  154POPC   C4B 2161   7.997   4.957   6.295
  155POPC   NC3 2162   6.354   8.348   8.194
  155POPC   PO4 2163   6.846   8.820   8.050
  155POPC   GL1 2164   6.646   8.877   7.646
  155POPC   GL2 2165   6.505   8.570   7.723
  155POPC   C1A 2166   6.569   8.838   7.171
  155POPC   D2A 2167   6.331   8.946   6.768
  155POPC   C3A 2168   6.478   8.886   6.315
  155POPC   C4A 2169   6.424   8.935   5.831
  155POPC   C1B 2170   6.328   8.343   7.383
  155POPC   C2B 2171   6.199   8.438   6.946
  155POPC   C3B 2172   6.381   8.419   6.532
  155POPC   C4B 2173   6.774   8.458   6.310
  156POPC   NC3 2174   9.308   0.800   8.424
  156POPC   PO4 2175   9.072   1.365   8.197
  156POPC   GL1 2176   9.265   1.161   7.793
  156POPC   GL2 2177   9.632   1.075   7.700
  156POPC   C1A 2178   9.265   0.969   7.352
  156POPC   D2A 2179   9.168   0.875   6.919
  156POPC   C3A 2180   9.042   1.285   6.697
  156POPC   C4A 2181   8.985   1.349   6.261
  156POPC   C1B 2182   9.746   1.127   7.221
  156POPC   C2B 2183   9.525   1.231   6.810
  156POPC   C3B 2184   9.479   1.171   6.353
  156POPC   C4B 2185   9.691   1.047   5.962
  157POPC   NC3 2186   1.708   4.265   8.161
  157POPC   PO4 2187   2.151   3.920   7.958
  157POPC   GL1 2188   1.817   4.079   7.698
  157POPC   GL2 2189   1.805   4.462   7.697
  157POPC   C1A 2190   1.773   3.914   7.310
  157POPC   D2A 2191   2.079   3.805   7.043
  157POPC   C3A 2192   2.011   3.827   6.625
  157POPC   C4A 2193   1.992   3.927   6.228
  157POPC   C1B 2194   1.988   4.371   7.283
  157POPC   C2B 2195   1.812   4.231   6.883
  157POPC   C3B 2196   1.867   4.385   6.454
  157POPC   C4B 2197   1.969   4.381   5.981
  158POPC   NC3 2198   4.012   1.835   8.044
  158POPC   PO4 2199   4.560   1.704   7.717
  158POPC   GL1 2200   4.400   1.994   7.439
  158POPC   GL2 2201   4.085   2.074   7.588
  158POPC   C1A 2202   4.169   2.022   7.049
  158POPC   D2A 2203   4.089   2.382   6.792
  158POPC   C3A 2204   4.294   2.271   6.435
  158POPC   C4A 2205   4.505   1.869   6.310
  158POPC   C1B 2206   3.963   1.676   7.380
  158POPC   C2B 2207   4.039   1.418   6.998
  158POPC   C3B 2208   4.185   1.598   6.623
  158POPC   C4B 2209   3.981   1.850   6.344
  159POPC   NC3 2210   2.799   2.724   8.407
  159POPC   PO4 2211   2.397   2.438   7.937
  159POPC   GL1 2212   2.594   2.769   7.804
  159POPC   GL2 2213   2.928   2.733   7.858
  159POPC   C1A 2214   2.693   2.950   7.439
  159POPC   D2A 2215   2.545   2.953   7.043
  159POPC   C3A 2216   2.700   2.947   6.654
  159POPC   C4A 2217   2.611   3.156   6.291
  159POPC   C1B 2218   2.878   2.472   7.463
  159POPC   C2B 2219   2.821   2.364   7.031
  159POPC   C3B 2220   2.893   2.471   6.624
  159POPC   C4B 2221   2.872   2.706   6.234
  160POPC   NC3 2222   7.465   3.451   7.999
  160POPC   PO4 2223   6.875   3.334   8.341
  160POPC   GL1 2224   6.977   3.246   7.769
  160POPC   GL2 2225   7.294   3.366   7.553
  160POPC   C1A 2226   6.924   3.512   7.266
  160POPC   D2A 2227   7.141   3.776   6.881
  160POPC   C3A 2228   6.964   3.855   6.397
  160POPC   C4A 2229   6.951   3.745   5.899
  160POPC   C1B 2230   7.124   3.042   7.314
  160POPC   C2B 2231   6.951   3.085   6.902
  160POPC   C3B 2232   7.007   3.376   6.609
  160POPC   C4B 2233   7.179   3.441   6.223
  161POPC   NC3 2234   6.659   3.560   8.017
  161POPC   PO4 2235   6.499   2.919   8.053
  161POPC   GL1 2236   6.495   3.103   7.661
  161POPC   GL2 2237   6.447   3.455   7.563
  161POPC   C1A 2238   6.588   3.098   7.245
  161POPC   D2A 2239   6.547   3.403   6.921
  161POPC   C3A 2240   6.523   3.202   6.538
  161POPC   C4A 2241   6.667   3.429   6.221
  161POPC   C1B 2242   6.129   3.318   7.212
  161POPC   C2B 2243   6.055   3.338   6.743
  161POPC   C3B 2244   6.129   3.532   6.337
  161POPC   C4B 2245   5.989   3.814   5.978
  162POPC   NC3 2246   3.448   2.181   8.095
  162POPC   PO4 2247   2.928   1.948   8.205
  162POPC   GL1 2248   3.217   1.820   7.787
  162POPC   GL2 2249   3.580   1.970   7.661
  162POPC   C1A 2250   3.181   2.000   7.322
  162POPC   D2A 2251   3.187   2.037   6.834
  162POPC   C3A 2252   3.163   1.647   6.626
  162POPC   C4A 2253   3.018   1.599   6.194
  162POPC   C1B 2254   3.704   2.141   7.230
  162POPC   C2B 2255   3.704   2.054   6.760
  162POPC   C3B 2256   3.489   1.946   6.365
  162POPC   C4B 2257   3.709   2.207   6.067
  163POPC   NC3 2258   3.996   7.045   8.126
  163POPC   PO4 2259   3.514   7.533   8.150
  163POPC   GL1 2260   3.637   7.362   7.718
  163POPC   GL2 2261   3.529   7.034   7.615
  163POPC   C1A 2262   3.765   7.286   7.260
  163POPC   D2A 2263   3.583   7.065   6.925
  163POPC   C3A 2264   3.779   7.297   6.583
  163POPC   C4A 2265   3.753   7.281   6.177
  163POPC   C1B 2266   3.214   7.250   7.336
  163POPC   C2B 2267   3.037   7.235   6.923
  163POPC   C3B 2268   3.276   7.166   6.512
  163POPC   C4B 2269   3.358   6.983   6.094
  164POPC   NC3 2270   1.898   5.097   8.180
  164POPC   PO4 2271   1.417   4.626   8.043
  164POPC   GL1 2272   1.587   4.949   7.743
  164POPC   GL2 2273   1.967   4.964   7.702
  164POPC   C1A 2274   1.703   4.800   7.303
  164POPC   D2A 2275   1.984   4.739   6.918
  164POPC   C3A 2276   1.807   4.912   6.561
  164POPC   C4A 2277   1.686   4.773   6.166
  164POPC   C1B 2278   2.180   4.987   7.319
  164POPC   C2B 2279   2.365   5.129   6.933
  164POPC   C3B 2280   2.318   5.085   6.504
  164POPC   C4B 2281   2.192   4.753   6.253
  165POPC   NC3 2282   7.010   8.380   8.004
  165POPC   PO4 2283   7.538   8.857   8.064
  165POPC   GL1 2284   7.262   8.821   7.744
  165POPC   GL2 2285   7.397   8.520   7.663
  165POPC   C1A 2286   7.065   8.817   7.353
  165POPC   D2A 2287   7.000   8.567   6.988
  165POPC   C3A 2288   6.820   8.782   6.685
  165POPC   C4A 2289   6.970   8.964   6.312
  165POPC   C1B 2290   7.624   8.658   7.281
  165POPC   C2B 2291   7.569   8.519   6.854
  165POPC   C3B 2292   7.317   8.682   6.553
  165POPC   C4B 2293   7.236   8.551   6.130
  166POPC   NC3 2294   3.132   0.486   8.231
  166POPC   PO4 2295   3.653   0.857   8.475
  166POPC   GL1 2296   3.566   0.623   7.987
  166POPC   GL2 2297   3.401   0.295   7.851
  166POPC   C1A 2298   3.581   0.569   7.469
  166POPC   D2A 2299   3.384   0.717   7.042
  166POPC   C3A 2300   3.452   0.590   6.617
  166POPC   C4A 2301   3.167   0.569   6.270
  166POPC   C1B 2302   3.136   0.283   7.447
  166POPC   C2B 2303   3.184   0.260   6.978
  166POPC   C3B 2304   3.259   0.115   6.542
  166POPC   C4B 2305   3.466   0.134   6.155
  167POPC   NC3 2306   4.163   8.746   8.100
  167POPC   PO4 2307   4.048   9.138   7.690
  167POPC   GL1 2308   4.371   8.839   7.613
  167POPC   GL2 2309   4.339   8.478   7.674
  167POPC   C1A 2310   4.341   8.782   7.181
  167POPC   D2A 2311   4.089   8.938   6.854
  167POPC   C3A 2312   4.007   8.641   6.527
  167POPC   C4A 2313   4.009   8.881   6.125
  167POPC   C1B 2314   4.234   8.300   7.275
  167POPC   C2B 2315   4.152   8.152   6.839
  167POPC   C3B 2316   4.335   8.207   6.441
  167POPC   C4B 2317   4.344   8.513   6.174
  168POPC   NC3 2318   9.928   2.304   8.148
  168POPC   PO4 2319  10.155   1.698   8.153
  168POPC   GL1 2320  10.397   1.834   7.790
  168POPC   GL2 2321  10.182   2.112   7.704
  168POPC   C1A 2322   0.001   1.804   7.350
  168POPC   D2A 2323  10.381   2.023   6.992
  168POPC   C3A 2324  10.459   1.844   6.655
  168POPC   C4A 2325  10.334   1.694   6.290
  168POPC   C1B 2326  10.003   1.934   7.326
  168POPC   C2B 2327   9.874   2.079   6.889
  168POPC   C3B 2328  10.039   2.101   6.488
  168POPC   C4B 2329  10.194   2.358   6.156
  169POPC   NC3 2330   1.341   7.326   8.184
  169POPC   PO4 2331   0.920   7.831   8.088
  169POPC   GL1 2332   1.029   7.560   7.655
  169POPC   GL2 2333   1.351   7.363   7.666
  169POPC   C1A 2334   0.887   7.512   7.159
  169POPC   D2A 2335   0.864   7.379   6.709
  169POPC   C3A 2336   1.212   7.365   6.462
  169POPC   C4A 2337   1.162   7.406   6.038
  169POPC   C1B 2338   1.142   7.138   7.365
  169POPC   C2B 2339   1.168   7.061   6.952
  169POPC   C3B 2340   1.010   6.883   6.590
  169POPC   C4B 2341   1.180   6.931   6.189
  170POPC   NC3 2342  10.355   2.903   7.981
  170POPC   PO4 2343   9.857   2.582   7.792
  170POPC   GL1 2344  10.181   2.619   7.582
  170POPC   GL2 2345  10.488   2.515   7.640
  170POPC   C1A 2346  10.187   2.444   7.208
  170POPC   D2A 2347   9.881   2.587   6.954
  170POPC   C3A 2348  10.037   2.628   6.563
  170POPC   C4A 2349   9.843   2.732   6.185
  170POPC   C1B 2350   0.061   2.823   7.318
  170POPC   C2B 2351  10.354   2.858   6.923
  170POPC   C3B 2352   0.031   2.829   6.560
  170POPC   C4B 2353  10.344   2.872   6.183
  171POPC   NC3 2354  10.073   9.370   7.946
  171POPC   PO4 2355  10.495   8.845   7.998
  171POPC   GL1 2356  10.390   9.151   7.627
  171POPC   GL2 2357  10.457   9.551   7.671
  171POPC   C1A 2358  10.143   9.245   7.255
  171POPC   D2A 2359  10.346   9.229   6.860
  171POPC   C3A 2360  10.171   9.190   6.440
  171POPC   C4A 2361   0.042   9.030   6.227
  171POPC   C1B 2362  10.456   9.631   7.243
  171POPC   C2B 2363  10.164   9.708   6.936
  171POPC   C3B 2364  10.372   9.646   6.556
  171POPC   C4B 2365  10.352   9.526   6.123
  172POPC   NC3 2366   0.005   6.982   8.031
  172POPC   PO4 2367   9.819   7.350   8.147
  172POPC   GL1 2368  10.063   7.175   7.791
  172POPC   GL2 2369  10.274   7.416   7.651
  172POPC   C1A 2370  10.199   6.970   7.368
  172POPC   D2A 2371  10.049   7.056   6.941
  172POPC   C3A 2372  10.348   7.105   6.608
  172POPC   C4A 2373  10.313   7.006   6.211
  172POPC   C1B 2374   9.972   7.446   7.347
  172POPC   C2B 2375   9.901   7.560   6.945
  172POPC   C3B 2376   9.931   7.410   6.543
  172POPC   C4B 2377  10.060   7.439   6.139
  173POPC   NC3 2378   8.726   2.563   8.096
  173POPC   PO4 2379   8.218   3.023   8.057
  173POPC   GL1 2380   8.562   2.909   7.746
  173POPC   GL2 2381   8.450   2.616   7.563
  173POPC   C1A 2382   8.720   2.957   7.306
  173POPC   D2A 2383   8.469   2.736   6.973
  173POPC   C3A 2384   8.461   2.919   6.554
  173POPC   C4A 2385   8.792   2.910   6.207
  173POPC   C1B 2386   8.771   2.422   7.268
  173POPC   C2B 2387   8.938   2.548   6.854
  173POPC   C3B 2388   8.714   2.479   6.474
  173POPC   C4B 2389   8.324   2.460   6.233
  174POPC   NC3 2390   6.347   0.648   3.896
  174POPC   PO4 2391   6.823   0.136   3.877
  174POPC   GL1 2392   6.706   0.421   4.192
  174POPC   GL2 2393   6.361   0.297   4.262
  174POPC   C1A 2394   6.759   0.463   4.630
  174POPC   D2A 2395   6.764   0.162   4.984
  174POPC   C3A 2396   6.697   0.339   5.364
  174POPC   C4A 2397   6.607   0.222   5.778
  174POPC   C1B 2398   6.246   0.521   4.628
  174POPC   C2B 2399   6.269   0.338   5.043
  174POPC   C3B 2400   6.199   0.445   5.482
  174POPC   C4B 2401   6.336   0.670   5.881
  175POPC   NC3 2402   5.606   2.156   3.917
  175POPC   PO4 2403   6.038   1.580   3.896
  175POPC   GL1 2404   6.090   1.703   4.319
  175POPC   GL2 2405   5.740   1.821   4.302
  175POPC   C1A 2406   5.959   1.744   4.770
  175POPC   D2A 2407   5.651   1.832   5.093
  175POPC   C3A 2408   5.809   1.979   5.482
  175POPC   C4A 2409   5.886   1.701   5.805
  175POPC   C1B 2410   5.639   2.110   4.639
  175POPC   C2B 2411   5.321   2.179   4.934
  175POPC   C3B 2412   5.315   2.190   5.333
  175POPC   C4B 2413   5.409   2.183   5.741
  176POPC   NC3 2414  10.487   9.539   3.963
  176POPC   PO4 2415   0.587   9.856   3.748
  176POPC   GL1 2416   0.576   9.598   4.122
  176POPC   GL2 2417   0.413   9.275   4.097
  176POPC   C1A 2418   0.765   9.627   4.523
  176POPC   D2A 2419   0.869   9.640   4.943
  176POPC   C3A 2420   0.656   9.399   5.203
  176POPC   C4A 2421   0.649   9.376   5.624
  176POPC   C1B 2422   0.236   9.267   4.540
  176POPC   C2B 2423   0.147   9.384   4.979
  176POPC   C3B 2424   0.214   9.211   5.375
  176POPC   C4B 2425   0.150   9.337   5.781
  177POPC   NC3 2426   3.539   0.917   3.785
  177POPC   PO4 2427   3.261   0.283   3.899
  177POPC   GL1 2428   3.422   0.452   4.239
  177POPC   GL2 2429   3.641   0.196   4.299
  177POPC   C1A 2430   3.539   0.552   4.681
  177POPC   D2A 2431   3.671   0.498   5.106
  177POPC   C3A 2432   3.643   0.770   5.459
  177POPC   C4A 2433   3.560   0.544   5.868
  177POPC   C1B 2434   3.315   0.105   4.611
  177POPC   C2B 2435   3.228   0.240   5.030
  177POPC   C3B 2436   3.237   0.462   5.424
  177POPC   C4B 2437   3.095   0.325   5.825
  178POPC   NC3 2438   2.933   4.328   3.969
  178POPC   PO4 2439   2.350   4.129   4.046
  178POPC   GL1 2440   2.606   4.200   4.376
  178POPC   GL2 2441   2.962   4.133   4.424
  178POPC   C1A 2442   2.629   4.278   4.798
  178POPC   D2A 2443   2.432   4.107   5.122
  178POPC   C3A 2444   2.569   4.311   5.482
  178POPC   C4A 2445   2.910   4.519   5.675
  178POPC   C1B 2446   2.973   3.845   4.752
  178POPC   C2B 2447   2.921   3.931   5.146
  178POPC   C3B 2448   3.088   4.064   5.523
  178POPC   C4B 2449   3.300   4.182   5.874
  179POPC   NC3 2450   9.529   8.093   3.558
  179POPC   PO4 2451   8.941   8.007   3.860
  179POPC   GL1 2452   9.104   8.116   4.287
  179POPC   GL2 2453   9.425   7.998   4.383
  179POPC   C1A 2454   9.101   7.951   4.738
  179POPC   D2A 2455   9.437   7.955   5.038
  179POPC   C3A 2456   9.216   7.885   5.398
  179POPC   C4A 2457   9.494   7.947   5.681
  179POPC   C1B 2458   9.626   7.667   4.636
  179POPC   C2B 2459   9.934   7.614   4.956
  179POPC   C3B 2460   9.853   7.670   5.362
  179POPC   C4B 2461   9.782   7.522   5.725
  180POPC   NC3 2462   9.414   6.510   3.875
  180POPC   PO4 2463   9.949   6.960   3.941
  180POPC   GL1 2464   9.759   6.660   4.272
  180POPC   GL2 2465   9.393   6.590   4.365
  180POPC   C1A 2466   9.702   6.613   4.736
  180POPC   D2A 2467   9.662   6.365   5.141
  180POPC   C3A 2468   9.694   6.602   5.559
  180POPC   C4A 2469   9.495   6.644   5.990
  180POPC   C1B 2470   9.314   6.289   4.765
  180POPC   C2B 2471   9.158   6.243   5.168
  180POPC   C3B 2472   9.210   6.393   5.549
  180POPC   C4B 2473   9.219   6.220   5.947
  181POPC   NC3 2474   3.134   7.341   4.081
  181POPC   PO4 2475   3.791   7.528   3.927
  181POPC   GL1 2476   3.696   7.364   4.365
  181POPC   GL2 2477   3.339   7.347   4.534
  181POPC   C1A 2478   3.728   7.407   4.847
  181POPC   D2A 2479   3.398   7.257   5.087
  181POPC   C3A 2480   3.497   7.321   5.493
  181POPC   C4A 2481   3.703   7.037   5.723
  181POPC   C1B 2482   3.084   7.002   4.769
  181POPC   C2B 2483   3.103   6.840   5.209
  181POPC   C3B 2484   3.054   7.037   5.617
  181POPC   C4B 2485   3.038   7.477   5.681
  182POPC   NC3 2486   9.676   9.948   3.880
  182POPC   PO4 2487   9.088   9.740   4.165
  182POPC   GL1 2488   9.121  10.029   4.453
  182POPC   GL2 2489   9.343  10.232   4.239
  182POPC   C1A 2490   9.176   9.914   4.899
  182POPC   D2A 2491   9.489   9.952   5.219
  182POPC   C3A 2492   9.453   9.963   5.672
  182POPC   C4A 2493   9.273  10.114   6.088
  182POPC   C1B 2494   9.583  10.363   4.579
  182POPC   C2B 2495   9.524  10.430   5.000
  182POPC   C3B 2496   9.680  10.393   5.415
  182POPC   C4B 2497   9.516  10.469   5.822
  183POPC   NC3 2498   9.288   2.882   3.790
  183POPC   PO4 2499   9.654   2.539   4.098
  183POPC   GL1 2500   9.320   2.568   4.323
  183POPC   GL2 2501   9.052   2.769   4.226
  183POPC   C1A 2502   9.515   2.693   4.713
  183POPC   D2A 2503   9.572   2.495   5.050
  183POPC   C3A 2504   9.461   2.727   5.387
  183POPC   C4A 2505   9.604   2.577   5.766
  183POPC   C1B 2506   9.074   2.906   4.637
  183POPC   C2B 2507   9.253   3.044   4.999
  183POPC   C3B 2508   9.040   3.034   5.355
  183POPC   C4B 2509   9.124   2.843   5.755
  184POPC   NC3 2510   8.837   7.614   4.062
  184POPC   PO4 2511   8.402   8.136   4.168
  184POPC   GL1 2512   8.632   8.205   4.478
  184POPC   GL2 2513   8.687   7.842   4.474
  184POPC   C1A 2514   8.645   8.111   4.891
  184POPC   D2A 2515   8.575   7.879   5.250
  184POPC   C3A 2516   8.548   8.123   5.604
  184POPC   C4A 2517   8.946   8.165   5.759
  184POPC   C1B 2518   8.691   7.591   4.814
  184POPC   C2B 2519   8.491   7.388   5.129
  184POPC   C3B 2520   8.454   7.438   5.567
  184POPC   C4B 2521   8.776   7.686   5.738
  185POPC   NC3 2522   4.683   0.549   3.818
  185POPC   PO4 2523   5.306   0.168   3.898
  185POPC   GL1 2524   5.117   0.321   4.269
  185POPC   GL2 2525   4.798   0.305   4.231
  185POPC   C1A 2526   5.235   0.563   4.664
  185POPC   D2A 2527   5.048   0.678   5.050
  185POPC   C3A 2528   5.054   0.398   5.360
  185POPC   C4A 2529   5.018   0.532   5.753
  185POPC   C1B 2530   4.740   0.443   4.637
  185POPC   C2B 2531   4.599   0.393   5.065
  185POPC   C3B 2532   4.608   0.179   5.483
  185POPC   C4B 2533   4.665   0.171   5.946
  186POPC   NC3 2534   5.682  10.405   3.816
  186POPC   PO4 2535   5.313  10.023   3.588
  186POPC   GL1 2536   5.406  10.230   4.176
  186POPC   GL2 2537   5.735  10.169   4.307
  186POPC   C1A 2538   5.394  10.075   4.654
  186POPC   D2A 2539   5.601  10.103   5.045
  186POPC   C3A 2540   5.343  10.265   5.369
  186POPC   C4A 2541   5.383  10.194   5.789
  186POPC   C1B 2542   5.841  10.409   4.691
  186POPC   C2B 2543   5.874   0.036   5.133
  186POPC   C3B 2544   5.816  10.335   5.529
  186POPC   C4B 2545   5.863  10.162   5.972
  187POPC   NC3 2546  10.402   7.950   4.015
  187POPC   PO4 2547   9.920   8.261   3.777
  187POPC   GL1 2548   9.923   8.140   4.213
  187POPC   GL2 2549   9.980   7.774   4.281
  187POPC   C1A 2550   9.831   8.134   4.645
  187POPC   D2A 2551  10.051   8.124   4.991
  187POPC   C3A 2552   9.843   8.163   5.327
  187POPC   C4A 2553   9.881   8.249   5.728
  187POPC   C1B 2554  10.288   7.797   4.628
  187POPC   C2B 2555  10.488   7.842   5.021
  187POPC   C3B 2556  10.308   7.906   5.402
  187POPC   C4B 2557  10.198   7.806   5.802
  188POPC   NC3 2558   2.844   1.571   3.928
  188POPC   PO4 2559   2.685   0.957   3.794
  188POPC   GL1 2560   2.603   1.187   4.138
  188POPC   GL2 2561   2.962   1.104   4.245
  188POPC   C1A 2562   2.516   1.187   4.544
  188POPC   D2A 2563   2.726   0.973   4.855
  188POPC   C3A 2564   2.424   0.831   5.164
  188POPC   C4A 2565   2.376   0.996   5.590
  188POPC   C1B 2566   2.992   1.398   4.583
  188POPC   C2B 2567   2.943   1.432   5.025
  188POPC   C3B 2568   2.775   1.176   5.339
  188POPC   C4B 2569   2.797   1.249   5.784
  189POPC   NC3 2570   5.626   8.838   3.866
  189POPC   PO4 2571   6.127   8.339   3.859
  189POPC   GL1 2572   5.817   8.409   4.198
  189POPC   GL2 2573   5.739   8.741   4.344
  189POPC   C1A 2574   5.829   8.353   4.652
  189POPC   D2A 2575   6.039   8.438   5.035
  189POPC   C3A 2576   5.860   8.176   5.330
  189POPC   C4A 2577   5.609   8.279   5.649
  189POPC   C1B 2578   5.554   9.008   4.678
  189POPC   C2B 2579   5.711   9.040   5.083
  189POPC   C3B 2580   5.608   8.838   5.455
  189POPC   C4B 2581   5.623   8.979   5.870
  190POPC   NC3 2582   7.323   1.241   3.881
  190POPC   PO4 2583   6.743   0.871   3.881
  190POPC   GL1 2584   7.022   0.877   4.251
  190POPC   GL2 2585   7.057   1.227   4.319
  190POPC   C1A 2586   6.906   0.953   4.715
  190POPC   D2A 2587   7.056   1.096   5.135
  190POPC   C3A 2588   6.896   0.829   5.479
  190POPC   C4A 2589   7.118   0.843   5.931
  190POPC   C1B 2590   7.207   1.366   4.720
  190POPC   C2B 2591   7.080   1.647   4.983
  190POPC   C3B 2592   7.053   1.634   5.384
  190POPC   C4B 2593   7.102   1.262   5.632
  191POPC   NC3 2594   5.865   7.945   3.939
  191POPC   PO4 2595   5.228   8.079   3.956
  191POPC   GL1 2596   5.457   8.075   4.332
  191POPC   GL2 2597   5.778   7.891   4.429
  191POPC   C1A 2598   5.390   8.054   4.750
  191POPC   D2A 2599   5.111   8.214   5.020
  191POPC   C3A 2600   5.135   7.963   5.355
  191POPC   C4A 2601   5.407   7.748   5.619
  191POPC   C1B 2602   5.849   7.883   4.886
  191POPC   C2B 2603   5.759   7.659   5.263
  191POPC   C3B 2604   5.912   7.749   5.671
  191POPC   C4B 2605   6.110   8.118   5.789
  192POPC   NC3 2606   8.071   4.222   3.599
  192POPC   PO4 2607   7.909   4.795   4.019
  192POPC   GL1 2608   7.943   4.487   4.453
  192POPC   GL2 2609   8.110   4.066   4.507
  192POPC   C1A 2610   7.952   4.356   4.881
  192POPC   D2A 2611   8.163   4.039   5.070
  192POPC   C3A 2612   8.070   4.112   5.474
  192POPC   C4A 2613   7.844   4.248   5.848
  192POPC   C1B 2614   7.775   3.881   4.777
  192POPC   C2B 2615   7.701   3.867   5.202
  192POPC   C3B 2616   7.673   3.812   5.635
  192POPC   C4B 2617   7.641   3.737   6.096
  193POPC   NC3 2618   0.327   0.498   3.661
  193POPC   PO4 2619  10.097   0.436   3.806
  193POPC   GL1 2620   9.983   0.246   4.230
  193POPC   GL2 2621  10.150   0.540   4.322
  193POPC   C1A 2622  10.146  10.492   4.620
  193POPC   D2A 2623  10.339   0.034   5.031
  193POPC   C3A 2624  10.228   0.285   5.395
  193POPC   C4A 2625  10.073   0.138   5.793
  193POPC   C1B 2626   9.916   0.418   4.705
  193POPC   C2B 2627   9.772   0.350   5.130
  193POPC   C3B 2628   9.706   0.373   5.570
  193POPC   C4B 2629   9.834   0.567   5.948
  194POPC   NC3 2630   7.225   8.578   4.008
  194POPC   PO4 2631   6.792   9.004   3.681
  194POPC   GL1 2632   6.873   8.893   4.235
  194POPC   GL2 2633   7.189   8.697   4.484
  194POPC   C1A 2634   6.795   8.838   4.716
  194POPC   D2A 2635   7.147   8.778   5.037
  194POPC   C3A 2636   7.069   8.581   5.475
  194POPC   C4A 2637   6.844   8.682   5.852
  194POPC   C1B 2638   7.505   8.427   4.701
  194POPC   C2B 2639   7.748   8.471   5.056
  194POPC   C3B 2640   7.601   8.465   5.455
  194POPC   C4B 2641   7.486   8.768   5.751
  195POPC   NC3 2642   3.808   9.548   3.990
  195POPC   PO4 2643   4.427   9.677   3.874
  195POPC   GL1 2644   4.381   9.294   4.181
  195POPC   GL2 2645   4.091   9.159   4.262
  195POPC   C1A 2646   4.446   9.079   4.628
  195POPC   D2A 2647   4.324   9.229   5.082
  195POPC   C3A 2648   4.503   9.189   5.509
  195POPC   C4A 2649   4.394   9.211   5.964
  195POPC   C1B 2650   4.013   9.372   4.685
  195POPC   C2B 2651   4.048   9.656   5.094
  195POPC   C3B 2652   4.123   9.563   5.533
  195POPC   C4B 2653   3.993   9.150   5.664
  196POPC   NC3 2654   8.753   0.425   3.883
  196POPC   PO4 2655   9.143   0.978   3.979
  196POPC   GL1 2656   9.106   0.641   4.277
  196POPC   GL2 2657   8.966   0.299   4.317
  196POPC   C1A 2658   9.124   0.786   4.683
  196POPC   D2A 2659   8.911   0.864   5.033
  196POPC   C3A 2660   8.968   0.679   5.405
  196POPC   C4A 2661   8.597   0.623   5.609
  196POPC   C1B 2662   8.727   0.470   4.654
  196POPC   C2B 2663   8.648   0.393   5.085
  196POPC   C3B 2664   8.781   0.166   5.439
  196POPC   C4B 2665   8.600   0.172   5.847
  197POPC   NC3 2666  10.051   2.773   4.008
  197POPC   PO4 2667   9.900   2.213   3.700
  197POPC   GL1 2668  10.061   2.285   4.161
  197POPC   GL2 2669  10.284   2.487   4.405
  197POPC   C1A 2670   9.892   2.301   4.644
  197POPC   D2A 2671  10.041   2.641   4.929
  197POPC   C3A 2672   9.962   2.578   5.378
  197POPC   C4A 2673  10.076   2.811   5.748
  197POPC   C1B 2674  10.402   2.874   4.585
  197POPC   C2B 2675  10.403   3.024   5.006
  197POPC   C3B 2676  10.454   2.788   5.366
  197POPC   C4B 2677   0.086   2.921   5.743
  198POPC   NC3 2678   8.362   3.505   3.746
  198POPC   PO4 2679   8.976   3.233   3.858
  198POPC   GL1 2680   8.723   3.387   4.183
  198POPC   GL2 2681   8.833   3.711   4.194
  198POPC   C1A 2682   8.747   3.295   4.626
  198POPC   D2A 2683   8.520   3.187   5.009
  198POPC   C3A 2684   8.597   3.352   5.393
  198POPC   C4A 2685   8.847   3.263   5.763
  198POPC   C1B 2686   8.532   3.749   4.556
  198POPC   C2B 2687   8.556   3.724   4.987
  198POPC   C3B 2688   8.543   3.887   5.385
  198POPC   C4B 2689   8.602   3.699   5.770
  199POPC   NC3 2690   7.990   7.153   3.798
  199POPC   PO4 2691   8.638   7.225   3.890
  199POPC   GL1 2692   8.289   7.315   4.234
  199POPC   GL2 2693   7.936   7.246   4.290
  199POPC   C1A 2694   8.243   7.240   4.710
  199POPC   D2A 2695   7.961   7.070   5.076
  199POPC   C3A 2696   7.957   7.296   5.467
  199POPC   C4A 2697   8.063   7.274   5.908
  199POPC   C1B 2698   7.717   7.281   4.681
  199POPC   C2B 2699   7.550   7.457   5.077
  199POPC   C3B 2700   7.320   7.435   5.463
  199POPC   C4B 2701   7.567   7.304   5.808
  200POPC   NC3 2702   0.413   7.806   3.804
  200POPC   PO4 2703   0.092   8.374   3.957
  200POPC   GL1 2704   0.346   8.076   4.235
  200POPC   GL2 2705   0.263   7.729   4.280
  200POPC   C1A 2706   0.361   8.099   4.691
  200POPC   D2A 2707   0.503   8.003   5.123
  200POPC   C3A 2708   0.245   8.187   5.392
  200POPC   C4A 2709   0.053   8.171   5.779
  200POPC   C1B 2710   0.288   7.600   4.659
  200POPC   C2B 2711   0.356   7.490   5.072
  200POPC   C3B 2712   0.278   7.675   5.475
  200POPC   C4B 2713   0.583   7.972   5.691
  201POPC   NC3 2714   7.347   7.189   3.787
  201POPC   PO4 2715   7.747   6.767   3.946
  201POPC   GL1 2716   7.487   7.022   4.258
  201POPC   GL2 2717   7.411   7.392   4.258
  201POPC   C1A 2718   7.323   6.898   4.652
  201POPC   D2A 2719   7.440   6.752   5.064
  201POPC   C3A 2720   7.543   6.954   5.442
  201POPC   C4A 2721   7.348   6.853   5.870
  201POPC   C1B 2722   7.219   7.384   4.657
  201POPC   C2B 2723   7.128   7.176   5.052
  201POPC   C3B 2724   7.020   7.015   5.472
  201POPC   C4B 2725   7.023   7.253   5.859
  202POPC   NC3 2726   8.899  10.204   3.972
  202POPC   PO4 2727   8.410   9.743   3.884
  202POPC   GL1 2728   8.603   9.960   4.303
  202POPC   GL2 2729   8.642  10.351   4.384
  202POPC   C1A 2730   8.688  10.026   4.767
  202POPC   D2A 2731   8.520  10.384   5.041
  202POPC   C3A 2732   8.452  10.250   5.479
  202POPC   C4A 2733   8.506   9.850   5.735
  202POPC   C1B 2734   8.967  10.459   4.683
  202POPC   C2B 2735   9.032  10.362   5.096
  202POPC   C3B 2736   9.153  10.321   5.493
  202POPC   C4B 2737   8.869  10.233   5.794
  203POPC   NC3 2738   9.513   5.740   3.638
  203POPC   PO4 2739   9.573   6.170   4.164
  203POPC   GL1 2740   9.628   5.868   4.426
  203POPC   GL2 2741   9.520   5.569   4.277
  203POPC   C1A 2742   9.704   5.915   4.828
  203POPC   D2A 2743   9.524   5.851   5.189
  203POPC   C3A 2744   9.599   6.061   5.533
  203POPC   C4A 2745   9.725   6.191   5.901
  203POPC   C1B 2746   9.270   5.551   4.677
  203POPC   C2B 2747   9.415   5.372   5.066
  203POPC   C3B 2748   9.328   5.472   5.481
  203POPC   C4B 2749   9.393   5.712   5.833
  204POPC   NC3 2750   6.431   1.905   3.924
  204POPC   PO4 2751   6.051   2.419   3.849
  204POPC   GL1 2752   6.098   2.212   4.259
  204POPC   GL2 2753   6.439   2.091   4.376
  204POPC   C1A 2754   6.131   2.283   4.725
  204POPC   D2A 2755   6.156   2.067   5.110
  204POPC   C3A 2756   6.245   2.261   5.471
  204POPC   C4A 2757   6.176   2.105   5.860
  204POPC   C1B 2758   6.435   1.863   4.730
  204POPC   C2B 2759   6.602   1.806   5.146
  204POPC   C3B 2760   6.471   1.787   5.573
  204POPC   C4B 2761   6.773   1.597   5.843
  205POPC   NC3 2762   1.861   3.337   3.763
  205POPC   PO4 2763   1.577   2.807   3.771
  205POPC   GL1 2764   1.691   3.081   4.183
  205POPC   GL2 2765   1.611   3.463   4.252
  205POPC   C1A 2766   1.627   3.180   4.661
  205POPC   D2A 2767   1.840   3.059   5.047
  205POPC   C3A 2768   1.811   3.278   5.420
  205POPC   C4A 2769   2.188   3.146   5.626
  205POPC   C1B 2770   1.955   3.562   4.631
  205POPC   C2B 2771   2.012   3.771   5.066
  205POPC   C3B 2772   2.134   3.660   5.497
  205POPC   C4B 2773   1.980   3.520   5.903
  206POPC   NC3 2774   6.316   3.503   3.891
  206POPC   PO4 2775   6.754   3.827   3.876
  206POPC   GL1 2776   6.679   3.652   4.295
  206POPC   GL2 2777   6.401   3.437   4.376
  206POPC   C1A 2778   6.558   3.736   4.753
  206POPC   D2A 2779   6.562   3.507   5.138
  206POPC   C3A 2780   6.538   3.714   5.585
  206POPC   C4A 2781   6.486   3.868   6.054
  206POPC   C1B 2782   6.231   3.289   4.757
  206POPC   C2B 2783   6.191   3.159   5.193
  206POPC   C3B 2784   6.480   3.194   5.535
  206POPC   C4B 2785   6.301   3.395   5.883
  207POPC   NC3 2786   9.818   7.424   3.886
  207POPC   PO4 2787   0.036   7.524   3.859
  207POPC   GL1 2788  10.363   7.423   4.267
  207POPC   GL2 2789  10.300   7.100   4.271
  207POPC   C1A 2790  10.415   7.283   4.724
  207POPC   D2A 2791  10.330   7.107   5.107
  207POPC   C3A 2792  10.282   7.394   5.434
  207POPC   C4A 2793  10.453   7.355   5.826
  207POPC   C1B 2794   9.933   7.251   4.546
  207POPC   C2B 2795   9.725   7.140   4.944
  207POPC   C3B 2796   9.842   7.123   5.375
  207POPC   C4B 2797  10.027   7.077   5.781
  208POPC   NC3 2798   0.155  10.014   3.690
  208POPC   PO4 2799   0.485   0.105   3.890
  208POPC   GL1 2800   0.293  10.392   4.226
  208POPC   GL2 2801   0.334  10.050   4.178
  208POPC   C1A 2802   0.207  10.497   4.659
  208POPC   D2A 2803   0.463  10.495   5.032
  208POPC   C3A 2804   0.415  10.225   5.407
  208POPC   C4A 2805   0.266  10.236   5.823
  208POPC   C1B 2806   0.487  10.064   4.619
  208POPC   C2B 2807   0.409   9.848   5.013
  208POPC   C3B 2808   0.259   9.721   5.432
  208POPC   C4B 2809   0.409   9.757   5.857
  209POPC   NC3 2810   4.021   0.382   3.937
  209POPC   PO4 2811   4.354   0.829   3.674
  209POPC   GL1 2812   4.354   0.650   4.197
  209POPC   GL2 2813   4.301   0.312   4.364
  209POPC   C1A 2814   4.321   0.729   4.669
  209POPC   D2A 2815   4.128   0.709   5.095
  209POPC   C3A 2816   4.342   0.632   5.445
  209POPC   C4A 2817   4.329   0.518   5.839
  209POPC   C1B 2818   4.023   0.295   4.736
  209POPC   C2B 2819   4.119   0.202   5.183
  209POPC   C3B 2820   3.926   0.348   5.562
  209POPC   C4B 2821   3.952   0.221   6.003
  210POPC   NC3 2822   1.914   8.196   3.782
  210POPC   PO4 2823   1.996   7.508   3.664
  210POPC   GL1 2824   2.093   7.683   4.126
  210POPC   GL2 2825   2.026   8.034   4.266
  210POPC   C1A 2826   2.280   7.615   4.568
  210POPC   D2A 2827   2.436   7.747   4.999
  210POPC   C3A 2828   2.263   7.614   5.398
  210POPC   C4A 2829   2.109   7.536   5.815
  210POPC   C1B 2830   1.980   7.996   4.728
  210POPC   C2B 2831   2.046   8.021   5.166
  210POPC   C3B 2832   1.819   7.865   5.501
  210POPC   C4B 2833   1.672   7.824   5.925
  211POPC   NC3 2834   1.748   9.714   3.989
  211POPC   PO4 2835   2.009  10.341   3.788
  211POPC   GL1 2836   1.876  10.218   4.173
  211POPC   GL2 2837   1.514  10.283   4.157
  211POPC   C1A 2838   2.053  10.227   4.600
  211POPC   D2A 2839   2.180  10.383   5.027
  211POPC   C3A 2840   2.060  10.141   5.391
  211POPC   C4A 2841   1.871  10.294   5.748
  211POPC   C1B 2842   1.507  10.218   4.598
  211POPC   C2B 2843   1.727  10.088   4.975
  211POPC   C3B 2844   1.558  10.161   5.381
  211POPC   C4B 2845   1.710   9.827   5.681
  212POPC   NC3 2846   2.361   5.687   3.749
  212POPC   PO4 2847   1.728   5.382   3.687
  212POPC   GL1 2848   1.820   5.431   4.159
  212POPC   GL2 2849   1.501   5.433   4.316
  212POPC   C1A 2850   1.970   5.561   4.632
  212POPC   D2A 2851   2.173   5.849   4.988
  212POPC   C3A 2852   2.330   5.765   5.421
  212POPC   C4A 2853   2.190   5.620   5.833
  212POPC   C1B 2854   1.495   5.746   4.655
  212POPC   C2B 2855   1.698   5.744   5.065
  212POPC   C3B 2856   1.825   5.571   5.489
  212POPC   C4B 2857   1.729   5.814   5.842
  213POPC   NC3 2858   3.081   9.463   3.928
  213POPC   PO4 2859   3.744   9.102   3.890
  213POPC   GL1 2860   3.603   9.251   4.345
  213POPC   GL2 2861   3.557   9.629   4.417
  213POPC   C1A 2862   3.553   9.144   4.773
  213POPC   D2A 2863   3.810   9.121   5.123
  213POPC   C3A 2864   3.651   9.415   5.383
  213POPC   C4A 2865   3.509   9.392   5.811
  213POPC   C1B 2866   3.218   9.521   4.685
  213POPC   C2B 2867   3.198   9.372   5.109
  213POPC   C3B 2868   3.174   9.573   5.493
  213POPC   C4B 2869   3.084   9.823   5.855
  214POPC   NC3 2870   1.680   7.185   3.683
  214POPC   PO4 2871   2.162   6.794   3.919
  214POPC   GL1 2872   1.929   6.944   4.242
  214POPC   GL2 2873   1.783   7.265   4.183
  214POPC   C1A 2874   2.070   7.136   4.633
  214POPC   D2A 2875   2.307   7.253   5.002
  214POPC   C3A 2876   2.206   7.098   5.419
  214POPC   C4A 2877   2.069   7.020   5.845
  214POPC   C1B 2878   1.757   7.547   4.566
  214POPC   C2B 2879   1.868   7.557   5.034
  214POPC   C3B 2880   1.758   7.357   5.462
  214POPC   C4B 2881   1.638   7.306   5.912
  215POPC   NC3 2882   1.754   6.463   3.997
  215POPC   PO4 2883   2.365   6.125   3.893
  215POPC   GL1 2884   2.123   6.174   4.241
  215POPC   GL2 2885   2.195   6.497   4.324
  215POPC   C1A 2886   1.905   6.090   4.627
  215POPC   D2A 2887   1.830   6.272   5.041
  215POPC   C3A 2888   1.897   6.070   5.419
  215POPC   C4A 2889   2.108   6.125   5.787
  215POPC   C1B 2890   1.974   6.618   4.674
  215POPC   C2B 2891   2.115   6.718   5.088
  215POPC   C3B 2892   2.085   6.593   5.540
  215POPC   C4B 2893   1.707   6.455   5.754
  216POPC   NC3 2894   4.626   2.114   4.112
  216POPC   PO4 2895   5.248   1.845   4.006
  216POPC   GL1 2896   5.235   1.997   4.375
  216POPC   GL2 2897   4.915   2.048   4.521
  216POPC   C1A 2898   5.256   1.727   4.736
  216POPC   D2A 2899   4.977   1.821   5.039
  216POPC   C3A 2900   5.076   1.763   5.425
  216POPC   C4A 2901   5.449   1.635   5.554
  216POPC   C1B 2902   4.806   2.338   4.846
  216POPC   C2B 2903   4.798   2.447   5.281
  216POPC   C3B 2904   4.895   2.200   5.621
  216POPC   C4B 2905   4.666   1.834   5.823
  217POPC   NC3 2906   7.935   9.990   3.814
  217POPC   PO4 2907   7.593   0.141   3.966
  217POPC   GL1 2908   7.875   0.172   4.309
  217POPC   GL2 2909   8.117  10.407   4.228
  217POPC   C1A 2910   7.795   0.041   4.738
  217POPC   D2A 2911   7.999  10.413   5.123
  217POPC   C3A 2912   7.674  10.347   5.420
  217POPC   C4A 2913   7.563  10.486   5.815
  217POPC   C1B 2914   8.210  10.219   4.633
  217POPC   C2B 2915   8.226   9.934   4.972
  217POPC   C3B 2916   8.120   9.835   5.364
  217POPC   C4B 2917   8.024  10.078   5.708
  218POPC   NC3 2918   4.990   7.683   3.933
  218POPC   PO4 2919   4.600   7.954   4.239
  218POPC   GL1 2920   4.967   7.887   4.439
  218POPC   GL2 2921   4.961   8.230   4.513
  218POPC   C1A 2922   4.994   7.730   4.888
  218POPC   D2A 2923   4.732   7.601   5.262
  218POPC   C3A 2924   4.948   7.491   5.665
  218POPC   C4A 2925   4.806   7.388   6.128
  218POPC   C1B 2926   4.642   8.105   4.854
  218POPC   C2B 2927   4.596   8.099   5.284
  218POPC   C3B 2928   4.804   8.280   5.582
  218POPC   C4B 2929   5.161   8.139   5.831
  219POPC   NC3 2930   2.753   8.560   3.942
  219POPC   PO4 2931   3.166   9.088   4.179
  219POPC   GL1 2932   3.059   8.671   4.326
  219POPC   GL2 2933   2.715   8.717   4.415
  219POPC   C1A 2934   2.950   8.358   4.659
  219POPC   D2A 2935   2.942   8.525   5.030
  219POPC   C3A 2936   2.949   8.381   5.402
  219POPC   C4A 2937   2.959   8.702   5.704
  219POPC   C1B 2938   2.546   8.761   4.840
  219POPC   C2B 2939   2.304   8.839   5.175
  219POPC   C3B 2940   2.470   8.664   5.527
  219POPC   C4B 2941   2.554   8.422   5.868
  220POPC   NC3 2942   6.380   7.171   4.040
  220POPC   PO4 2943   6.970   7.466   3.894
  220POPC   GL1 2944   6.835   7.441   4.329
  220POPC   GL2 2945   6.811   7.098   4.450
  220POPC   C1A 2946   6.740   7.475   4.806
  220POPC   D2A 2947   6.640   7.186   5.163
  220POPC   C3A 2948   6.589   7.302   5.583
  220POPC   C4A 2949   6.498   7.165   6.003
  220POPC   C1B 2950   6.415   7.054   4.724
  220POPC   C2B 2951   6.190   6.958   5.124
  220POPC   C3B 2952   6.285   6.896   5.552
  220POPC   C4B 2953   6.072   7.254   5.712
  221POPC   NC3 2954   0.948   4.561   3.871
  221POPC   PO4 2955   1.150   5.243   3.949
  221POPC   GL1 2956   1.191   5.028   4.301
  221POPC   GL2 2957   1.134   4.704   4.312
  221POPC   C1A 2958   1.382   4.994   4.676
  221POPC   D2A 2959   1.524   5.294   4.926
  221POPC   C3A 2960   1.470   5.212   5.344
  221POPC   C4A 2961   1.536   4.963   5.731
  221POPC   C1B 2962   0.900   4.795   4.682
  221POPC   C2B 2963   1.032   5.015   5.047
  221POPC   C3B 2964   1.141   4.820   5.430
  221POPC   C4B 2965   1.035   5.074   5.782
  222POPC   NC3 2966   2.897   0.577   3.923
  222POPC   PO4 2967   2.276   0.251   4.069
  222POPC   GL1 2968   2.575   0.308   4.385
  222POPC   GL2 2969   2.938   0.264   4.303
  222POPC   C1A 2970   2.442   0.280   4.810
  222POPC   D2A 2971   2.395   0.312   5.234
  222POPC   C3A 2972   2.327   0.052   5.542
  222POPC   C4A 2973   2.429   0.309   5.869
  222POPC   C1B 2974   2.987   0.532   4.670
  222POPC   C2B 2975   2.830   0.528   5.100
  222POPC   C3B 2976   2.767   0.660   5.532
  222POPC   C4B 2977   2.754   0.678   5.985
  223POPC   NC3 2978   8.414   5.764   3.948
  223POPC   PO4 2979   9.168   5.655   3.947
  223POPC   GL1 2980   8.816   5.605   4.254
  223POPC   GL2 2981   8.676   5.928   4.381
  223POPC   C1A 2982   8.719   5.497   4.681
  223POPC   D2A 2983   8.906   5.286   5.028
  223POPC   C3A 2984   8.824   5.319   5.444
  223POPC   C4A 2985   8.794   5.439   5.842
  223POPC   C1B 2986   8.856   5.990   4.808
  223POPC   C2B 2987   9.036   5.755   5.139
  223POPC   C3B 2988   8.976   5.864   5.565
  223POPC   C4B 2989   8.587   5.951   5.780
  224POPC   NC3 2990   3.331  10.325   3.917
  224POPC   PO4 2991   2.771   9.913   3.839
  224POPC   GL1 2992   3.126   9.880   4.222
  224POPC   GL2 2993   3.410  10.132   4.372
  224POPC   C1A 2994   3.049  10.004   4.670
  224POPC   D2A 2995   3.218  10.237   5.005
  224POPC   C3A 2996   3.233  10.089   5.423
  224POPC   C4A 2997   3.231  10.309   5.817
  224POPC   C1B 2998   3.706  10.310   4.646
  224POPC   C2B 2999   3.676  10.491   5.032
  224POPC   C3B 3000   3.532   0.028   5.458
  224POPC   C4B 3001   3.730  10.317   5.824
  225POPC   NC3 3002   6.615  10.214   3.871
  225POPC   PO4 3003   6.009  10.016   3.912
  225POPC   GL1 3004   6.260  10.266   4.263
  225POPC   GL2 3005   6.654  10.376   4.343
  225POPC   C1A 3006   6.310  10.221   4.713
  225POPC   D2A 3007   6.159  10.115   5.127
  225POPC   C3A 3008   6.338  10.434   5.411
  225POPC   C4A 3009   6.156   0.041   5.819
  225POPC   C1B 3010   6.820  10.218   4.737
  225POPC   C2B 3011   6.682  10.119   5.128
  225POPC   C3B 3012   6.688   9.903   5.513
  225POPC   C4B 3013   6.615  10.215   5.820
  226POPC   NC3 3014   6.532   8.680   3.911
  226POPC   PO4 3015   6.920   8.149   3.987
  226POPC   GL1 3016   6.707   8.407   4.343
  226POPC   GL2 3017   6.328   8.464   4.331
  226POPC   C1A 3018   6.546   8.415   4.803
  226POPC   D2A 3019   6.647   8.645   5.180
  226POPC   C3A 3020   6.417   8.510   5.532
  226POPC   C4A 3021   6.366   8.483   6.011
  226POPC   C1B 3022   6.172   8.759   4.647
  226POPC   C2B 3023   6.245   8.952   5.056
  226POPC   C3B 3024   6.081   9.030   5.477
  226POPC   C4B 3025   5.977   8.640   5.727
  227POPC   NC3 3026   7.149   1.840   3.852
  227POPC   PO4 3027   6.701   2.330   3.962
  227POPC   GL1 3028   6.938   2.171   4.316
  227POPC   GL2 3029   6.981   1.834   4.367
  227POPC   C1A 3030   6.880   2.062   4.779
  227POPC   D2A 3031   7.069   2.143   5.125
  227POPC   C3A 3032   6.858   2.105   5.531
  227POPC   C4A 3033   7.061   2.223   5.913
  227POPC   C1B 3034   7.356   1.997   4.672
  227POPC   C2B 3035   7.543   1.912   5.080
  227POPC   C3B 3036   7.400   2.044   5.482
  227POPC   C4B 3037   7.261   1.777   5.815
  228POPC   NC3 3038   9.399   1.348   3.987
  228POPC   PO4 3039  10.027   1.453   3.887
  228POPC   GL1 3040   9.803   1.489   4.286
  228POPC   GL2 3041   9.714   1.127   4.319
  228POPC   C1A 3042   9.871   1.360   4.740
  228POPC   D2A 3043   9.821   1.081   5.085
  228POPC   C3A 3044   9.706   1.191   5.474
  228POPC   C4A 3045   9.774   1.527   5.725
  228POPC   C1B 3046   9.384   1.246   4.602
  228POPC   C2B 3047   9.306   1.207   4.995
  228POPC   C3B 3048   9.215   1.161   5.403
  228POPC   C4B 3049   9.304   1.329   5.847
  229POPC   NC3 3050   9.283   5.164   4.007
  229POPC   PO4 3051   9.858   5.249   3.899
  229POPC   GL1 3052   9.744   5.068   4.316
  229POPC   GL2 3053   9.504   4.801   4.301
  229POPC   C1A 3054   9.708   4.907   4.757
  229POPC   D2A 3055   9.670   4.755   5.184
  229POPC   C3A 3056   9.709   5.111   5.448
  229POPC   C4A 3057   9.619   5.234   5.881
  229POPC   C1B 3058   9.213   5.012   4.612
  229POPC   C2B 3059   9.229   4.920   4.973
  229POPC   C3B 3060   9.215   4.967   5.356
  229POPC   C4B 3061   9.176   5.064   5.734
  230POPC   NC3 3062   7.069   0.545   3.819
  230POPC   PO4 3063   7.684   0.883   3.857
  230POPC   GL1 3064   7.526   0.605   4.213
  230POPC   GL2 3065   7.228   0.387   4.262
  230POPC   C1A 3066   7.334   0.673   4.654
  230POPC   D2A 3067   7.124   0.577   5.066
  230POPC   C3A 3068   7.398   0.741   5.429
  230POPC   C4A 3069   7.528   0.534   5.822
  230POPC   C1B 3070   7.173   0.169   4.657
  230POPC   C2B 3071   7.284   0.068   5.067
  230POPC   C3B 3072   7.306   0.231   5.441
  230POPC   C4B 3073   7.058   0.410   5.711
  231POPC   NC3 3074   1.933   4.345   3.996
  231POPC   PO4 3075   1.927   3.725   3.966
  231POPC   GL1 3076   1.970   3.957   4.331
  231POPC   GL2 3077   1.625   4.008   4.292
  231POPC   C1A 3078   2.115   4.234   4.695
  231POPC   D2A 3079   2.094   4.485   5.099
  231POPC   C3A 3080   2.072   4.183   5.459
  231POPC   C4A 3081   2.291   3.999   5.832
  231POPC   C1B 3082   1.664   3.979   4.749
  231POPC   C2B 3083   1.638   4.289   5.091
  231POPC   C3B 3084   1.620   4.364   5.569
  231POPC   C4B 3085   1.754   3.960   5.784
  232POPC   NC3 3086   2.263   7.241   3.912
  232POPC   PO4 3087   2.813   7.547   3.826
  232POPC   GL1 3088   2.648   7.326   4.222
  232POPC   GL2 3089   2.501   6.966   4.268
  232POPC   C1A 3090   2.683   7.300   4.652
  232POPC   D2A 3091   2.896   7.456   5.004
  232POPC   C3A 3092   2.686   7.314   5.354
  232POPC   C4A 3093   2.548   7.256   5.760
  232POPC   C1B 3094   2.472   6.815   4.699
  232POPC   C2B 3095   2.602   6.849   5.147
  232POPC   C3B 3096   2.582   6.775   5.617
  232POPC   C4B 3097   2.489   6.882   6.092
  233POPC   NC3 3098   3.994   1.332   3.930
  233POPC   PO4 3099   3.282   1.282   3.879
  233POPC   GL1 3100   3.574   1.225   4.198
  233POPC   GL2 3101   3.540   0.934   4.313
  233POPC   C1A 3102   3.652   1.372   4.599
  233POPC   D2A 3103   3.461   1.392   5.016
  233POPC   C3A 3104   3.676   1.429   5.431
  233POPC   C4A 3105   3.625   1.220   5.800
  233POPC   C1B 3106   3.284   0.994   4.660
  233POPC   C2B 3107   3.209   0.895   5.071
  233POPC   C3B 3108   3.258   1.103   5.441
  233POPC   C4B 3109   3.192   0.874   5.791
  234POPC   NC3 3110   2.059   8.779   3.693
  234POPC   PO4 3111   2.219   8.756   4.329
  234POPC   GL1 3112   1.880   8.786   4.571
  234POPC   GL2 3113   1.736   8.440   4.569
  234POPC   C1A 3114   1.831   8.976   4.956
  234POPC   D2A 3115   1.773   8.949   5.363
  234POPC   C3A 3116   2.134   9.081   5.607
  234POPC   C4A 3117   2.211   8.811   5.940
  234POPC   C1B 3118   2.008   8.475   4.943
  234POPC   C2B 3119   1.990   8.477   5.396
  234POPC   C3B 3120   1.872   8.424   5.823
  234POPC   C4B 3121   2.164   8.374   6.210
  235POPC   NC3 3122   6.840   2.755   4.109
  235POPC   PO4 3123   7.417   3.078   3.866
  235POPC   GL1 3124   7.377   2.876   4.249
  235POPC   GL2 3125   7.325   2.515   4.217
  235POPC   C1A 3126   7.264   2.976   4.668
  235POPC   D2A 3127   7.453   2.933   5.062
  235POPC   C3A 3128   7.263   3.003   5.464
  235POPC   C4A 3129   7.375   2.944   5.887
  235POPC   C1B 3130   7.149   2.482   4.655
  235POPC   C2B 3131   7.020   2.656   5.045
  235POPC   C3B 3132   7.121   2.526   5.467
  235POPC   C4B 3133   6.949   2.709   5.838
  236POPC   NC3 3134   7.139   3.586   3.817
  236POPC   PO4 3135   7.739   3.788   3.934
  236POPC   GL1 3136   7.407   3.505   4.224
  236POPC   GL2 3137   7.060   3.282   4.213
  236POPC   C1A 3138   7.340   3.480   4.641
  236POPC   D2A 3139   7.594   3.409   4.973
  236POPC   C3A 3140   7.431   3.463   5.343
  236POPC   C4A 3141   7.363   3.437   5.766
  236POPC   C1B 3142   6.838   3.267   4.624
  236POPC   C2B 3143   7.015   3.241   5.047
  236POPC   C3B 3144   6.943   3.413   5.461
  236POPC   C4B 3145   6.901   3.216   5.832
  237POPC   NC3 3146   2.380   3.652   3.998
  237POPC   PO4 3147   3.016   3.863   3.960
  237POPC   GL1 3148   2.765   3.676   4.326
  237POPC   GL2 3149   2.639   3.332   4.312
  237POPC   C1A 3150   2.467   3.787   4.693
  237POPC   D2A 3151   2.497   3.618   5.134
  237POPC   C3A 3152   2.638   3.797   5.530
  237POPC   C4A 3153   2.879   3.780   5.909
  237POPC   C1B 3154   2.568   3.283   4.754
  237POPC   C2B 3155   2.415   3.129   5.153
  237POPC   C3B 3156   2.653   3.289   5.519
  237POPC   C4B 3157   2.487   3.451   5.900
  238POPC   NC3 3158   9.641   0.442   3.778
  238POPC   PO4 3159   9.167   0.076   3.880
  238POPC   GL1 3160   9.469   0.247   4.220
  238POPC   GL2 3161   9.622   0.614   4.272
  238POPC   C1A 3162   9.403   0.339   4.653
  238POPC   D2A 3163   9.134   0.361   4.970
  238POPC   C3A 3164   9.283   0.275   5.333
  238POPC   C4A 3165   9.163   0.333   5.749
  238POPC   C1B 3166   9.619   0.810   4.716
  238POPC   C2B 3167   9.439   0.742   5.154
  238POPC   C3B 3168   9.428   0.773   5.618
  238POPC   C4B 3169   9.314   0.724   6.039
  239POPC   NC3 3170   8.511   8.557   3.990
  239POPC   PO4 3171   9.181   8.751   4.049
  239POPC   GL1 3172   8.970   8.625   4.416
  239POPC   GL2 3173   8.642   8.723   4.450
  239POPC   C1A 3174   8.917   8.582   4.859
  239POPC   D2A 3175   9.024   8.321   5.190
  239POPC   C3A 3176   8.973   8.614   5.527
  239POPC   C4A 3177   8.860   8.792   5.934
  239POPC   C1B 3178   8.400   8.584   4.795
  239POPC   C2B 3179   8.522   8.467   5.207
  239POPC   C3B 3180   8.464   8.631   5.565
  239POPC   C4B 3181   8.372   8.935   5.801
  240POPC   NC3 3182   1.794   0.212   3.961
  240POPC   PO4 3183   1.774   0.883   3.775
  240POPC   GL1 3184   1.973   0.659   4.140
  240POPC   GL2 3185   1.733   0.577   4.367
  240POPC   C1A 3186   2.196   0.674   4.587
  240POPC   D2A 3187   1.980   0.532   5.006
  240POPC   C3A 3188   2.063   0.607   5.462
  240POPC   C4A 3189   2.134   0.720   5.923
  240POPC   C1B 3190   1.883   0.216   4.617
  240POPC   C2B 3191   1.683   0.087   4.989
  240POPC   C3B 3192   1.844   0.148   5.377
  240POPC   C4B 3193   1.922   0.273   5.810
  241POPC   NC3 3194   4.258   3.641   3.916
  241POPC   PO4 3195   4.683   3.258   3.914
  241POPC   GL1 3196   4.462   3.320   4.293
  241POPC   GL2 3197   4.140   3.182   4.352
  241POPC   C1A 3198   4.371   3.440   4.727
  241POPC   D2A 3199   4.398   3.305   5.147
  241POPC   C3A 3200   4.343   3.673   5.462
  241POPC   C4A 3201   4.239   4.010   5.803
  241POPC   C1B 3202   4.047   3.027   4.730
  241POPC   C2B 3203   3.893   3.100   5.128
  241POPC   C3B 3204   4.054   3.258   5.509
  241POPC   C4B 3205   3.967   3.563   5.825
  242POPC   NC3 3206   0.359   8.770   3.975
  242POPC   PO4 3207   0.721   8.173   3.845
  242POPC   GL1 3208   0.765   8.402   4.280
  242POPC   GL2 3209   0.439   8.532   4.411
  242POPC   C1A 3210   0.822   8.775   4.612
  242POPC   D2A 3211   0.562   8.948   4.991
  242POPC   C3A 3212   0.657   8.862   5.464
  242POPC   C4A 3213   0.498   8.480   5.730
  242POPC   C1B 3214   0.105   8.762   4.600
  242POPC   C2B 3215   0.038   8.881   5.002
  242POPC   C3B 3216   0.190   8.700   5.353
  242POPC   C4B 3217   0.159   8.844   5.751
  243POPC   NC3 3218   1.252   2.583   4.009
  243POPC   PO4 3219   1.338   3.297   3.819
  243POPC   GL1 3220   1.180   3.088   4.190
  243POPC   GL2 3221   1.086   3.403   4.304
  243POPC   C1A 3222   1.165   2.971   4.633
  243POPC   D2A 3223   0.892   3.214   4.912
  243POPC   C3A 3224   0.898   3.156   5.353
  243POPC   C4A 3225   0.929   3.221   5.789
  243POPC   C1B 3226   1.290   3.572   4.664
  243POPC   C2B 3227   1.353   3.411   5.082
  243POPC   C3B 3228   1.227   3.502   5.497
  243POPC   C4B 3229   1.486   3.455   5.816
  244POPC   NC3 3230   6.036   2.807   4.098
  244POPC   PO4 3231   5.471   2.811   3.874
  244POPC   GL1 3232   5.524   2.840   4.307
  244POPC   GL2 3233   5.665   2.501   4.302
  244POPC   C1A 3234   5.449   3.007   4.765
  244POPC   D2A 3235   5.711   2.890   5.177
  244POPC   C3A 3236   5.664   2.989   5.618
  244POPC   C4A 3237   5.295   3.061   5.871
  244POPC   C1B 3238   5.737   2.593   4.749
  244POPC   C2B 3239   5.751   2.379   5.149
  244POPC   C3B 3240   5.792   2.482   5.602
  244POPC   C4B 3241   6.048   2.570   5.997
  245POPC   NC3 3242   0.201   4.514   3.957
  245POPC   PO4 3243   0.722   4.925   3.708
  245POPC   GL1 3244   0.703   5.002   4.173
  245POPC   GL2 3245   0.523   4.763   4.349
  245POPC   C1A 3246   0.617   5.202   4.597
  245POPC   D2A 3247   0.495   5.035   5.005
  245POPC   C3A 3248   0.659   4.980   5.416
  245POPC   C4A 3249   0.649   4.662   5.704
  245POPC   C1B 3250   0.153   4.899   4.657
  245POPC   C2B 3251   0.045   4.771   5.084
  245POPC   C3B 3252   0.163   4.796   5.523
  245POPC   C4B 3253   0.207   5.088   5.859
  246POPC   NC3 3254   4.310  10.124   3.901
  246POPC   PO4 3255   3.630   9.973   3.949
  246POPC   GL1 3256   3.932  10.035   4.247
  246POPC   GL2 3257   4.034  10.389   4.232
  246POPC   C1A 3258   3.956   9.872   4.639
  246POPC   D2A 3259   3.600   9.879   4.926
  246POPC   C3A 3260   3.752  10.053   5.315
  246POPC   C4A 3261   3.649   9.845   5.665
  246POPC   C1B 3262   4.208  10.316   4.637
  246POPC   C2B 3263   4.398  10.042   4.959
  246POPC   C3B 3264   4.297  10.054   5.395
  246POPC   C4B 3265   4.198  10.424   5.645
  247POPC   NC3 3266   6.208   9.575   4.001
  247POPC   PO4 3267   6.819   9.841   4.018
  247POPC   GL1 3268   6.508   9.828   4.398
  247POPC   GL2 3269   6.300   9.509   4.482
  247POPC   C1A 3270   6.437   9.758   4.879
  247POPC   D2A 3271   6.362   9.435   5.181
  247POPC   C3A 3272   6.230   9.587   5.534
  247POPC   C4A 3273   6.191  10.001   5.634
  247POPC   C1B 3274   6.601   9.293   4.748
  247POPC   C2B 3275   6.782   9.152   5.158
  247POPC   C3B 3276   6.686   9.318   5.593
  247POPC   C4B 3277   6.657   9.307   6.080
  248POPC   NC3 3278   0.798   7.015   4.123
  248POPC   PO4 3279   1.470   6.861   3.940
  248POPC   GL1 3280   1.303   7.050   4.307
  248POPC   GL2 3281   1.134   7.389   4.311
  248POPC   C1A 3282   1.160   7.044   4.730
  248POPC   D2A 3283   1.271   6.961   5.149
  248POPC   C3A 3284   0.909   6.925   5.375
  248POPC   C4A 3285   0.888   7.021   5.786
  248POPC   C1B 3286   1.242   7.553   4.741
  248POPC   C2B 3287   1.361   7.593   5.181
  248POPC   C3B 3288   1.229   7.335   5.532
  248POPC   C4B 3289   1.374   6.902   5.690
  249POPC   NC3 3290   4.110   7.208   3.958
  249POPC   PO4 3291   4.623   7.472   3.771
  249POPC   GL1 3292   4.511   7.454   4.231
  249POPC   GL2 3293   4.204   7.329   4.430
  249POPC   C1A 3294   4.596   7.445   4.707
  249POPC   D2A 3295   4.419   7.125   4.986
  249POPC   C3A 3296   4.298   7.279   5.363
  249POPC   C4A 3297   4.494   7.276   5.751
  249POPC   C1B 3298   4.005   7.009   4.715
  249POPC   C2B 3299   3.886   7.031   5.186
  249POPC   C3B 3300   4.140   6.832   5.534
  249POPC   C4B 3301   4.567   6.759   5.715
  250POPC   NC3 3302   4.796   8.295   3.996
  250POPC   PO4 3303   4.731   8.947   3.973
  250POPC   GL1 3304   4.915   8.712   4.306
  250POPC   GL2 3305   5.241   8.548   4.180
  250POPC   C1A 3306   4.901   8.757   4.757
  250POPC   D2A 3307   4.803   8.583   5.148
  250POPC   C3A 3308   4.811   8.785   5.583
  250POPC   C4A 3309   4.764   8.873   6.053
  250POPC   C1B 3310   5.348   8.541   4.614
  250POPC   C2B 3311   5.498   8.543   5.042
  250POPC   C3B 3312   5.228   8.517   5.426
  250POPC   C4B 3313   5.220   8.641   5.871
  251POPC   NC3 3314   7.771   5.108   4.344
  251POPC   PO4 3315   8.248   5.294   3.989
  251POPC   GL1 3316   8.288   5.190   4.372
  251POPC   GL2 3317   8.283   4.860   4.388
  251POPC   C1A 3318   8.209   5.325   4.773
  251POPC   D2A 3319   7.893   5.126   5.069
  251POPC   C3A 3320   7.886   5.207   5.498
  251POPC   C4A 3321   7.917   5.285   5.911
  251POPC   C1B 3322   8.143   4.818   4.772
  251POPC   C2B 3323   8.239   4.700   5.132
  251POPC   C3B 3324   7.995   4.626   5.473
  251POPC   C4B 3325   7.901   4.765   5.857
  252POPC   NC3 3326   7.653   9.026   3.784
  252POPC   PO4 3327   8.142   8.580   3.682
  252POPC   GL1 3328   7.966   8.749   4.101
  252POPC   GL2 3329   8.150   8.566   4.326
  252POPC   C1A 3330   7.816   8.802   4.592
  252POPC   D2A 3331   8.023   9.002   4.965
  252POPC   C3A 3332   7.984   8.869   5.414
  252POPC   C4A 3333   7.886   9.055   5.867
  252POPC   C1B 3334   8.009   8.294   4.646
  252POPC   C2B 3335   8.139   8.122   5.026
  252POPC   C3B 3336   8.091   8.314   5.425
  252POPC   C4B 3337   8.003   8.555   5.809
  253POPC   NC3 3338   8.796   1.314   3.953
  253POPC   PO4 3339   8.369   0.759   3.835
  253POPC   GL1 3340   8.419   1.077   4.187
  253POPC   GL2 3341   8.686   0.937   4.388
  253POPC   C1A 3342   8.394   1.373   4.590
  253POPC   D2A 3343   8.442   1.671   4.970
  253POPC   C3A 3344   8.398   1.477   5.422
  253POPC   C4A 3345   8.424   1.103   5.726
  253POPC   C1B 3346   8.875   1.257   4.684
  253POPC   C2B 3347   8.821   1.365   5.133
  253POPC   C3B 3348   8.857   1.419   5.604
  253POPC   C4B 3349   8.922   1.006   5.840
  254POPC   NC3 3350   1.366   5.641   3.834
  254POPC   PO4 3351   0.734   5.900   3.772
  254POPC   GL1 3352   0.959   5.972   4.140
  254POPC   GL2 3353   0.984   5.621   4.236
  254POPC   C1A 3354   1.055   6.005   4.591
  254POPC   D2A 3355   0.810   6.014   4.993
  254POPC   C3A 3356   0.964   6.001   5.390
  254POPC   C4A 3357   0.965   5.737   5.769
  254POPC   C1B 3358   1.076   5.434   4.645
  254POPC   C2B 3359   1.137   5.609   5.055
  254POPC   C3B 3360   1.356   5.711   5.430
  254POPC   C4B 3361   1.389   5.458   5.781
  255POPC   NC3 3362   7.205   9.574   3.916
  255POPC   PO4 3363   7.355   9.004   4.123
  255POPC   GL1 3364   7.203   9.294   4.368
  255POPC   GL2 3365   6.873   9.423   4.311
  255POPC   C1A 3366   7.116   9.246   4.765
  255POPC   D2A 3367   7.319   9.299   5.112
  255POPC   C3A 3368   7.196   9.086   5.461
  255POPC   C4A 3369   7.084   9.126   5.858
  255POPC   C1B 3370   6.911   9.701   4.672
  255POPC   C2B 3371   6.917   9.648   5.093
  255POPC   C3B 3372   7.123   9.603   5.477
  255POPC   C4B 3373   6.982   9.640   5.895
  256POPC   NC3 3374   0.421   3.753   4.132
  256POPC   PO4 3375   0.702   3.245   3.960
  256POPC   GL1 3376   0.406   3.241   4.272
  256POPC   GL2 3377   0.616   3.428   4.472
  256POPC   C1A 3378   0.190   3.285   4.657
  256POPC   D2A 3379   0.362   3.502   5.012
  256POPC   C3A 3380   0.219   3.343   5.408
  256POPC   C4A 3381   0.435   3.272   5.781
  256POPC   C1B 3382   0.789   3.688   4.748
  256POPC   C2B 3383   0.888   3.659   5.151
  256POPC   C3B 3384   0.696   3.612   5.493
  256POPC   C4B 3385   0.819   3.714   5.885
  257POPC   NC3 3386   7.197  10.422   4.056
  257POPC   PO4 3387   7.510   9.914   3.973
  257POPC   GL1 3388   7.318   9.793   4.361
  257POPC   GL2 3389   7.103  10.051   4.370
  257POPC   C1A 3390   7.405   9.709   4.809
  257POPC   D2A 3391   7.701   9.960   5.065
  257POPC   C3A 3392   7.607   9.830   5.484
  257POPC   C4A 3393   7.279  10.026   5.735
  257POPC   C1B 3394   7.337  10.189   4.734
  257POPC   C2B 3395   7.207  10.080   5.183
  257POPC   C3B 3396   6.969  10.359   5.473
  257POPC   C4B 3397   7.067  10.454   5.899
  258POPC   NC3 3398   0.246   3.805   3.639
  258POPC   PO4 3399   0.708   4.117   3.958
  258POPC   GL1 3400   0.483   4.228   4.338
  258POPC   GL2 3401   0.175   4.415   4.455
  258POPC   C1A 3402   0.362   4.007   4.710
  258POPC   D2A 3403   0.538   4.018   5.084
  258POPC   C3A 3404   0.271   3.875   5.367
  258POPC   C4A 3405   0.294   3.749   5.782
  258POPC   C1B 3406   0.466   4.519   4.813
  258POPC   C2B 3407   0.730   4.492   5.188
  258POPC   C3B 3408   0.703   4.165   5.547
  258POPC   C4B 3409   0.313   4.254   5.723
  259POPC   NC3 3410   9.153   7.377   3.700
  259POPC   PO4 3411   9.590   7.830   3.961
  259POPC   GL1 3412   9.353   7.483   4.177
  259POPC   GL2 3413   9.490   7.127   4.251
  259POPC   C1A 3414   9.182   7.442   4.587
  259POPC   D2A 3415   9.168   7.519   5.009
  259POPC   C3A 3416   9.416   7.405   5.352
  259POPC   C4A 3417   9.262   7.518   5.773
  259POPC   C1B 3418   9.324   6.969   4.674
  259POPC   C2B 3419   9.323   6.750   5.080
  259POPC   C3B 3420   9.285   6.915   5.500
  259POPC   C4B 3421   9.532   7.093   5.776
  260POPC   NC3 3422   2.761   2.562   3.848
  260POPC   PO4 3423   2.293   3.143   3.893
  260POPC   GL1 3424   2.448   2.846   4.232
  260POPC   GL2 3425   2.578   2.505   4.314
  260POPC   C1A 3426   2.516   2.784   4.709
  260POPC   D2A 3427   2.837   2.872   5.012
  260POPC   C3A 3428   2.675   2.785   5.426
  260POPC   C4A 3429   2.589   2.882   5.849
  260POPC   C1B 3430   2.957   2.508   4.588
  260POPC   C2B 3431   3.252   2.492   4.925
  260POPC   C3B 3432   3.126   2.554   5.327
  260POPC   C4B 3433   2.966   2.520   5.749
  261POPC   NC3 3434   8.899   4.333   3.906
  261POPC   PO4 3435   9.549   3.977   3.923
  261POPC   GL1 3436   9.263   4.009   4.246
  261POPC   GL2 3437   9.229   4.352   4.313
  261POPC   C1A 3438   9.383   3.987   4.679
  261POPC   D2A 3439   9.463   3.749   5.058
  261POPC   C3A 3440   9.385   3.994   5.418
  261POPC   C4A 3441   9.507   3.988   5.833
  261POPC   C1B 3442   9.364   4.506   4.710
  261POPC   C2B 3443   9.215   4.471   5.167
  261POPC   C3B 3444   9.345   4.520   5.605
  261POPC   C4B 3445   9.628   4.458   5.965
  262POPC   NC3 3446   5.054   2.990   3.889
  262POPC   PO4 3447   4.515   2.516   3.893
  262POPC   GL1 3448   4.785   2.596   4.285
  262POPC   GL2 3449   5.126   2.483   4.168
  262POPC   C1A 3450   4.899   2.862   4.700
  262POPC   D2A 3451   4.792   2.951   5.168
  262POPC   C3A 3452   4.846   2.920   5.642
  262POPC   C4A 3453   4.837   3.283   5.991
  262POPC   C1B 3454   5.245   2.518   4.593
  262POPC   C2B 3455   5.237   2.658   5.066
  262POPC   C3B 3456   5.276   2.657   5.529
  262POPC   C4B 3457   5.082   2.567   5.948
  263POPC   NC3 3458   0.252   6.094   3.906
  263POPC   PO4 3459   0.611   6.706   3.859
  263POPC   GL1 3460   0.583   6.375   4.172
  263POPC   GL2 3461   0.240   6.358   4.321
  263POPC   C1A 3462   0.600   6.236   4.604
  263POPC   D2A 3463   0.512   6.482   4.970
  263POPC   C3A 3464   0.559   6.295   5.366
  263POPC   C4A 3465   0.671   6.144   5.770
  263POPC   C1B 3466   0.075   6.323   4.728
  263POPC   C2B 3467  10.475   6.550   5.056
  263POPC   C3B 3468   0.196   6.638   5.386
  263POPC   C4B 3469   0.347   6.518   5.784
  264POPC   NC3 3470   0.635   1.441   3.789
  264POPC   PO4 3471   0.929   0.824   3.736
  264POPC   GL1 3472   0.719   1.047   4.123
  264POPC   GL2 3473   0.392   1.243   4.185
  264POPC   C1A 3474   0.670   1.169   4.601
  264POPC   D2A 3475   0.579   0.973   4.996
  264POPC   C3A 3476   0.647   1.102   5.406
  264POPC   C4A 3477   0.755   1.001   5.794
  264POPC   C1B 3478   0.160   1.102   4.563
  264POPC   C2B 3479   0.102   0.878   4.931
  264POPC   C3B 3480   0.053   0.848   5.391
  264POPC   C4B 3481   0.229   1.110   5.713
  265POPC   NC3 3482   6.628   7.814   3.855
  265POPC   PO4 3483   6.079   7.522   3.983
  265POPC   GL1 3484   6.343   7.625   4.331
  265POPC   GL2 3485   6.603   7.902   4.356
  265POPC   C1A 3486   6.242   7.560   4.770
  265POPC   D2A 3487   6.237   7.490   5.214
  265POPC   C3A 3488   6.399   7.777   5.503
  265POPC   C4A 3489   6.361   7.636   5.908
  265POPC   C1B 3490   6.252   8.047   4.605
  265POPC   C2B 3491   6.324   8.011   5.050
  265POPC   C3B 3492   6.703   8.138   5.277
  265POPC   C4B 3493   6.770   8.205   5.721
  266POPC   NC3 3494   8.068   1.145   3.774
  266POPC   PO4 3495   7.530   1.603   3.664
  266POPC   GL1 3496   7.765   1.324   4.117
  266POPC   GL2 3497   7.535   1.104   4.332
  266POPC   C1A 3498   8.004   1.076   4.456
  266POPC   D2A 3499   8.168   0.923   4.848
  266POPC   C3A 3500   7.878   0.902   5.208
  266POPC   C4A 3501   7.961   1.188   5.552
  266POPC   C1B 3502   7.623   1.092   4.798
  266POPC   C2B 3503   7.510   1.390   5.142
  266POPC   C3B 3504   7.543   1.455   5.561
  266POPC   C4B 3505   7.549   1.075   5.832
  267POPC   NC3 3506   0.695   5.374   3.829
  267POPC   PO4 3507   0.192   4.970   4.030
  267POPC   GL1 3508   0.295   5.341   4.212
  267POPC   GL2 3509   0.437   5.680   4.157
  267POPC   C1A 3510   0.167   5.463   4.627
  267POPC   D2A 3511   0.043   5.298   5.022
  267POPC   C3A 3512   0.274   5.305   5.398
  267POPC   C4A 3513   0.586   5.398   5.742
  267POPC   C1B 3514   0.614   5.716   4.587
  267POPC   C2B 3515   0.502   5.598   5.034
  267POPC   C3B 3516   0.380   5.814   5.454
  267POPC   C4B 3517   0.194   6.012   5.849
  268POPC   NC3 3518   9.141   6.041   4.204
  268POPC   PO4 3519   8.587   6.227   3.865
  268POPC   GL1 3520   8.685   6.414   4.224
  268POPC   GL2 3521   8.960   6.523   4.116
  268POPC   C1A 3522   8.523   6.354   4.637
  268POPC   D2A 3523   8.408   6.277   5.038
  268POPC   C3A 3524   8.658   6.252   5.381
  268POPC   C4A 3525   8.470   6.451   5.759
  268POPC   C1B 3526   8.958   6.613   4.602
  268POPC   C2B 3527   8.822   6.600   5.032
  268POPC   C3B 3528   8.821   6.727   5.486
  268POPC   C4B 3529   8.984   6.685   5.907
  269POPC   NC3 3530   5.558   9.835   3.917
  269POPC   PO4 3531   5.864   9.238   3.971
  269POPC   GL1 3532   5.806   9.615   4.301
  269POPC   GL2 3533   5.457   9.665   4.374
  269POPC   C1A 3534   5.915   9.853   4.691
  269POPC   D2A 3535   5.893   9.662   5.117
  269POPC   C3A 3536   5.700   9.846   5.484
  269POPC   C4A 3537   5.849   9.685   5.862
  269POPC   C1B 3538   5.490   9.563   4.788
  269POPC   C2B 3539   5.406   9.447   5.186
  269POPC   C3B 3540   5.646   9.348   5.518
  269POPC   C4B 3541   5.404   9.465   5.868
  270POPC   NC3 3542   4.340   2.954   3.935
  270POPC   PO4 3543   3.930   2.413   4.009
  270POPC   GL1 3544   4.213   2.397   4.285
  270POPC   GL2 3545   4.273   2.693   4.361
  270POPC   C1A 3546   4.227   2.229   4.665
  270POPC   D2A 3547   4.313   2.272   5.075
  270POPC   C3A 3548   3.968   2.293   5.328
  270POPC   C4A 3549   3.952   2.459   5.698
  270POPC   C1B 3550   4.426   2.688   4.772
  270POPC   C2B 3551   4.305   2.774   5.191
  270POPC   C3B 3552   4.337   2.814   5.623
  270POPC   C4B 3553   4.322   3.156   5.929
  271POPC   NC3 3554   3.457   2.172   3.996
  271POPC   PO4 3555   3.955   1.744   3.719
  271POPC   GL1 3556   3.675   1.726   4.182
  271POPC   GL2 3557   3.294   1.652   4.268
  271POPC   C1A 3558   3.527   1.847   4.664
  271POPC   D2A 3559   3.635   2.002   5.085
  271POPC   C3A 3560   3.475   1.878   5.476
  271POPC   C4A 3561   3.221   1.552   5.709
  271POPC   C1B 3562   3.033   1.906   4.638
  271POPC   C2B 3563   3.100   1.998   5.076
  271POPC   C3B 3564   3.027   2.078   5.508
  271POPC   C4B 3565   3.233   2.013   5.923
  272POPC   NC3 3566   7.807   3.335   3.979
  272POPC   PO4 3567   8.255   3.924   3.903
  272POPC   GL1 3568   8.199   3.578   4.218
  272POPC   GL2 3569   7.880   3.588   4.402
  272POPC   C1A 3570   8.246   3.311   4.596
  272POPC   D2A 3571   8.084   3.508   4.978
  272POPC   C3A 3572   8.129   3.597   5.418
  272POPC   C4A 3573   8.123   3.796   5.857
  272POPC   C1B 3574   7.765   3.142   4.577
  272POPC   C2B 3575   7.952   2.994   4.957
  272POPC   C3B 3576   7.823   3.135   5.374
  272POPC   C4B 3577   7.865   3.352   5.775
  273POPC   NC3 3578   2.230   0.980   3.833
  273POPC   PO4 3579   2.365   1.680   3.888
  273POPC   GL1 3580   2.152   1.464   4.254
  273POPC   GL2 3581   2.038   1.130   4.292
  273POPC   C1A 3582   2.089   1.425   4.707
  273POPC   D2A 3583   2.371   1.328   5.039
  273POPC   C3A 3584   2.187   1.433   5.390
  273POPC   C4A 3585   2.297   1.455   5.803
  273POPC   C1B 3586   1.821   0.988   4.695
  273POPC   C2B 3587   1.949   1.031   5.136
  273POPC   C3B 3588   1.861   1.042   5.577
  273POPC   C4B 3589   1.762   1.401   5.690
  274POPC   NC3 3590   7.264   7.816   3.980
  274POPC   PO4 3591   7.630   8.373   4.031
  274POPC   GL1 3592   7.285   8.189   4.331
  274POPC   GL2 3593   7.269   7.855   4.486
  274POPC   C1A 3594   7.026   8.240   4.711
  274POPC   D2A 3595   7.224   8.275   5.101
  274POPC   C3A 3596   7.181   8.015   5.435
  274POPC   C4A 3597   7.306   8.199   5.767
  274POPC   C1B 3598   7.164   7.788   4.954
  274POPC   C2B 3599   6.875   7.633   5.292
  274POPC   C3B 3600   6.850   7.714   5.752
  274POPC   C4B 3601   6.780   7.568   6.206
  275POPC   NC3 3602   4.218   2.133   3.769
  275POPC   PO4 3603   4.567   1.645   4.080
  275POPC   GL1 3604   4.447   1.772   4.442
  275POPC   GL2 3605   4.146   1.895   4.271
  275POPC   C1A 3606   4.508   1.850   4.865
  275POPC   D2A 3607   4.571   1.902   5.321
  275POPC   C3A 3608   4.394   2.215   5.586
  275POPC   C4A 3609   4.197   2.103   5.962
  275POPC   C1B 3610   4.018   1.755   4.714
  275POPC   C2B 3611   4.084   1.758   5.159
  275POPC   C3B 3612   3.983   1.851   5.575
  275POPC   C4B 3613   3.717   1.724   5.908
  276POPC   NC3 3614   2.426   9.141   4.184
  276POPC   PO4 3615   1.936   9.345   3.753
  276POPC   GL1 3616   1.922   9.246   4.223
  276POPC   GL2 3617   1.616   9.070   4.249
  276POPC   C1A 3618   2.094   9.320   4.698
  276POPC   D2A 3619   2.335   9.353   5.100
  276POPC   C3A 3620   2.143   9.599   5.442
  276POPC   C4A 3621   2.084   9.572   5.875
  276POPC   C1B 3622   1.586   9.278   4.618
  276POPC   C2B 3623   1.701   9.522   4.969
  276POPC   C3B 3624   1.629   9.443   5.369
  276POPC   C4B 3625   1.679   9.265   5.755
  277POPC   NC3 3626   5.001   1.482   4.173
  277POPC   PO4 3627   4.975   0.909   3.782
  277POPC   GL1 3628   4.782   0.878   4.219
  277POPC   GL2 3629   4.597   1.195   4.331
  277POPC   C1A 3630   4.804   0.932   4.693
  277POPC   D2A 3631   4.589   0.921   5.069
  277POPC   C3A 3632   4.781   0.878   5.462
  277POPC   C4A 3633   4.496   1.023   5.794
  277POPC   C1B 3634   4.790   1.431   4.749
  277POPC   C2B 3635   4.949   1.295   5.150
  277POPC   C3B 3636   4.839   1.359   5.585
  277POPC   C4B 3637   5.073   1.540   5.891
  278POPC   NC3 3638   0.828   0.497   4.056
  278POPC   PO4 3639   0.217   0.825   3.953
  278POPC   GL1 3640   0.392   0.685   4.330
  278POPC   GL2 3641   0.182   0.402   4.312
  278POPC   C1A 3642   0.530   0.436   4.706
  278POPC   D2A 3643   0.766   0.426   5.097
  278POPC   C3A 3644   0.545   0.619   5.382
  278POPC   C4A 3645   0.423   0.587   5.764
  278POPC   C1B 3646  10.463   0.441   4.708
  278POPC   C2B 3647   0.168   0.412   5.104
  278POPC   C3B 3648   0.248   0.196   5.473
  278POPC   C4B 3649   0.078   0.213   5.864
  279POPC   NC3 3650   0.375   2.217   3.898
  279POPC   PO4 3651   0.681   1.696   4.159
  279POPC   GL1 3652   0.386   1.760   4.399
  279POPC   GL2 3653   0.490   2.138   4.394
  279POPC   C1A 3654   0.353   1.532   4.797
  279POPC   D2A 3655   0.266   1.353   5.208
  279POPC   C3A 3656   0.477   1.539   5.592
  279POPC   C4A 3657   0.210   1.651   5.942
  279POPC   C1B 3658   0.583   2.010   4.793
  279POPC   C2B 3659   0.455   1.867   5.164
  279POPC   C3B 3660   0.240   1.978   5.495
  279POPC   C4B 3661   0.480   2.035   5.818
  280POPC   NC3 3662   9.855   4.348   3.925
  280POPC   PO4 3663   0.030   3.984   4.002
  280POPC   GL1 3664  10.269   4.177   4.247
  280POPC   GL2 3665   9.994   3.996   4.305
  280POPC   C1A 3666  10.309   4.179   4.695
  280POPC   D2A 3667   0.069   4.249   5.052
  280POPC   C3A 3668  10.367   4.202   5.437
  280POPC   C4A 3669  10.374   4.475   5.798
  280POPC   C1B 3670   9.815   4.266   4.621
  280POPC   C2B 3671   9.640   4.251   5.040
  280POPC   C3B 3672   9.788   4.305   5.450
  280POPC   C4B 3673   9.992   4.147   5.776
  281POPC   NC3 3674   2.557   6.537   3.938
  281POPC   PO4 3675   2.996   6.910   4.093
  281POPC   GL1 3676   2.830   6.580   4.382
  281POPC   GL2 3677   2.643   6.245   4.356
  281POPC   C1A 3678   2.869   6.511   4.821
  281POPC   D2A 3679   2.824   6.389   5.232
  281POPC   C3A 3680   3.034   6.499   5.610
  281POPC   C4A 3681   2.956   6.691   5.997
  281POPC   C1B 3682   2.382   6.295   4.766
  281POPC   C2B 3683   2.333   6.275   5.230
  281POPC   C3B 3684   2.549   6.266   5.632
  281POPC   C4B 3685   2.594   5.907   5.909
  282POPC   NC3 3686   2.419  10.309   3.999
  282POPC   PO4 3687   2.261   9.670   4.174
  282POPC   GL1 3688   2.604   9.952   4.341
  282POPC   GL2 3689   2.821  10.270   4.295
  282POPC   C1A 3690   2.536  10.102   4.741
  282POPC   D2A 3691   2.397   9.902   5.093
  282POPC   C3A 3692   2.568  10.087   5.468
  282POPC   C4A 3693   2.330  10.117   5.862
  282POPC   C1B 3694   2.844  10.487   4.701
  282POPC   C2B 3695   2.731  10.437   5.094
  282POPC   C3B 3696   2.929   0.025   5.436
  282POPC   C4B 3697   2.747  10.427   5.813
  283POPC   NC3 3698   5.354   0.682   4.016
  283POPC   PO4 3699   5.972   0.913   3.864
  283POPC   GL1 3700   5.882   0.545   4.236
  283POPC   GL2 3701   5.665   0.212   4.259
  283POPC   C1A 3702   5.745   0.442   4.715
  283POPC   D2A 3703   5.556   0.669   5.093
  283POPC   C3A 3704   5.757   0.736   5.491
  283POPC   C4A 3705   5.859   0.465   5.862
  283POPC   C1B 3706   5.373   0.072   4.603
  283POPC   C2B 3707   5.393   0.175   5.032
  283POPC   C3B 3708   5.543   0.267   5.458
  283POPC   C4B 3709   5.395   0.204   5.868
  284POPC   NC3 3710   4.588   1.197   3.812
  284POPC   PO4 3711   3.948   0.865   3.995
  284POPC   GL1 3712   4.042   1.033   4.368
  284POPC   GL2 3713   4.116   1.378   4.398
  284POPC   C1A 3714   3.857   0.953   4.757
  284POPC   D2A 3715   3.961   1.222   5.088
  284POPC   C3A 3716   4.072   1.072   5.488
  284POPC   C4A 3717   3.960   0.854   5.857
  284POPC   C1B 3718   4.323   1.256   4.752
  284POPC   C2B 3719   4.457   1.407   5.157
  284POPC   C3B 3720   4.350   1.496   5.565
  284POPC   C4B 3721   4.222   1.583   5.971
  285POPC   NC3 3722   3.250   5.194   3.993
  285POPC   PO4 3723   2.697   5.375   3.783
  285POPC   GL1 3724   2.390   5.338   4.148
  285POPC   GL2 3725   2.278   5.677   4.245
  285POPC   C1A 3726   2.386   5.256   4.609
  285POPC   D2A 3727   2.506   5.450   5.011
  285POPC   C3A 3728   2.728   5.402   5.397
  285POPC   C4A 3729   2.654   5.403   5.825
  285POPC   C1B 3730   2.511   5.794   4.610
  285POPC   C2B 3731   2.675   5.939   5.029
  285POPC   C3B 3732   2.847   5.907   5.448
  285POPC   C4B 3733   3.085   5.660   5.727
  286POPC   NC3 3734   4.791   9.388   3.897
  286POPC   PO4 3735   5.097   9.872   4.073
  286POPC   GL1 3736   4.752   9.669   4.326
  286POPC   GL2 3737   4.854   9.305   4.399
  286POPC   C1A 3738   4.566   9.577   4.756
  286POPC   D2A 3739   4.774   9.501   5.181
  286POPC   C3A 3740   4.633   9.699   5.579
  286POPC   C4A 3741   4.518   9.686   6.030
  286POPC   C1B 3742   5.061   9.253   4.804
  286POPC   C2B 3743   5.186   8.975   5.155
  286POPC   C3B 3744   5.189   9.104   5.590
  286POPC   C4B 3745   4.898   9.349   5.859
  287POPC   NC3 3746   7.869   5.205   3.755
  287POPC   PO4 3747   7.902   5.838   3.888
  287POPC   GL1 3748   7.945   5.609   4.279
  287POPC   GL2 3749   8.235   5.693   4.416
  287POPC   C1A 3750   7.849   5.665   4.745
  287POPC   D2A 3751   8.040   5.595   5.181
  287POPC   C3A 3752   7.763   5.721   5.521
  287POPC   C4A 3753   7.541   5.618   5.919
  287POPC   C1B 3754   8.359   5.824   4.821
  287POPC   C2B 3755   8.539   5.710   5.223
  287POPC   C3B 3756   8.344   5.529   5.595
  287POPC   C4B 3757   8.110   5.754   5.880
  288POPC   NC3 3758   9.684   9.063   3.745
  288POPC   PO4 3759  10.453   9.087   3.831
  288POPC   GL1 3760  10.243   9.174   4.231
  288POPC   GL2 3761  10.069   9.514   4.237
  288POPC   C1A 3762  10.191   9.072   4.669
  288POPC   D2A 3763  10.122   9.186   5.083
  288POPC   C3A 3764  10.262   8.989   5.440
  288POPC   C4A 3765  10.195   9.098   5.867
  288POPC   C1B 3766  10.307   9.581   4.610
  288POPC   C2B 3767  10.218   9.679   5.031
  288POPC   C3B 3768  10.265   9.520   5.456
  288POPC   C4B 3769   9.977   9.583   5.791
  289POPC   NC3 3770   9.262   9.184   4.198
  289POPC   PO4 3771   9.389   9.614   3.725
  289POPC   GL1 3772   9.577   9.605   4.248
  289POPC   GL2 3773   9.374   9.576   4.531
  289POPC   C1A 3774   9.814   9.472   4.734
  289POPC   D2A 3775   9.753   9.509   5.232
  289POPC   C3A 3776   9.787   9.176   5.565
  289POPC   C4A 3777   9.740   9.190   6.083
  289POPC   C1B 3778   9.334   9.395   4.907
  289POPC   C2B 3779   9.048   9.176   5.111
  289POPC   C3B 3780   9.125   9.363   5.505
  289POPC   C4B 3781   9.436   9.464   5.783
  290POPC   NC3 3782   8.808   9.509   3.899
  290POPC   PO4 3783   8.424   8.997   4.085
  290POPC   GL1 3784   8.754   9.214   4.313
  290POPC   GL2 3785   8.509   9.456   4.350
  290POPC   C1A 3786   8.862   9.480   4.714
  290POPC   D2A 3787   8.769   9.631   5.135
  290POPC   C3A 3788   8.983   9.850   5.440
  290POPC   C4A 3789   9.016   9.737   5.882
  290POPC   C1B 3790   8.467   9.122   4.714
  290POPC   C2B 3791   8.534   8.966   5.126
  290POPC   C3B 3792   8.729   9.061   5.483
  290POPC   C4B 3793   8.670   9.367   5.767
  291POPC   NC3 3794   2.490   4.965   3.805
  291POPC   PO4 3795   3.122   4.760   3.967
  291POPC   GL1 3796   2.819   5.017   4.201
  291POPC   GL2 3797   2.534   4.816   4.297
  291POPC   C1A 3798   2.884   5.194   4.617
  291POPC   D2A 3799   2.833   5.031   5.047
  291POPC   C3A 3800   3.103   5.034   5.441
  291POPC   C4A 3801   3.105   5.149   5.882
  291POPC   C1B 3802   2.332   4.727   4.693
  291POPC   C2B 3803   2.344   4.926   5.110
  291POPC   C3B 3804   2.610   4.902   5.495
  291POPC   C4B 3805   2.552   4.928   5.930
  292POPC   NC3 3806  10.242   8.627   3.767
  292POPC   PO4 3807   9.603   8.640   3.610
  292POPC   GL1 3808   9.868   8.648   4.118
  292POPC   GL2 3809  10.216   8.644   4.263
  292POPC   C1A 3810   9.894   8.637   4.643
  292POPC   D2A 3811  10.070   8.669   5.027
  292POPC   C3A 3812   9.858   8.684   5.419
  292POPC   C4A 3813   9.752   8.741   5.837
  292POPC   C1B 3814  10.321   8.327   4.579
  292POPC   C2B 3815  10.498   8.363   4.985
  292POPC   C3B 3816  10.288   8.407   5.393
  292POPC   C4B 3817  10.237   8.591   5.767
  293POPC   NC3 3818   8.178   9.349   3.949
  293POPC   PO4 3819   7.678   9.466   3.670
  293POPC   GL1 3820   7.711   9.377   4.186
  293POPC   GL2 3821   8.028   9.190   4.381
  293POPC   C1A 3822   7.642   9.290   4.675
  293POPC   D2A 3823   7.807   9.466   5.089
  293POPC   C3A 3824   7.682   9.293   5.463
  293POPC   C4A 3825   7.481   9.428   5.826
  293POPC   C1B 3826   8.125   9.503   4.685
  293POPC   C2B 3827   8.314   9.433   5.086
  293POPC   C3B 3828   8.228   9.323   5.488
  293POPC   C4B 3829   7.996   9.552   5.771
  294POPC   NC3 3830   0.982   8.554   3.839
  294POPC   PO4 3831   1.467   8.221   3.946
  294POPC   GL1 3832   1.287   8.415   4.283
  294POPC   GL2 3833   1.203   8.768   4.235
  294POPC   C1A 3834   1.127   8.371   4.700
  294POPC   D2A 3835   0.975   8.565   5.073
  294POPC   C3A 3836   0.913   8.324   5.444
  294POPC   C4A 3837   0.990   8.595   5.768
  294POPC   C1B 3838   1.370   8.811   4.640
  294POPC   C2B 3839   1.499   8.594   5.005
  294POPC   C3B 3840   1.420   8.571   5.427
  294POPC   C4B 3841   1.479   8.793   5.794
  295POPC   NC3 3842   1.451   0.961   4.110
  295POPC   PO4 3843   1.121   1.434   3.733
  295POPC   GL1 3844   1.119   1.407   4.226
  295POPC   GL2 3845   1.129   1.111   4.438
  295POPC   C1A 3846   1.051   1.541   4.691
  295POPC   D2A 3847   0.797   1.479   5.079
  295POPC   C3A 3848   1.029   1.415   5.480
  295POPC   C4A 3849   1.003   1.470   5.924
  295POPC   C1B 3850   1.354   1.142   4.830
  295POPC   C2B 3851   1.478   1.262   5.256
  295POPC   C3B 3852   1.354   1.059   5.632
  295POPC   C4B 3853   1.197   0.858   5.961
  296POPC   NC3 3854   7.902   1.757   3.889
  296POPC   PO4 3855   7.363   1.600   4.171
  296POPC   GL1 3856   7.690   1.773   4.359
  296POPC   GL2 3857   7.675   2.116   4.231
  296POPC   C1A 3858   7.948   1.616   4.684
  296POPC   D2A 3859   8.015   1.404   5.073
  296POPC   C3A 3860   7.951   1.699   5.427
  296POPC   C4A 3861   7.761   1.902   5.786
  296POPC   C1B 3862   7.853   2.149   4.663
  296POPC   C2B 3863   8.044   1.999   5.028
  296POPC   C3B 3864   7.928   2.201   5.419
  296POPC   C4B 3865   7.998   2.370   5.812
  297POPC   NC3 3866   2.524   2.050   3.655
  297POPC   PO4 3867   3.032   1.981   4.004
  297POPC   GL1 3868   2.696   2.007   4.247
  297POPC   GL2 3869   2.598   1.694   4.345
  297POPC   C1A 3870   2.576   2.165   4.681
  297POPC   D2A 3871   2.728   2.367   5.058
  297POPC   C3A 3872   2.574   2.294   5.485
  297POPC   C4A 3873   2.553   2.344   5.960
  297POPC   C1B 3874   2.581   1.667   4.739
  297POPC   C2B 3875   2.592   1.846   5.122
  297POPC   C3B 3876   2.729   1.663   5.480
  297POPC   C4B 3877   2.736   1.850   5.863
  298POPC   NC3 3878  10.399   0.132   3.988
  298POPC   PO4 3879  10.241   9.949   3.884
  298POPC   GL1 3880  10.309  10.147   4.267
  298POPC   GL2 3881   9.949  10.212   4.247
  298POPC   C1A 3882  10.431  10.074   4.723
  298POPC   D2A 3883  10.489  10.078   5.172
  298POPC   C3A 3884  10.356  10.287   5.524
  298POPC   C4A 3885  10.374   9.917   5.788
  298POPC   C1B 3886   9.931   9.969   4.613
  298POPC   C2B 3887   9.969  10.134   5.026
  298POPC   C3B 3888   9.971   9.958   5.431
  298POPC   C4B 3889   9.915  10.148   5.825
  299POPC   NC3 3890   0.976   9.540   3.814
  299POPC   PO4 3891   0.787   8.954   3.926
  299POPC   GL1 3892   0.914   9.200   4.281
  299POPC   GL2 3893   1.201   9.413   4.278
  299POPC   C1A 3894   1.063   9.220   4.723
  299POPC   D2A 3895   1.341   9.121   5.061
  299POPC   C3A 3896   1.136   9.252   5.418
  299POPC   C4A 3897   1.034   9.088   5.804
  299POPC   C1B 3898   1.305   9.694   4.639
  299POPC   C2B 3899   1.300   9.845   5.069
  299POPC   C3B 3900   1.248   9.765   5.475
  299POPC   C4B 3901   1.262   9.535   5.837
  300POPC   NC3 3902   7.978   0.485   3.906
  300POPC   PO4 3903   8.525   0.030   3.923
  300POPC   GL1 3904   8.422   0.316   4.269
  300POPC   GL2 3905   8.228   0.615   4.342
  300POPC   C1A 3906   8.274   0.229   4.688
  300POPC   D2A 3907   8.141   0.440   5.051
  300POPC   C3A 3908   8.279   0.249   5.425
  300POPC   C4A 3909   8.071   0.091   5.762
  300POPC   C1B 3910   7.850   0.578   4.627
  300POPC   C2B 3911   7.629   0.446   5.019
  300POPC   C3B 3912   7.786   0.371   5.418
  300POPC   C4B 3913   7.984   0.685   5.666
  301POPC   NC3 3914   4.148   8.829   3.840
  301POPC   PO4 3915   4.439   8.251   3.687
  301POPC   GL1 3916   4.332   8.397   4.154
  301POPC   GL2 3917   4.106   8.639   4.293
  301POPC   C1A 3918   4.461   8.519   4.611
  301POPC   D2A 3919   4.323   8.732   4.995
  301POPC   C3A 3920   4.379   8.563   5.399
  301POPC   C4A 3921   4.333   8.760   5.750
  301POPC   C1B 3922   3.947   8.827   4.652
  301POPC   C2B 3923   3.799   8.616   5.012
  301POPC   C3B 3924   3.893   8.697   5.434
  301POPC   C4B 3925   3.909   8.489   5.835
  302POPC   NC3 3926  10.070   3.650   3.952
  302POPC   PO4 3927   0.160   3.397   3.825
  302POPC   GL1 3928  10.461   3.540   4.265
  302POPC   GL2 3929  10.112   3.413   4.405
  302POPC   C1A 3930  10.422   3.698   4.718
  302POPC   D2A 3931  10.301   3.515   5.125
  302POPC   C3A 3932  10.342   3.677   5.551
  302POPC   C4A 3933  10.448   3.386   5.926
  302POPC   C1B 3934   9.896   3.714   4.716
  302POPC   C2B 3935   9.996   3.920   5.117
  302POPC   C3B 3936   9.824   3.718   5.479
  302POPC   C4B 3937   9.997   3.298   5.600
  303POPC   NC3 3938   0.866   6.348   3.729
  303POPC   PO4 3939   1.434   6.109   3.938
  303POPC   GL1 3940   1.317   6.365   4.262
  303POPC   GL2 3941   1.064   6.576   4.172
  303POPC   C1A 3942   1.454   6.351   4.682
  303POPC   D2A 3943   1.333   6.090   5.015
  303POPC   C3A 3944   1.415   6.248   5.392
  303POPC   C4A 3945   1.320   6.092   5.780
  303POPC   C1B 3946   0.984   6.556   4.655
  303POPC   C2B 3947   1.012   6.478   5.139
  303POPC   C3B 3948   1.011   6.498   5.634
  303POPC   C4B 3949   0.793   6.601   6.057
  304POPC   NC3 3950   9.962   5.932   4.049
  304POPC   PO4 3951   0.042   5.653   3.787
  304POPC   GL1 3952  10.333   5.556   4.242
  304POPC   GL2 3953  10.020   5.502   4.296
  304POPC   C1A 3954  10.215   5.716   4.706
  304POPC   D2A 3955   0.022   5.839   4.993
  304POPC   C3A 3956  10.379   5.647   5.355
  304POPC   C4A 3957   0.007   5.561   5.749
  304POPC   C1B 3958   9.775   5.430   4.688
  304POPC   C2B 3959   9.916   5.498   5.104
  304POPC   C3B 3960   9.847   5.603   5.515
  304POPC   C4B 3961  10.094   5.902   5.695
  305POPC   NC3 3962   8.390   4.817   3.912
  305POPC   PO4 3963   9.079   4.738   4.013
  305POPC   GL1 3964   8.798   4.678   4.332
  305POPC   GL2 3965   8.774   5.047   4.328
  305POPC   C1A 3966   8.884   4.602   4.777
  305POPC   D2A 3967   8.754   4.789   5.178
  305POPC   C3A 3968   8.791   4.783   5.599
  305POPC   C4A 3969   8.927   4.528   5.897
  305POPC   C1B 3970   8.600   5.008   4.753
  305POPC   C2B 3971   8.411   5.170   5.194
  305POPC   C3B 3972   8.337   5.011   5.622
  305POPC   C4B 3973   8.385   5.195   6.044
  306POPC   NC3 3974   0.991   2.951   3.740
  306POPC   PO4 3975   0.891   2.316   4.104
  306POPC   GL1 3976   0.964   2.476   4.442
  306POPC   GL2 3977   1.286   2.416   4.494
  306POPC   C1A 3978   0.788   2.480   4.792
  306POPC   D2A 3979   0.864   2.737   5.085
  306POPC   C3A 3980   1.061   2.615   5.445
  306POPC   C4A 3981   0.804   2.365   5.622
  306POPC   C1B 3982   1.288   2.478   4.946
  306POPC   C2B 3983   1.363   2.878   5.112
  306POPC   C3B 3984   1.373   3.026   5.508
  306POPC   C4B 3985   1.321   2.962   5.938
  307POPC   NC3 3986   8.037   8.185   3.905
  307POPC   PO4 3987   7.684   7.523   3.839
  307POPC   GL1 3988   7.970   7.738   4.168
  307POPC   GL2 3989   7.770   7.974   4.327
  307POPC   C1A 3990   8.160   7.746   4.623
  307POPC   D2A 3991   8.034   7.603   5.041
  307POPC   C3A 3992   8.113   7.802   5.441
  307POPC   C4A 3993   8.243   7.806   5.873
  307POPC   C1B 3994   7.684   7.911   4.771
  307POPC   C2B 3995   7.643   7.963   5.192
  307POPC   C3B 3996   7.630   7.802   5.583
  307POPC   C4B 3997   7.809   8.088   5.770
  308POPC   NC3 3998   4.348   7.849   3.866
  308POPC   PO4 3999   3.875   8.438   3.881
  308POPC   GL1 4000   3.882   8.148   4.229
  308POPC   GL2 4001   4.072   7.823   4.269
  308POPC   C1A 4002   3.951   8.272   4.647
  308POPC   D2A 4003   4.180   8.250   5.022
  308POPC   C3A 4004   4.071   8.174   5.455
  308POPC   C4A 4005   4.216   8.090   5.921
  308POPC   C1B 4006   4.193   7.793   4.717
  308POPC   C2B 4007   4.244   7.752   5.146
  308POPC   C3B 4008   4.298   7.730   5.579
  308POPC   C4B 4009   3.992   7.458   5.760
  309POPC   NC3 4010   0.815  10.244   3.881
  309POPC   PO4 4011   1.290   9.816   3.986
  309POPC   GL1 4012   1.037  10.011   4.288
  309POPC   GL2 4013   1.032  10.408   4.325
  309POPC   C1A 4014   0.997  10.084   4.718
  309POPC   D2A 4015   0.837  10.156   5.103
  309POPC   C3A 4016   0.759   9.854   5.413
  309POPC   C4A 4017   0.895   9.879   5.814
  309POPC   C1B 4018   0.950   0.089   4.761
  309POPC   C2B 4019   1.151   0.064   5.193
  309POPC   C3B 4020   1.085  10.269   5.553
  309POPC   C4B 4021   1.367  10.108   5.896
  310POPC   NC3 4022   3.400   8.788   3.920
  310POPC   PO4 4023   3.245   8.289   3.582
  310POPC   GL1 4024   3.421   8.345   4.131
  310POPC   GL2 4025   3.601   8.621   4.336
  310POPC   C1A 4026   3.431   8.218   4.567
  310POPC   D2A 4027   3.338   8.220   5.014
  310POPC   C3A 4028   3.546   8.335   5.374
  310POPC   C4A 4029   3.370   8.430   5.775
  310POPC   C1B 4030   3.365   8.679   4.733
  310POPC   C2B 4031   3.341   8.821   5.155
  310POPC   C3B 4032   3.299   9.035   5.512
  310POPC   C4B 4033   3.587   8.890   5.802
  311POPC   NC3 4034   8.636   2.920   3.981
  311POPC   PO4 4035   9.029   2.465   3.796
  311POPC   GL1 4036   8.838   2.310   4.183
  311POPC   GL2 4037   8.541   2.518   4.285
  311POPC   C1A 4038   8.873   2.369   4.645
  311POPC   D2A 4039   9.069   2.542   5.035
  311POPC   C3A 4040   8.916   2.462   5.465
  311POPC   C4A 4041   8.830   2.478   5.942
  311POPC   C1B 4042   8.586   2.797   4.666
  311POPC   C2B 4043   8.568   2.691   5.122
  311POPC   C3B 4044   8.606   2.851   5.544
  311POPC   C4B 4045   8.383   2.823   5.894
  312POPC   NC3 4046   8.859   1.982   3.718
  312POPC   PO4 4047   8.323   1.544   3.895
  312POPC   GL1 4048   8.333   1.784   4.280
  312POPC   GL2 4049   8.705   1.826   4.342
  312POPC   C1A 4050   8.375   2.092   4.628
  312POPC   D2A 4051   8.559   2.186   5.015
  312POPC   C3A 4052   8.411   2.009   5.391
  312POPC   C4A 4053   8.454   2.346   5.646
  312POPC   C1B 4054   8.910   1.844   4.761
  312POPC   C2B 4055   8.882   1.852   5.226
  312POPC   C3B 4056   8.870   1.968   5.627
  312POPC   C4B 4057   9.013   1.761   5.972
  313POPC   NC3 4058   7.911   4.183   4.081
  313POPC   PO4 4059   8.482   4.404   3.708
  313POPC   GL1 4060   8.381   4.383   4.165
  313POPC   GL2 4061   8.584   4.151   4.257
  313POPC   C1A 4062   8.430   4.429   4.645
  313POPC   D2A 4063   8.591   4.302   5.055
  313POPC   C3A 4064   8.471   4.422   5.468
  313POPC   C4A 4065   8.460   4.188   5.802
  313POPC   C1B 4066   8.882   4.114   4.611
  313POPC   C2B 4067   9.005   4.016   5.042
  313POPC   C3B 4068   8.923   4.201   5.463
  313POPC   C4B 4069   8.988   4.026   5.825
  314POPC   NC3 4070   3.599   8.050   3.784
  314POPC   PO4 4071   2.978   8.165   4.054
  314POPC   GL1 4072   3.156   7.850   4.304
  314POPC   GL2 4073   3.463   7.802   4.208
  314POPC   C1A 4074   3.244   7.777   4.768
  314POPC   D2A 4075   3.297   7.726   5.212
  314POPC   C3A 4076   3.257   7.959   5.565
  314POPC   C4A 4077   2.953   8.103   5.816
  314POPC   C1B 4078   3.703   7.818   4.582
  314POPC   C2B 4079   3.760   7.922   5.012
  314POPC   C3B 4080   3.755   7.780   5.434
  314POPC   C4B 4081   3.706   8.040   5.779
  315POPC   NC3 4082   2.787   7.987   3.684
  315POPC   PO4 4083   2.314   8.428   3.884
  315POPC   GL1 4084   2.506   8.230   4.260
  315POPC   GL2 4085   2.578   7.864   4.190
  315POPC   C1A 4086   2.446   8.205   4.711
  315POPC   D2A 4087   2.476   8.344   5.122
  315POPC   C3A 4088   2.438   8.136   5.463
  315POPC   C4A 4089   2.195   8.045   5.793
  315POPC   C1B 4090   2.761   7.821   4.608
  315POPC   C2B 4091   2.866   8.006   5.017
  315POPC   C3B 4092   2.809   7.818   5.381
  315POPC   C4B 4093   2.604   7.749   5.757
  316POPC   NC3 4094   0.280   2.949   3.885
  316POPC   PO4 4095   0.692   2.565   3.664
  316POPC   GL1 4096   0.679   2.764   4.123
  316POPC   GL2 4097   0.373   2.633   4.297
  316POPC   C1A 4098   0.667   2.917   4.569
  316POPC   D2A 4099   0.408   2.939   4.952
  316POPC   C3A 4100   0.474   2.891   5.390
  316POPC   C4A 4101   0.635   2.801   5.798
  316POPC   C1B 4102   0.275   2.483   4.725
  316POPC   C2B 4103   0.434   2.406   5.173
  316POPC   C3B 4104   0.301   2.467   5.611
  316POPC   C4B 4105   0.163   2.520   6.038
  317POPC   NC3 4106   2.012   2.728   3.889
  317POPC   PO4 4107   1.534   2.208   4.063
  317POPC   GL1 4108   1.709   2.566   4.268
  317POPC   GL2 4109   2.049   2.565   4.360
  317POPC   C1A 4110   1.682   2.691   4.709
  317POPC   D2A 4111   1.785   2.537   5.140
  317POPC   C3A 4112   1.597   2.547   5.551
  317POPC   C4A 4113   1.785   2.886   5.771
  317POPC   C1B 4114   2.139   2.434   4.761
  317POPC   C2B 4115   2.287   2.622   5.143
  317POPC   C3B 4116   2.192   2.630   5.574
  317POPC   C4B 4117   2.064   2.471   5.957
  318POPC   NC3 4118  10.219   1.898   3.829
  318POPC   PO4 4119   0.011   2.522   3.965
  318POPC   GL1 4120   0.004   2.063   4.236
  318POPC   GL2 4121  10.162   1.870   4.391
  318POPC   C1A 4122   0.054   1.994   4.712
  318POPC   D2A 4123  10.456   1.754   5.110
  318POPC   C3A 4124  10.233   1.941   5.472
  318POPC   C4A 4125  10.308   2.339   5.671
  318POPC   C1B 4126  10.015   1.845   4.849
  318POPC   C2B 4127   9.817   2.073   5.203
  318POPC   C3B 4128   9.771   2.084   5.665
  318POPC   C4B 4129   9.994   1.913   5.999
  319POPC   NC3 4130   7.822   6.311   3.861
  319POPC   PO4 4131   8.191   6.800   3.568
  319POPC   GL1 4132   8.183   6.812   4.136
  319POPC   GL2 4133   8.178   6.461   4.227
  319POPC   C1A 4134   7.988   6.812   4.571
  319POPC   D2A 4135   7.898   6.556   4.934
  319POPC   C3A 4136   8.085   6.564   5.355
  319POPC   C4A 4137   7.957   6.785   5.745
  319POPC   C1B 4138   8.043   6.173   4.585
  319POPC   C2B 4139   7.954   6.067   5.041
  319POPC   C3B 4140   8.176   6.039   5.439
  319POPC   C4B 4141   7.986   6.254   5.774
  320POPC   NC3 4142   5.011  10.260   3.841
  320POPC   PO4 4143   4.417   0.088   3.898
  320POPC   GL1 4144   4.576  10.354   4.288
  320POPC   GL2 4145   4.936  10.305   4.352
  320POPC   C1A 4146   4.669  10.464   4.747
  320POPC   D2A 4147   4.941  10.444   5.091
  320POPC   C3A 4148   4.823  10.171   5.432
  320POPC   C4A 4149   4.612  10.162   5.826
  320POPC   C1B 4150   4.886  10.004   4.717
  320POPC   C2B 4151   5.124   9.879   5.084
  320POPC   C3B 4152   5.167   9.774   5.529
  320POPC   C4B 4153   5.008   9.861   5.950
  321POPC   NC3 4154   7.688   2.734   3.722
  321POPC   PO4 4155   8.213   3.082   3.883
  321POPC   GL1 4156   8.129   2.891   4.278
  321POPC   GL2 4157   7.848   2.653   4.218
  321POPC   C1A 4158   8.144   2.586   4.631
  321POPC   D2A 4159   8.054   2.498   5.039
  321POPC   C3A 4160   8.122   2.716   5.430
  321POPC   C4A 4161   7.865   2.850   5.802
  321POPC   C1B 4162   7.641   2.627   4.635
  321POPC   C2B 4163   7.528   2.425   5.021
  321POPC   C3B 4164   7.618   2.601   5.417
  321POPC   C4B 4165   7.506   2.445   5.802
  322POPC   NC3 4166   3.762   2.838   3.947
  322POPC   PO4 4167   3.214   2.596   3.988
  322POPC   GL1 4168   3.461   2.496   4.368
  322POPC   GL2 4169   3.754   2.733   4.431
  322POPC   C1A 4170   3.709   2.318   4.691
  322POPC   D2A 4171   3.877   2.610   4.954
  322POPC   C3A 4172   3.632   2.700   5.349
  322POPC   C4A 4173   3.465   2.370   5.640
  322POPC   C1B 4174   3.375   2.905   4.635
  322POPC   C2B 4175   3.320   3.026   5.059
  322POPC   C3B 4176   3.108   3.040   5.455
  322POPC   C4B 4177   3.335   2.855   5.774
  323POPC   NC3 4178   1.218   3.735   3.932
  323POPC   PO4 4179   1.416   4.456   3.898
  323POPC   GL1 4180   1.173   4.208   4.190
  323POPC   GL2 4181   0.961   3.936   4.343
  323POPC   C1A 4182   1.328   4.326   4.595
  323POPC   D2A 4183   1.207   4.530   4.977
  323POPC   C3A 4184   1.165   4.306   5.365
  323POPC   C4A 4185   1.098   4.422   5.784
  323POPC   C1B 4186   0.870   4.187   4.721
  323POPC   C2B 4187   1.209   3.997   4.973
  323POPC   C3B 4188   1.480   3.890   5.336
  323POPC   C4B 4189   1.260   3.940   5.746
  324POPC   NC3 4190   9.491   8.365   3.971
  324POPC   PO4 4191   9.726   9.113   4.190
  324POPC   GL1 4192   9.492   8.825   4.437
  324POPC   GL2 4193   9.469   8.508   4.425
  324POPC   C1A 4194   9.359   8.883   4.796
  324POPC   D2A 4195   9.640   9.007   5.073
  324POPC   C3A 4196   9.392   8.905   5.381
  324POPC   C4A 4197   9.308   8.958   5.760
  324POPC   C1B 4198   9.371   8.373   4.745
  324POPC   C2B 4199   9.538   8.484   5.079
  324POPC   C3B 4200   9.434   8.406   5.482
  324POPC   C4B 4201   9.340   8.442   5.864
  325POPC   NC3 4202   5.653   1.294   3.834
  325POPC   PO4 4203   5.223   1.081   4.226
  325POPC   GL1 4204   5.647   0.985   4.326
  325POPC   GL2 4205   5.929   1.219   4.284
  325POPC   C1A 4206   5.818   0.959   4.751
  325POPC   D2A 4207   5.981   1.298   5.046
  325POPC   C3A 4208   5.835   1.267   5.490
  325POPC   C4A 4209   5.929   0.989   5.889
  325POPC   C1B 4210   5.633   1.408   4.614
  325POPC   C2B 4211   5.457   1.339   5.058
  325POPC   C3B 4212   5.327   1.127   5.469
  325POPC   C4B 4213   5.496   1.241   5.875
  326POPC   NC3 4214  10.366   1.124   3.869
  326POPC   PO4 4215   0.176   1.754   3.802
  326POPC   GL1 4216  10.461   1.520   4.193
  326POPC   GL2 4217  10.222   1.208   4.323
  326POPC   C1A 4218  10.371   1.514   4.664
  326POPC   D2A 4219  10.296   1.259   5.015
  326POPC   C3A 4220  10.138   1.436   5.367
  326POPC   C4A 4221  10.265   1.535   5.790
  326POPC   C1B 4222  10.141   0.913   4.663
  326POPC   C2B 4223  10.154   0.689   5.063
  326POPC   C3B 4224  10.008   0.763   5.467
  326POPC   C4B 4225  10.152   1.055   5.749
  327POPC   NC3 4226   1.092   1.893   4.058
  327POPC   PO4 4227   1.636   1.400   4.146
  327POPC   GL1 4228   1.668   1.633   4.472
  327POPC   GL2 4229   1.405   1.870   4.452
  327POPC   C1A 4230   1.574   1.615   4.887
  327POPC   D2A 4231   1.235   1.758   5.157
  327POPC   C3A 4232   1.321   2.073   5.495
  327POPC   C4A 4233   1.409   1.742   5.764
  327POPC   C1B 4234   1.096   2.044   4.752
  327POPC   C2B 4235   0.913   2.154   5.160
  327POPC   C3B 4236   0.850   1.882   5.505
  327POPC   C4B 4237   1.001   2.007   5.918
  328POPC   NC3 4238   9.331   3.564   3.933
  328POPC   PO4 4239   9.891   3.216   3.941
  328POPC   GL1 4240   9.569   3.052   4.237
  328POPC   GL2 4241   9.250   3.233   4.298
  328POPC   C1A 4242   9.616   3.213   4.671
  328POPC   D2A 4243   9.788   3.345   5.084
  328POPC   C3A 4244   9.512   3.248   5.425
  328POPC   C4A 4245   9.585   3.076   5.846
  328POPC   C1B 4246   9.193   3.520   4.639
  328POPC   C2B 4247   8.998   3.487   5.043
  328POPC   C3B 4248   9.005   3.656   5.432
  328POPC   C4B 4249   9.270   3.555   5.745
  329POPC   NC3 4250   9.445   2.220   3.848
  329POPC   PO4 4251   9.080   1.682   4.020
  329POPC   GL1 4252   9.259   2.019   4.280
  329POPC   GL2 4253   9.637   2.002   4.289
  329POPC   C1A 4254   9.351   2.207   4.677
  329POPC   D2A 4255   9.321   2.025   5.059
  329POPC   C3A 4256   9.352   2.230   5.420
  329POPC   C4A 4257   9.268   2.210   5.834
  329POPC   C1B 4258   9.534   1.735   4.679
  329POPC   C2B 4259   9.595   1.601   5.154
  329POPC   C3B 4260   9.355   1.743   5.560
  329POPC   C4B 4261   9.498   1.784   6.057
  330POPC   NC3 4262   0.266   7.111   3.829
  330POPC   PO4 4263   0.072   6.525   3.845
  330POPC   GL1 4264   0.244   6.835   4.235
  330POPC   GL2 4265   0.335   7.196   4.338
  330POPC   C1A 4266   0.216   6.842   4.694
  330POPC   D2A 4267   0.450   6.986   5.072
  330POPC   C3A 4268   0.233   7.139   5.435
  330POPC   C4A 4269   0.395   7.087   5.833
  330POPC   C1B 4270   0.672   7.262   4.686
  330POPC   C2B 4271   0.881   7.357   5.076
  330POPC   C3B 4272   0.689   7.371   5.467
  330POPC   C4B 4273   0.693   7.504   5.869
  331POPC   NC3 4274   1.506   4.979   3.828
  331POPC   PO4 4275   2.122   4.764   3.968
  331POPC   GL1 4276   2.033   4.987   4.330
  331POPC   GL2 4277   1.701   4.914   4.297
  331POPC   C1A 4278   1.949   5.060   4.776
  331POPC   D2A 4279   2.024   5.341   5.099
  331POPC   C3A 4280   2.239   5.249   5.496
  331POPC   C4A 4281   2.048   5.089   5.883
  331POPC   C1B 4282   1.739   4.618   4.664
  331POPC   C2B 4283   1.631   4.792   5.083
  331POPC   C3B 4284   1.896   4.895   5.383
  331POPC   C4B 4285   2.185   4.665   5.614
  332POPC   NC3 4286   1.098   7.945   3.973
  332POPC   PO4 4287   0.625   7.423   3.972
  332POPC   GL1 4288   0.758   7.746   4.310
  332POPC   GL2 4289   1.072   7.941   4.450
  332POPC   C1A 4290   0.756   7.760   4.762
  332POPC   D2A 4291   1.032   7.973   5.013
  332POPC   C3A 4292   0.933   7.800   5.372
  332POPC   C4A 4293   1.093   7.810   5.760
  332POPC   C1B 4294   1.473   7.997   4.623
  332POPC   C2B 4295   1.560   8.079   5.040
  332POPC   C3B 4296   1.367   8.071   5.429
  332POPC   C4B 4297   1.379   8.248   5.848
  333POPC   NC3 4298  10.103   6.510   3.882
  333POPC   PO4 4299  10.383   6.045   4.193
  333POPC   GL1 4300  10.120   6.298   4.392
  333POPC   GL2 4301  10.289   6.594   4.340
  333POPC   C1A 4302  10.069   6.275   4.823
  333POPC   D2A 4303  10.065   6.017   5.181
  333POPC   C3A 4304  10.440   6.155   5.397
  333POPC   C4A 4305  10.336   6.342   5.744
  333POPC   C1B 4306  10.175   6.802   4.698
  333POPC   C2B 4307  10.005   6.725   5.107
  333POPC   C3B 4308  10.188   6.723   5.463
  333POPC   C4B 4309  10.462   6.832   5.783
  334POPC   NC3 4310   3.368   3.616   3.847
  334POPC   PO4 4311   3.927   3.295   3.926
  334POPC   GL1 4312   3.622   3.222   4.271
  334POPC   GL2 4313   3.277   3.370   4.287
  334POPC   C1A 4314   3.623   3.335   4.722
  334POPC   D2A 4315   3.487   3.511   5.124
  334POPC   C3A 4316   3.556   3.253   5.481
  334POPC   C4A 4317   3.524   3.302   5.898
  334POPC   C1B 4318   3.081   3.337   4.697
  334POPC   C2B 4319   2.960   3.407   5.122
  334POPC   C3B 4320   3.137   3.555   5.518
  334POPC   C4B 4321   3.540   3.775   5.607
  335POPC   NC3 4322  10.336   5.219   3.864
  335POPC   PO4 4323  10.268   4.485   3.806
  335POPC   GL1 4324  10.281   4.692   4.221
  335POPC   GL2 4325  10.271   5.031   4.309
  335POPC   C1A 4326  10.172   4.672   4.662
  335POPC   D2A 4327  10.095   4.468   5.047
  335POPC   C3A 4328  10.142   4.670   5.404
  335POPC   C4A 4329   9.941   4.782   5.755
  335POPC   C1B 4330  10.206   5.187   4.667
  335POPC   C2B 4331  10.103   5.032   5.055
  335POPC   C3B 4332  10.265   5.154   5.445
  335POPC   C4B 4333  10.108   5.272   5.807
  336POPC   NC3 4334   6.323   1.222   3.881
  336POPC   PO4 4335   6.738   1.732   3.612
  336POPC   GL1 4336   6.679   1.504   4.117
  336POPC   GL2 4337   6.567   1.132   4.293
  336POPC   C1A 4338   6.720   1.470   4.621
  336POPC   D2A 4339   6.571   1.255   5.002
  336POPC   C3A 4340   6.647   1.316   5.424
  336POPC   C4A 4341   6.666   1.087   5.842
  336POPC   C1B 4342   6.300   1.043   4.627
  336POPC   C2B 4343   6.229   0.847   5.056
  336POPC   C3B 4344   6.263   0.983   5.485
  336POPC   C4B 4345   6.259   1.364   5.772
  337POPC   NC3 4346   2.373   9.682   3.733
  337POPC   PO4 4347   2.745   9.114   3.843
  337POPC   GL1 4348   2.772   9.461   4.295
  337POPC   GL2 4349   2.814   9.205   4.514
  337POPC   C1A 4350   2.709   9.625   4.744
  337POPC   D2A 4351   2.898   9.808   5.112
  337POPC   C3A 4352   2.679   9.589   5.416
  337POPC   C4A 4353   2.587   9.680   5.811
  337POPC   C1B 4354   2.984   9.008   4.835
  337POPC   C2B 4355   2.819   8.966   5.256
  337POPC   C3B 4356   2.669   9.128   5.634
  337POPC   C4B 4357   2.974   9.302   5.886
  338POPC   NC3 4358   6.444   2.506   3.617
  338POPC   PO4 4359   6.429   3.062   4.015
  338POPC   GL1 4360   6.482   2.928   4.436
  338POPC   GL2 4361   6.418   2.597   4.339
  338POPC   C1A 4362   6.527   2.889   4.906
  338POPC   D2A 4363   6.189   2.654   5.145
  338POPC   C3A 4364   6.180   2.808   5.593
  338POPC   C4A 4365   6.470   2.930   6.005
  338POPC   C1B 4366   6.621   2.460   4.673
  338POPC   C2B 4367   6.598   2.351   5.091
  338POPC   C3B 4368   6.626   2.611   5.438
  338POPC   C4B 4369   6.528   2.458   5.845
  339POPC   NC3 4370   1.337   1.031   3.613
  339POPC   PO4 4371   1.305   0.490   4.076
  339POPC   GL1 4372   1.202   0.541   4.456
  339POPC   GL2 4373   1.382   0.235   4.554
  339POPC   C1A 4374   0.971   0.758   4.764
  339POPC   D2A 4375   1.065   0.919   5.193
  339POPC   C3A 4376   1.046   0.612   5.525
  339POPC   C4A 4377   0.820   0.218   5.587
  339POPC   C1B 4378   1.372   0.500   4.938
  339POPC   C2B 4379   1.550   0.738   5.258
  339POPC   C3B 4380   1.552   0.566   5.638
  339POPC   C4B 4381   1.433   0.112   5.686
  340POPC   NC3 4382   1.865   1.792   4.011
  340POPC   PO4 4383   2.316   2.359   3.922
  340POPC   GL1 4384   2.202   2.061   4.304
  340POPC   GL2 4385   1.887   2.094   4.400
  340POPC   C1A 4386   2.135   1.921   4.787
  340POPC   D2A 4387   2.144   2.129   5.197
  340POPC   C3A 4388   2.284   1.902   5.561
  340POPC   C4A 4389   2.264   1.925   6.019
  340POPC   C1B 4390   1.675   2.188   4.732
  340POPC   C2B 4391   1.625   2.070   5.090
  340POPC   C3B 4392   1.770   1.803   5.378
  340POPC   C4B 4393   1.845   2.046   5.737
  341POPC   NC3 4394   8.553   6.748   3.844
  341POPC   PO4 4395   9.178   6.940   3.875
  341POPC   GL1 4396   8.926   7.003   4.270
  341POPC   GL2 4397   8.753   7.277   4.409
  341POPC   C1A 4398   8.515   6.846   4.498
  341POPC   D2A 4399   8.360   6.776   4.928
  341POPC   C3A 4400   8.401   6.958   5.345
  341POPC   C4A 4401   8.444   6.963   5.784
  341POPC   C1B 4402   8.830   7.092   4.785
  341POPC   C2B 4403   8.941   7.084   5.137
  341POPC   C3B 4404   8.924   7.318   5.424
  341POPC   C4B 4405   8.889   7.187   5.792
  342W        W 4406   1.312   4.689  10.427
  343W        W 4407   6.558   2.884   1.431
  344W        W 4408   6.561   8.577   9.132
  345W        W 4409   2.644   8.758  11.381
  346W        W 4410   6.232   6.134   1.284
  347W        W 4411   8.640   1.941   1.226
  348W        W 4412   3.766   7.519  11.548
  349W        W 4413   3.837   1.820   1.728
  350W        W 4414   6.950   3.257   0.071
  351W        W 4415   3.738   7.476   2.311
  352W        W 4416   7.652   7.462   3.066
  353W        W 4417   7.258   2.870  10.884
  354W        W 4418   6.626   6.087   2.514
  355W        W 4419  10.431   4.072   2.334
  356W        W 4420   0.732   2.893  11.578
  357W        W 4421   2.097   0.967  11.396
  358W        W 4422   0.659   2.578   8.773
  359W        W 4423   3.832   2.372  10.512
  360W        W 4424   7.593   0.754  11.924
  361W        W 4425   7.981   6.287  10.348
  362W        W 4426   9.616   5.026   1.974
  363W        W 4427   2.661   7.897   2.237
  364W        W 4428   3.765   6.444  10.489
  365W        W 4429   3.634   8.930   2.291
  366W        W 4430   5.593   9.699   1.314
  367W        W 4431   2.555   8.922   9.209
  368W        W 4432   4.952   4.819   1.650
  369W        W 4433   6.099   8.022   0.884
  370W        W 4434   9.191   3.294   9.389
  371W        W 4435  10.268   4.663   1.612
  372W        W 4436   8.538   9.376   3.181
  373W        W 4437   9.805   1.690  10.511
  374W        W 4438   4.634   4.391  10.876
  375W        W 4439   2.850   9.529   0.868
  376W        W 4440   3.922   8.622  11.470
  377W        W 4441  10.438   0.163   9.903
  378W        W 4442   8.528   8.383  10.449
  379W        W 4443   2.372   4.461   3.634
  380W        W 4444   3.338   9.674   0.992
  381W        W 4445   1.128   4.456   1.792
  382W        W 4446   6.127   8.581  10.971
  383W        W 4447   1.658   6.042   3.451
  384W        W 4448   1.530   9.240   0.395
  385W        W 4449   0.434   1.174   3.119
  386W        W 4450   2.182   7.846  11.038
  387W        W 4451   6.791   9.036  10.319
  388W        W 4452   3.058   7.712  11.942
  389W        W 4453   6.101   7.782  10.633
  390W        W 4454   2.609   5.271   2.825
  391W        W 4455   6.641   8.449  11.094
  392W        W 4456   9.031   9.465   3.056
  393W        W 4457   4.638  10.257   0.049
  394W        W 4458   7.312   6.223   3.874
  395W        W 4459   3.546   4.094   2.661
  396W        W 4460   1.526   9.651   3.530
  397W        W 4461  10.207   9.582   0.154
  398W        W 4462   3.754   7.715   9.974
  399W        W 4463   7.535  10.487   1.355
  400W        W 4464   5.125   4.575   8.235
  401W        W 4465   0.306   9.559  10.121
  402W        W 4466   9.667   9.453   2.450
  403W        W 4467   6.039   3.968   1.259
  404W        W 4468   7.217   1.292  10.335
  405W        W 4469   8.389   7.662   0.766
  406W        W 4470   3.797   0.264  10.056
  407W        W 4471   9.325   4.422   3.075
  408W        W 4472   2.345   3.253   9.327
  409W        W 4473   7.899   4.479  10.881
  410W        W 4474   8.019   7.603   3.429
  411W        W 4475   5.645   6.989   0.419
  412W        W 4476   9.063   9.150   2.163
  413W        W 4477   5.617   7.276   1.866
  414W        W 4478   8.420   6.293   8.592
  415W        W 4479   1.083   9.219   9.645
  416W        W 4480   8.080  10.146  10.142
  417W        W 4481   1.925  10.448   3.279
  418W        W 4482   7.888   0.958   2.270
  419W        W 4483   6.850   4.670   0.047
  420W        W 4484   8.861   3.485   2.366
  421W        W 4485   1.675   2.031   2.305
  422W        W 4486   9.682   8.362   0.798
  423W        W 4487   5.463   7.488   9.999
  424W        W 4488   1.323   7.455  10.954
  425W        W 4489   6.052   4.759  11.444
  426W        W 4490   0.924   9.556   0.418
  427W        W 4491   1.356   9.873   2.405
  428W        W 4492   4.126   4.498   0.201
  429W        W 4493   4.073   9.465   9.896
  430W        W 4494   4.808   3.209  10.289
  431W        W 4495   5.219   7.947   8.931
  432W        W 4496   6.053  10.024   2.792
  433W        W 4497   8.860   4.803  11.812
  434W        W 4498   0.819   7.515   3.106
  435W        W 4499   0.839   4.977   2.616
  436W        W 4500   4.395  10.404  10.001
  437W        W 4501   3.850   0.438  11.449
  438W        W 4502   0.007   6.982  11.315
  439W        W 4503   8.437   3.167   8.829
  440W        W 4504   3.631   6.430   3.661
  441W        W 4505   4.261   8.476   0.752
  442W        W 4506   4.258   8.837  11.104
  443W        W 4507   1.932   5.620   3.275
  444W        W 4508   7.596   8.596   1.244
  445W        W 4509   4.985   7.209   4.099
  446W        W 4510   6.440   9.798  11.492
  447W        W 4511   7.160   0.871   9.206
  448W        W 4512   4.786  10.457  10.593
  449W        W 4513   9.028   5.628   3.453
  450W        W 4514   1.669   6.630   9.345
  451W        W 4515   8.426   4.010   2.206
  452W        W 4516   9.007   6.561   1.450
  453W        W 4517   7.465   7.709   2.667
  454W        W 4518   7.040   5.939   3.094
  455W        W 4519   1.844   6.637  10.815
  456W        W 4520   8.706   3.406   0.083
  457W        W 4521   7.157   0.808   1.018
  458W        W 4522   1.906   5.280   9.112
  459W        W 4523   9.045   5.469  10.119
  460W        W 4524  10.246   5.011   0.723
  461W        W 4525   2.841   4.715   3.535
  462W        W 4526   0.961   7.001   1.331
  463W        W 4527   0.896   4.433  10.284
  464W        W 4528   6.990   4.904   1.002
  465W        W 4529   6.392   2.038   9.542
  466W        W 4530   7.502   0.502  11.300
  467W        W 4531   5.621   8.484  10.871
  468W        W 4532   3.758   7.065   9.145
  469W        W 4533  10.130   7.577  10.401
  470W        W 4534   9.337   1.841  10.362
  471W        W 4535   1.606   1.950   1.784
  472W        W 4536   7.051   3.117   3.061
  473W        W 4537   3.998   0.345   8.711
  474W        W 4538   4.761   4.914   8.420
  475W        W 4539   5.044   2.582   0.344
  476W        W 4540   6.691   6.681  11.904
  477W        W 4541   7.738   0.470   2.313
  478W        W 4542   4.521   9.668   8.529
  479W        W 4543   8.417   0.832   2.277
  480W        W 4544   5.275   9.151  11.958
  481W        W 4545   4.726   6.620  10.724
  482W        W 4546   6.740   3.087   0.987
  483W        W 4547   0.860   2.106   0.699
  484W        W 4548   8.424   7.257   3.437
  485W        W 4549   1.304  10.308   3.260
  486W        W 4550   6.479   6.937   3.225
  487W        W 4551   3.770   8.492   0.903
  488W        W 4552   5.722   8.436   2.692
  489W        W 4553   2.685   6.095   8.383
  490W        W 4554   3.750   8.765   3.516
  491W        W 4555   2.161   8.531   1.617
  492W        W 4556   7.277   6.501  10.723
  493W        W 4557   1.181   5.647   9.028
  494W        W 4558   7.744   6.865   9.320
  495W        W 4559   4.568   7.123  10.737
  496W        W 4560   5.415   3.677   8.221
  497W        W 4561   3.160   4.099   9.761
  498W        W 4562   8.962   1.317   9.724
  499W        W 4563   0.046   3.168   2.697
  500W        W 4564   5.991   4.749   2.469
  501W        W 4565   7.710   8.986  11.492
  502W        W 4566   4.119   2.583   9.440
  503W        W 4567  10.019   0.183  10.207
  504W        W 4568   7.522  10.440   3.485
  505W        W 4569   0.734   2.520  10.745
  506W        W 4570   3.208   6.728   2.480
  507W        W 4571   1.160   2.374   9.698
  508W        W 4572   4.092   6.253   1.970
  509W        W 4573   3.833   5.017  10.632
  510W        W 4574   9.238   2.773  11.357
  511W        W 4575   5.458   4.940   3.649
  512W        W 4576   8.575   9.869   1.668
  513W        W 4577   2.435   9.185   1.214
  514W        W 4578   4.505   4.562   9.989
  515W        W 4579   6.757   7.548   1.332
  516W        W 4580   4.623   9.284  11.571
  517W        W 4581   5.149   3.635   3.261
  518W        W 4582   8.926   6.000   0.844
  519W        W 4583   2.853   3.738   3.143
  520W        W 4584   6.919   4.335   3.913
  521W        W 4585   4.824   9.855  10.309
  522W        W 4586  10.360   6.093   8.862
  523W        W 4587   5.278   4.070   0.191
  524W        W 4588   9.491   4.258   0.738
  525W        W 4589   5.309   4.127  10.319
  526W        W 4590  10.250   4.262  10.094
  527W        W 4591   4.316  10.123   2.720
  528W        W 4592   2.496   1.479   3.043
  529W        W 4593   6.178   3.479   3.109
  530W        W 4594   6.953   0.358   2.008
  531W        W 4595   2.781   1.415   1.014
  532W        W 4596   5.993   3.129   8.866
  533W        W 4597   3.136   2.258   9.524
  534W        W 4598   9.132   4.170   9.585
  535W        W 4599   8.463   2.452   0.396
  536W        W 4600   5.693   5.469   9.458
  537W        W 4601   2.705   1.485   9.076
  538W        W 4602   8.908   4.286  10.519
  539W        W 4603   2.201   9.916   9.025
  540W        W 4604   5.764   7.165  11.904
  541W        W 4605   8.475   3.868   2.746
  542W        W 4606  10.177   9.570   2.393
  543W        W 4607   9.327   5.090  11.011
  544W        W 4608   7.926   6.444   2.262
  545W        W 4609   6.935   4.750   9.805
  546W        W 4610   1.264   5.132   2.334
  547W        W 4611   9.644   0.434  10.438
  548W        W 4612   9.806   0.367   1.245
  549W        W 4613   4.794   1.773   1.941
  550W        W 4614   5.324   7.368   0.298
  551W        W 4615   0.533   4.005  11.396
  552W        W 4616   8.045   5.611   3.438
  553W        W 4617   4.240   8.277  11.170
  554W        W 4618   4.759   9.859   2.692
  555W        W 4619   1.348   9.787   1.397
  556W        W 4620  10.390   1.216   1.421
  557W        W 4621   7.939   5.453   9.380
  558W        W 4622   3.865   0.681   9.741
  559W        W 4623   0.503   0.850   2.737
  560W        W 4624   3.789   9.528   0.646
  561W        W 4625   1.582   1.975  10.986
  562W        W 4626   5.467   2.611   9.253
  563W        W 4627   3.502   3.377   0.366
  564W        W 4628   4.046   8.249  10.285
  565W        W 4629   9.101   1.445   8.727
  566W        W 4630   8.057   6.252  11.716
  567W        W 4631   8.104   4.614  10.444
  568W        W 4632   3.222   0.933   8.722
  569W        W 4633   2.335   8.191   1.300
  570W        W 4634   0.682   6.107   3.301
  571W        W 4635   3.573   6.776   3.249
  572W        W 4636   8.232   3.411   0.264
  573W        W 4637   3.036   0.115   0.948
  574W        W 4638   2.580  10.219   8.854
  575W        W 4639   3.750   1.406   1.409
  576W        W 4640   2.070   5.093   9.754
  577W        W 4641   4.252   0.233  11.751
  578W        W 4642   9.924   4.880  10.067
  579W        W 4643   5.445   1.293  10.021
  580W        W 4644   9.937   8.537   9.504
  581W        W 4645   0.731   4.025   9.974
  582W        W 4646   9.329   0.482   9.526
  583W        W 4647   3.951   5.948   3.223
  584W        W 4648  10.248   7.397   8.493
  585W        W 4649   5.181   8.241   1.450
  586W        W 4650   7.056   1.533  10.833
  587W        W 4651  10.347   1.618   2.908
  588W        W 4652   2.288   2.671   0.664
  589W        W 4653  10.336   9.385   9.000
  590W        W 4654   1.744   3.328  11.493
  591W        W 4655   7.870   9.360   2.112
  592W        W 4656   9.955   3.759   1.146
  593W        W 4657   1.251   0.040  10.314
  594W        W 4658   1.473   8.984   9.393
  595W        W 4659   7.963   8.557  10.721
  596W        W 4660  10.104   4.340   3.277
  597W        W 4661   5.554   4.998  11.350
  598W        W 4662   1.731   2.726   2.917
  599W        W 4663   0.108   4.284   3.499
  600W        W 4664   8.374   0.494  11.262
  601W        W 4665  10.337  10.395   1.251
  602W        W 4666   0.936   4.850   3.105
  603W        W 4667   4.512   6.207   8.549
  604W        W 4668  10.206   3.416   3.493
  605W        W 4669  10.385   5.176  10.092
  606W        W 4670   8.933   5.250   2.293
  607W        W 4671   9.416   6.140   3.257
  608W        W 4672  10.291   0.627  10.074
  609W        W 4673   4.301   3.741   2.700
  610W        W 4674  10.351  10.085  10.772
  611W        W 4675   7.113   3.290  10.599
  612W        W 4676   4.943   2.121   9.689
  613W        W 4677   6.403   3.594   8.475
  614W        W 4678  10.392   3.763   1.455
  615W        W 4679   9.547   5.846   2.353
  616W        W 4680   5.076   2.589   9.585
  617W        W 4681   1.771  10.276  11.658
  618W        W 4682   3.622   1.334  10.423
  619W        W 4683   8.348  10.028  10.918
  620W        W 4684   2.880   1.277   0.225
  621W        W 4685   2.406   8.408   9.215
  622W        W 4686  10.241  10.203   1.747
  623W        W 4687   9.734   2.672   0.450
  624W        W 4688   0.403   1.175   1.732
  625W        W 4689   2.108   5.549   9.529
  626W        W 4690   8.048   6.973   1.417
  627W        W 4691   0.312   9.521   9.605
  628W        W 4692   5.318   5.020   1.369
  629W        W 4693   5.347   0.199   1.187
  630W        W 4694   9.505   7.936   9.918
  631W        W 4695   9.734   7.819  11.881
  632W        W 4696   3.740   2.265   3.571
  633W        W 4697   9.900   3.880   9.283
  634W        W 4698   6.606   7.459  10.078
  635W        W 4699   7.672   3.169   9.268
  636W        W 4700   3.205   0.591   3.503
  637W        W 4701   0.934   3.993   8.975
  638W        W 4702   8.451   0.359  11.734
  639W        W 4703   0.831   0.460   8.966
  640W        W 4704   7.087   4.120   2.574
  641W        W 4705   9.512   0.046   8.551
  642W        W 4706   5.149   7.245   1.665
  643W        W 4707   6.050   2.053   2.151
  644W        W 4708   9.580   7.026  11.504
  645W        W 4709   5.165   7.669   2.591
  646W        W 4710   7.489   7.661   8.833
  647W        W 4711   3.577   5.152   1.217
  648W        W 4712   7.869   3.971  10.996
  649W        W 4713   6.163   5.970   2.723
  650W        W 4714   6.154   1.867   9.121
  651W        W 4715   7.909   4.341   0.469
  652W        W 4716   5.787   8.381  10.045
  653W        W 4717   7.143   5.957  11.816
  654W        W 4718   0.919   1.425   9.798
  655W        W 4719   9.957   6.229   0.902
  656W        W 4720   8.178   5.629   0.577
  657W        W 4721   2.825   5.042   9.557
  658W        W 4722   0.384   1.247  11.842
  659W        W 4723   8.062   5.471   1.299
  660W        W 4724   4.551   9.852   2.213
  661W        W 4725   2.596   1.982  11.794
  662W        W 4726   1.806   4.671   8.474
  663W        W 4727   6.025   3.236   0.743
  664W        W 4728   0.141   9.306   2.492
  665W        W 4729   6.555   1.388   1.334
  666W        W 4730   7.186   0.387   9.420
  667W        W 4731   2.105   6.599   9.035
  668W        W 4732   7.007   3.203   0.570
  669W        W 4733   2.447   9.644   0.204
  670W        W 4734   4.015   3.267  10.031
  671W        W 4735   5.070   3.518   2.783
  672W        W 4736   8.821   8.409  11.872
  673W        W 4737   4.581   0.602  10.503
  674W        W 4738   4.238   0.925   9.977
  675W        W 4739   5.150   0.852   8.898
  676W        W 4740   9.964   0.310   0.215
  677W        W 4741   6.041   9.656   0.022
  678W        W 4742   6.522   4.749  11.662
  679W        W 4743   2.287   1.355   8.526
  680W        W 4744   1.770   4.664  10.615
  681W        W 4745   4.214   8.001   1.628
  682W        W 4746   4.634   0.529   1.027
  683W        W 4747   7.487   0.141  10.869
  684W        W 4748   0.112   4.942  11.265
  685W        W 4749   4.039   2.879  10.379
  686W        W 4750   7.961   6.808   0.925
  687W        W 4751   7.879   9.033   1.337
  688W        W 4752   5.671   4.525  10.290
  689W        W 4753   2.101   8.576  11.439
  690W        W 4754   5.648   7.554   2.298
  691W        W 4755   7.722   1.879  11.402
  692W        W 4756   0.513   6.990  11.137
  693W        W 4757   2.820   4.507   1.496
  694W        W 4758   9.826   1.204  10.660
  695W        W 4759   6.020   0.657   1.484
  696W        W 4760   0.714   0.672  10.350
  697W        W 4761   9.572   2.629   9.993
  698W        W 4762   3.517   9.162   1.835
  699W        W 4763   1.464   5.602   2.363
  700W        W 4764   5.003   6.613   9.005
  701W        W 4765   6.370   0.676   9.534
  702W        W 4766   2.368   3.063  10.969
  703W        W 4767   4.633   6.016   2.845
  704W        W 4768   5.201   2.222   0.019
  705W        W 4769   3.790   9.865   2.726
  706W        W 4770   3.023   7.973  10.055
  707W        W 4771   3.850   8.224   1.899
  708W        W 4772   2.478   0.948   2.177
  709W        W 4773   3.011   1.106  11.360
  710W        W 4774   0.360   2.395   9.169
  711W        W 4775   8.450   7.256   1.612
  712W        W 4776   2.324   1.194   1.717
  713W        W 4777   4.152   1.767   0.206
  714W        W 4778   5.667   7.968   2.940
  715W        W 4779   2.764   7.015  11.321
  716W        W 4780   7.196   1.681   2.293
  717W        W 4781   7.312   8.568  11.511
  718W        W 4782   1.219   3.335   8.766
  719W        W 4783   0.942   3.699  11.248
  720W        W 4784   1.881   4.133   1.255
  721W        W 4785   8.002   8.363   9.725
  722W        W 4786   2.057   7.617  10.067
  723W        W 4787   6.177   3.037   2.233
  724W        W 4788   1.211  10.016  11.688
  725W        W 4789   6.461   6.982  10.542
  726W        W 4790   5.730   6.634   8.448
  727W        W 4791   0.879   2.615   0.613
  728W        W 4792   9.954   6.123  11.982
  729W        W 4793   9.393   8.724  11.331
  730W        W 4794   9.230   5.226  10.526
  731W        W 4795   8.882   2.718   3.033
  732W        W 4796   0.622   9.444   3.436
  733W        W 4797   1.409   6.705   1.394
  734W        W 4798   6.549   8.029  11.404
  735W        W 4799   6.157   8.415   8.786
  736W        W 4800   0.998  10.176   2.244
  737W        W 4801   2.782   2.199   1.259
  738W        W 4802   5.139   3.606   0.032
  739W        W 4803   7.587   4.572   3.693
  740W        W 4804   6.009   0.563  10.629
  741W        W 4805   0.800   0.134   2.293
  742W        W 4806  10.162  10.236   9.980
  743W        W 4807   3.520   8.848  11.690
  744W        W 4808   2.836   5.091   1.849
  745W        W 4809   1.476   0.957   2.549
  746W        W 4810   6.585   6.506   2.170
  747W        W 4811   2.601   7.006   9.742
  748W        W 4812   4.743   7.513   2.295
  749W        W 4813   0.009   3.448  11.958
  750W        W 4814   3.228   8.939   1.465
  751W        W 4815   4.620  10.228   3.488
  752W        W 4816   9.109   8.787   1.825
  753W        W 4817   6.197  10.492   2.667
  754W        W 4818   6.451   3.396   2.667
  755W        W 4819   4.509   3.084   8.954
  756W        W 4820   4.736   0.755   3.352
  757W        W 4821   2.163   8.037   2.400
  758W        W 4822   8.688   1.770   2.005
  759W        W 4823   9.491   6.996   8.793
  760W        W 4824   7.406   2.303   8.852
  761W        W 4825   2.753   1.664   0.563
  762W        W 4826   7.673   8.617   8.910
  763W        W 4827   3.267   4.525   1.752
  764W        W 4828   9.869   8.759   1.047
  765W        W 4829   0.231   9.864  10.544
  766W        W 4830   9.385   5.104  10.028
  767W        W 4831   7.903   4.570   1.530
  768W        W 4832   3.363   9.440   1.437
  769W        W 4833   0.683   5.637   9.588
  770W        W 4834   4.047   6.635   9.212
  771W        W 4835   5.838   1.655   1.919
  772W        W 4836   7.305  10.022   9.213
  773W        W 4837   6.737   4.678   9.109
  774W        W 4838   2.311   8.215  10.692
  775W        W 4839   4.603   8.318   8.546
  776W        W 4840   5.587   8.824   9.715
  777W        W 4841   8.310   9.472  11.782
  778W        W 4842   7.342   7.855  11.020
  779W        W 4843   6.837   9.819   1.668
  780W        W 4844   7.720   2.670  10.897
  781W        W 4845   7.078   6.894   0.826
  782W        W 4846   0.460  10.301  10.474
  783W        W 4847   1.250   7.927   9.128
  784W        W 4848   1.840   8.385   0.263
  785W        W 4849   1.685   3.820   0.434
  786W        W 4850   8.334   9.038   9.230
  787W        W 4851   2.381   5.721  11.875
  788W        W 4852   6.387   3.995   9.719
  789W        W 4853   9.788   2.817   1.453
  790W        W 4854   3.176   7.487   0.383
  791W        W 4855   1.819   5.710   0.533
  792W        W 4856   6.235   5.535   3.006
  793W        W 4857   9.971   9.980   0.365
  794W        W 4858   4.587  10.412   9.167
  795W        W 4859  10.493   7.976   1.814
  796W        W 4860   3.714   7.066  11.840
  797W        W 4861   8.383   1.293   9.073
  798W        W 4862   9.124   8.060   0.620
  799W        W 4863   1.249   5.533   0.617
  800W        W 4864   2.280  10.018   2.501
  801W        W 4865   3.759   8.441  11.945
  802W        W 4866   0.789   0.178  10.474
  803W        W 4867   9.566   8.948   0.186
  804W        W 4868   4.917   1.617   3.684
  805W        W 4869   3.412  10.360  10.366
  806W        W 4870   3.101   8.529  10.390
  807W        W 4871   4.910   4.172  11.268
  808W        W 4872   6.195   1.406   0.254
  809W        W 4873   9.095   5.534  10.935
  810W        W 4874   0.371   6.034   8.863
  811W        W 4875   7.021   2.735   1.710
  812W        W 4876   2.687   3.218   1.975
  813W        W 4877   1.900   7.950   1.450
  814W        W 4878   1.938  10.370   2.674
  815W        W 4879   8.594   4.676  10.565
  816W        W 4880   9.900   8.364   3.280
  817W        W 4881   3.910   3.393   0.697
  818W        W 4882   5.062   4.618   3.676
  819W        W 4883   3.554   7.867   9.441
  820W        W 4884   5.114   8.464   8.907
  821W        W 4885   4.629   6.857   3.478
  822W        W 4886   6.967   8.056   2.525
  823W        W 4887   0.017   3.744   8.822
  824W        W 4888   8.509  10.001   2.157
  825W        W 4889   0.357   9.888   1.716
  826W        W 4890   6.905  10.475   9.690
  827W        W 4891   6.562   6.572   9.741
  828W        W 4892  10.255   6.091   3.653
  829W        W 4893   7.659   8.896   1.969
  830W        W 4894   9.100   7.569  11.933
  831W        W 4895  10.018   3.282  10.977
  832W        W 4896   6.122   0.058   0.716
  833W        W 4897   1.250   3.630  10.097
  834W        W 4898   9.791   1.836   8.544
  835W        W 4899   0.274   2.702   1.513
  836W        W 4900   9.362   8.350   2.003
  837W        W 4901   2.828   7.440   3.333
  838W        W 4902   0.111   6.575   0.716
  839W        W 4903   8.197   9.461   8.636
  840W        W 4904   2.916   1.624  10.508
  841W        W 4905   2.380   6.989   8.807
  842W        W 4906   3.268   8.437  10.929
  843W        W 4907   4.029   6.139   8.385
  844W        W 4908   5.505   3.857   3.542
  845W        W 4909   1.675   8.032   9.393
  846W        W 4910   7.532   8.395   1.831
  847W        W 4911  10.435   4.201   1.182
  848W        W 4912   7.778   6.429  10.781
  849W        W 4913   7.131   7.446   3.205
  850W        W 4914   9.689   6.465  10.730
  851W        W 4915   3.147   2.622   0.981
  852W        W 4916   2.987   1.770   0.056
  853W        W 4917   3.280   4.886  11.517
  854W        W 4918   5.166   5.755  11.849
  855W        W 4919   1.354   3.314   1.186
  856W        W 4920   9.028   3.564  10.816
  857W        W 4921   8.190   8.799   0.403
  858W        W 4922   2.744   6.975   1.446
  859W        W 4923   9.820   7.341   1.755
  860W        W 4924   5.159  10.480  11.348
  861W        W 4925   5.690   8.108   3.461
  862W        W 4926   3.354   9.403   3.472
  863W        W 4927  10.450   0.857   1.812
  864W        W 4928   7.366   6.691   3.636
  865W        W 4929   7.490   4.898  11.805
  866W        W 4930   6.468   8.848   2.525
  867W        W 4931   6.986   7.492   1.798
  868W        W 4932   1.944   4.788   2.505
  869W        W 4933   7.640   9.153   9.996
  870W        W 4934   0.262   4.264   0.467
  871W        W 4935   7.032   2.677   8.780
  872W        W 4936   8.153   3.238   1.520
  873W        W 4937   1.271   6.235   1.535
  874W        W 4938   4.242   4.682  11.726
  875W        W 4939  10.440   7.526  10.008
  876W        W 4940   9.604   0.665   9.931
  877W        W 4941   9.930   0.725  10.781
  878W        W 4942   4.150   4.612   3.696
  879W        W 4943   3.603   9.043   9.116
  880W        W 4944   3.332   9.294   2.461
  881W        W 4945   4.998   7.632   0.028
  882W        W 4946   8.617   5.056  11.381
  883W        W 4947   0.392   0.505   9.249
  884W        W 4948   0.941   8.525  10.229
  885W        W 4949   4.188   2.403   3.062
  886W        W 4950   0.472   8.326   1.242
  887W        W 4951   1.813   8.840   1.856
  888W        W 4952   5.505   3.186   8.054
  889W        W 4953   3.817   0.388   0.449
  890W        W 4954   1.182   5.168   9.704
  891W        W 4955   9.070   9.268   3.519
  892W        W 4956   1.633   0.934   1.089
  893W        W 4957   7.608   1.060   1.144
  894W        W 4958   9.993  10.029   1.231
  895W        W 4959   1.247   5.007   0.400
  896W        W 4960   1.724   0.711   9.470
  897W        W 4961   1.841   6.699   2.275
  898W        W 4962   7.827   8.999  10.445
  899W        W 4963  10.392   3.247   8.707
  900W        W 4964  10.208   7.928   8.693
  901W        W 4965   9.109   9.591  10.962
  902W        W 4966  10.103   9.948   8.994
  903W        W 4967   2.397   7.264   0.943
  904W        W 4968  10.057   9.084   0.348
  905W        W 4969   0.287   0.692  10.680
  906W        W 4970   4.785   0.808   2.176
  907W        W 4971   4.557   8.720   3.554
  908W        W 4972  10.388   8.577   0.234
  909W        W 4973   3.268   2.096  10.797
  910W        W 4974   6.514   0.737  11.279
  911W        W 4975   0.052   3.259   2.181
  912W        W 4976   5.134   7.178   2.218
  913W        W 4977   1.134   3.791   2.390
  914W        W 4978   7.621   9.273  11.925
  915W        W 4979   9.817   1.226   0.497
  916W        W 4980   5.642   7.679  10.442
  917W        W 4981   2.828   7.439   0.739
  918W        W 4982   8.501   3.666   3.263
  919W        W 4983   0.651   5.599  11.863
  920W        W 4984   2.177   9.563   1.459
  921W        W 4985   5.456   7.693   3.704
  922W        W 4986   0.452   8.453   0.387
  923W        W 4987   5.935   7.548  11.576
  924W        W 4988   6.627   7.201   0.802
  925W        W 4989   8.755   7.333   0.909
  926W        W 4990   4.968   0.766   2.682
  927W        W 4991   4.437   6.933  11.210
  928W        W 4992   7.442   5.055   3.551
  929W        W 4993   3.082   3.028   1.725
  930W        W 4994   8.629   3.274   1.760
  931W        W 4995   1.345   2.789   3.298
  932W        W 4996   7.552   8.554  10.286
  933W        W 4997   4.858   3.082   2.237
  934W        W 4998   5.803   2.229   9.213
  935W        W 4999   6.488   9.359  10.727
  936W        W 5000   7.105   7.393   0.937
  937W        W 5001   4.995   5.499   2.116
  938W        W 5002   4.651   7.591   9.042
  939W        W 5003   0.531   9.909   0.266
  940W        W 5004   3.084   2.832  10.304
  941W        W 5005   0.318   5.520   1.869
  942W        W 5006  10.330   9.953   2.742
  943W        W 5007   9.909   9.559   9.285
  944W        W 5008   7.109   9.888   2.127
  945W        W 5009   5.680   6.021   2.972
  946W        W 5010  10.079   2.536   2.867
  947W        W 5011   8.390   2.946   0.301
  948W        W 5012   3.811   7.058  11.330
  949W        W 5013   6.108   6.569  10.045
  950W        W 5014   8.000   5.587   2.369
  951W        W 5015   5.186   7.645   2.055
  952W        W 5016   6.002   9.573   0.522
  953W        W 5017   9.810  10.463   3.830
  954W        W 5018   6.066   0.023  11.274
  955W        W 5019   6.532   4.015   0.022
  956W        W 5020   7.734   2.480   0.648
  957W        W 5021   1.900   4.891   3.527
  958W        W 5022   6.576   9.129   9.854
  959W        W 5023   1.395   0.553   2.941
  960W        W 5024   9.523   6.956  10.754
  961W        W 5025   9.115   3.056   2.329
  962W        W 5026   9.876   0.908   3.883
  963W        W 5027   0.574   4.712   8.646
  964W        W 5028   3.319   6.158  10.514
  965W        W 5029   6.245   7.255   3.546
  966W        W 5030   2.751   3.711   2.135
  967W        W 5031   3.572   6.485   2.211
  968W        W 5032   5.254   2.092   1.220
  969W        W 5033   3.391   4.997   0.778
  970W        W 5034   2.638   0.185   9.313
  971W        W 5035   4.593   4.588   1.928
  972W        W 5036  10.051   7.291   2.243
  973W        W 5037   7.095   8.324   8.599
  974W        W 5038   5.210   2.218   2.100
  975W        W 5039   1.191   5.268   2.901
  976W        W 5040   8.122   1.757   8.998
  977W        W 5041   6.659   5.401   9.523
  978W        W 5042   6.502   4.135   0.943
  979W        W 5043   4.984   1.413  10.194
  980W        W 5044   2.184   6.041   8.588
  981W        W 5045   0.969   6.816   2.811
  982W        W 5046   7.181   3.132   2.052
  983W        W 5047   7.474   6.596   0.978
  984W        W 5048   2.929   9.541  11.778
  985W        W 5049   0.750   2.344   2.142
  986W        W 5050   4.605   8.208   9.927
  987W        W 5051   2.453   9.377   3.183
  988W        W 5052   4.553   1.230   9.425
  989W        W 5053   3.875   3.642   3.559
  990W        W 5054   6.259   1.534   9.474
  991W        W 5055   4.724   6.582   4.236
  992W        W 5056   6.297   1.453   3.282
  993W        W 5057   9.515   4.132  11.346
  994W        W 5058   2.278   7.942   3.550
  995W        W 5059   1.631   5.537   1.869
  996W        W 5060   8.735   1.532   1.542
  997W        W 5061   1.288   9.479   9.252
  998W        W 5062   0.834   6.804   8.710
  999W        W 5063   2.926   1.470   2.764
 1000W        W 5064   5.597   9.508   9.969
 1001W        W 5065   0.557   1.796   1.345
 1002W        W 5066   5.521   6.934   0.928
 1003W        W 5067   5.506   4.862  10.846
 1004W        W 5068   1.753   9.970  10.830
 1005W        W 5069   3.783   4.941  11.614
 1006W        W 5070   0.023   6.228  10.903
 1007W        W 5071   8.356   2.795  11.435
 1008W        W 5072   6.788   8.499  11.569
 1009W        W 5073   1.327   0.538   1.162
 1010W        W 5074   0.921   7.300   2.653
 1011W        W 5075   1.230   0.606   1.680
 1012W        W 5076   5.202   5.587   9.456
 1013W        W 5077   7.660   4.746   8.742
 1014W        W 5078   3.758   4.549   2.444
 1015W        W 5079   9.527   9.740   9.626
 1016W        W 5080   5.835   3.214   3.902
 1017W        W 5081   9.087   3.113  11.006
 1018W        W 5082   8.178   1.737   1.286
 1019W        W 5083   0.717   9.897  11.777
 1020W        W 5084   8.692   8.996   0.505
 1021W        W 5085   6.946   7.944   9.369
 1022W        W 5086   9.075   2.620  10.883
 1023W        W 5087   7.523   0.975   8.860
 1024W        W 5088   4.086   4.702  10.274
 1025W        W 5089   4.507   8.958   1.654
 1026W        W 5090   3.560   0.019   0.191
 1027W        W 5091   6.760   6.123   1.292
 1028W        W 5092   7.689   1.794   2.352
 1029W        W 5093   8.000   1.956  10.054
 1030W        W 5094   5.994   4.518   3.828
 1031W        W 5095   2.827   6.014   0.573
 1032W        W 5096   4.904  10.498   0.422
 1033W        W 5097   1.878   6.134   8.986
 1034W        W 5098   8.938   9.411   0.807
 1035W        W 5099   6.535   8.931  11.570
 1036W        W 5100   8.660   0.207  10.394
 1037W        W 5101  10.048   2.639  10.121
 1038W        W 5102   1.348   2.375   2.949
 1039W        W 5103   1.987   7.617   2.661
 1040W        W 5104   4.227   9.957   0.151
 1041W        W 5105   0.244   8.608   9.923
 1042W        W 5106   9.414   6.568  11.671
 1043W        W 5107   2.088   7.653   8.710
 1044W        W 5108   7.485   3.148  11.813
 1045W        W 5109   4.066   6.611   0.440
 1046W        W 5110   4.096   6.605   0.953
 1047W        W 5111   8.412  10.016   0.768
 1048W        W 5112   5.019   6.730   3.845
 1049W        W 5113   6.506   3.506   0.070
 1050W        W 5114   0.280   3.716   2.242
 1051W        W 5115   0.680   6.428   9.023
 1052W        W 5116   9.071   5.012   0.366
 1053W        W 5117   9.611   3.135   2.296
 1054W        W 5118   3.442   4.655   9.115
 1055W        W 5119   9.721   7.273  10.392
 1056W        W 5120   6.795   4.047   8.496
 1057W        W 5121   1.237   4.140   9.937
 1058W        W 5122   4.256   4.693  10.762
 1059W        W 5123   8.098   9.524  10.840
 1060W        W 5124   4.508   6.929   9.345
 1061W        W 5125   9.766   9.865   2.168
 1062W        W 5126   7.409   4.666   0.284
 1063W        W 5127   8.570   3.776   0.927
 1064W        W 5128   0.068   1.956  10.706
 1065W        W 5129   4.374   5.243   1.003
 1066W        W 5130   9.282   8.821   9.913
 1067W        W 5131   5.856   0.423   9.115
 1068W        W 5132   9.920   2.197   9.287
 1069W        W 5133   4.064   7.870   9.352
 1070W        W 5134   6.557   2.796   1.937
 1071W        W 5135   3.615   1.425   3.514
 1072W        W 5136   1.732   1.669   9.104
 1073W        W 5137   5.991  10.417   1.175
 1074W        W 5138   9.993   6.148   9.624
 1075W        W 5139   2.787   4.755   3.014
 1076W        W 5140   9.007   0.963   1.700
 1077W        W 5141   2.722   5.506   0.251
 1078W        W 5142   5.883   4.850   1.970
 1079W        W 5143   2.666  10.228   0.209
 1080W        W 5144   5.588   9.742   3.241
 1081W        W 5145   0.018   2.321   0.425
 1082W        W 5146   5.707   1.905   2.535
 1083W        W 5147   5.993  10.086   0.461
 1084W        W 5148   2.650   2.691  11.263
 1085W        W 5149   4.829   8.604   1.473
 1086W        W 5150   8.082   8.117   3.399
 1087W        W 5151   0.796  10.311   3.323
 1088W        W 5152   5.593   5.951   9.472
 1089W        W 5153   2.864   7.888   0.984
 1090W        W 5154   0.297   2.651   3.310
 1091W        W 5155   6.584   1.187  11.517
 1092W        W 5156   5.975   0.842   0.952
 1093W        W 5157   7.905   7.799   0.681
 1094W        W 5158   1.836   5.516   1.386
 1095W        W 5159   2.699   3.398  11.735
 1096W        W 5160   1.356   6.451   3.573
 1097W        W 5161   3.347   8.394   2.137
 1098W        W 5162   6.611   6.700   0.867
 1099W        W 5163   3.306   8.668   1.039
 1100W        W 5164   7.411   0.263   2.925
 1101W        W 5165   0.511   3.380  11.827
 1102W        W 5166   3.819   8.816   2.765
 1103W        W 5167   2.757   4.321   1.019
 1104W        W 5168   6.013   3.672   0.471
 1105W        W 5169   2.310   8.115   0.377
 1106W        W 5170   9.963   6.339  10.310
 1107W        W 5171   9.797   8.961   9.945
 1108W        W 5172   1.646   3.880   2.340
 1109W        W 5173   2.805   9.509   3.521
 1110W        W 5174   9.938   5.441   1.920
 1111W        W 5175   2.170   7.363   9.141
 1112W        W 5176  10.495   1.127   9.879
 1113W        W 5177   3.142  10.249   1.935
 1114W        W 5178   7.013  10.358   1.232
 1115W        W 5179   0.390   9.326   0.999
 1116W        W 5180   4.505   0.463   3.009
 1117W        W 5181   3.404   3.550   0.850
 1118W        W 5182   7.232  10.341  10.535
 1119W        W 5183   5.075  10.484  11.919
 1120W        W 5184   4.792   9.975   9.334
 1121W        W 5185   7.235   8.849   0.809
 1122W        W 5186   5.394   5.788   9.902
 1123W        W 5187   9.346   9.026   3.112
 1124W        W 5188   3.521   3.107  10.079
 1125W        W 5189   1.327   8.147  10.185
 1126W        W 5190   4.118   4.169  10.866
 1127W        W 5191   9.419   3.251   2.771
 1128W        W 5192   5.704  10.037   9.818
 1129W        W 5193   4.620   9.447   1.502
 1130W        W 5194   9.226   8.655   8.889
 1131W        W 5195   3.421   1.802  11.752
 1132W        W 5196   3.524   6.245   3.198
 1133W        W 5197   0.034   4.059  11.316
 1134W        W 5198   6.504   6.142  10.995
 1135W        W 5199   5.622   8.744   1.506
 1136W        W 5200   1.322   6.916  10.536
 1137W        W 5201   4.736   1.680   9.574
 1138W        W 5202   4.553   9.587   9.546
 1139W        W 5203   6.015   1.033   9.458
 1140W        W 5204   9.630   6.694   2.648
 1141W        W 5205   6.694   7.946  10.368
 1142W        W 5206   9.924   2.602   9.612
 1143W        W 5207  10.386   4.713   1.132
 1144W        W 5208   4.317   2.252   2.537
 1145W        W 5209   3.845   9.817  10.861
 1146W        W 5210   7.776   7.019   2.807
 1147W        W 5211   9.034   7.903  10.110
 1148W        W 5212   3.232   7.299  11.686
 1149W        W 5213   7.505   7.373  10.944
 1150W        W 5214  10.469   3.228   9.226
 1151W        W 5215   4.037   6.529   2.442
 1152W        W 5216   3.267   6.226   1.373
 1153W        W 5217   5.536   5.343  11.745
 1154W        W 5218   3.705   4.584   9.896
 1155W        W 5219  10.239   9.383   1.581
 1156W        W 5220   1.268   7.602   1.188
 1157W        W 5221   0.657   1.975  10.879
 1158W        W 5222   9.049   0.372   3.483
 1159W        W 5223  10.349   6.163   9.972
 1160W        W 5224   0.810  10.258   9.575
 1161W        W 5225   9.881   8.590   0.400
 1162W        W 5226   6.054   9.447   1.436
 1163W        W 5227   0.857   1.635   0.961
 1164W        W 5228   0.344   3.706  11.030
 1165W        W 5229   8.119   8.731  11.248
 1166W        W 5230   0.373   7.850   1.434
 1167W        W 5231   4.750   8.601   0.975
 1168W        W 5232   4.694   5.148   0.268
 1169W        W 5233   5.648   2.137   1.853
 1170W        W 5234   5.449   6.490   0.417
 1171W        W 5235   9.287   9.650   0.536
 1172W        W 5236   2.779   8.129   8.996
 1173W        W 5237   3.556   9.384  10.815
 1174W        W 5238   7.695   2.698   8.997
 1175W        W 5239   0.391   6.681  10.398
 1176W        W 5240   9.391   3.921  10.880
 1177W        W 5241   9.724   0.921   2.241
 1178W        W 5242   9.080   4.469   1.246
 1179W        W 5243   8.456   9.995   9.825
 1180W        W 5244   3.779   4.553  10.863
 1181W        W 5245   7.235   0.323   2.428
 1182W        W 5246   2.110   0.279   0.123
 1183W        W 5247   7.599   5.165   0.254
 1184W        W 5248   8.055   0.842   0.951
 1185W        W 5249   6.396  10.289  11.584
 1186W        W 5250   4.964   5.698   9.001
 1187W        W 5251   8.169   0.730  10.862
 1188W        W 5252   0.672   2.406   1.635
 1189W        W 5253   6.501   5.084   9.961
 1190W        W 5254   5.621   3.122  11.407
 1191W        W 5255   9.787   2.578  10.564
 1192W        W 5256   8.370   2.670   3.050
 1193W        W 5257   3.159   8.822  11.268
 1194W        W 5258   4.148   7.991   9.835
 1195W        W 5259   6.025   2.783  11.456
 1196W        W 5260   9.830   5.309   2.397
 1197W        W 5261   2.609   2.399   9.754
 1198W        W 5262   3.636   0.354   2.488
 1199W        W 5263   4.573   3.268   3.092
 1200W        W 5264   0.251   7.922   2.333
 1201W        W 5265   4.240   5.458   3.237
 1202W        W 5266   3.397   5.483   2.704
 1203W        W 5267   3.820   7.445   9.521
 1204W        W 5268   3.923   5.805   7.998
 1205W        W 5269   0.796   3.555   9.765
 1206W        W 5270   9.812   6.280   2.361
 1207W        W 5271   1.674   0.325  11.362
 1208W        W 5272   9.570   3.666  11.946
 1209W        W 5273   2.729   8.810   3.185
 1210W        W 5274   5.139   8.590   2.388
 1211W        W 5275   8.803   4.551   8.622
 1212W        W 5276   2.155   4.194   9.564
 1213W        W 5277   9.825   3.060  10.348
 1214W        W 5278   9.711   2.646   9.146
 1215W        W 5279   8.485   8.595   0.774
 1216W        W 5280   2.156   3.985   3.579
 1217W        W 5281   2.428   7.482   9.588
 1218W        W 5282   3.635   9.007  11.203
 1219W        W 5283   4.362   3.991   2.262
 1220W        W 5284   5.228   7.160  11.830
 1221W        W 5285   0.776   3.277   1.086
 1222W        W 5286   1.442   2.589  11.098
 1223W        W 5287   2.253   6.995  11.471
 1224W        W 5288   5.702   6.414   9.347
 1225W        W 5289   4.321   3.137  10.963
 1226W        W 5290   7.648   5.860  11.820
 1227W        W 5291   1.646   5.364   9.612
 1228W        W 5292   4.227   3.147   9.426
 1229W        W 5293   0.432   2.279   2.917
 1230W        W 5294   0.377   6.372   1.645
 1231W        W 5295   1.393  10.217   8.967
 1232W        W 5296   7.097   4.711  11.015
 1233W        W 5297   9.712   3.648  11.446
 1234W        W 5298   4.415   5.739   8.758
 1235W        W 5299   8.843   8.923   9.122
 1236W        W 5300   5.000   1.326   8.657
 1237W        W 5301   5.498  10.358  11.692
 1238W        W 5302   8.044   2.809   1.216
 1239W        W 5303   9.380  10.495   0.025
 1240W        W 5304   4.192   8.887   9.052
 1241W        W 5305   2.116   1.809   2.493
 1242W        W 5306  10.024   0.492   2.038
 1243W        W 5307   3.473   8.111   9.878
 1244W        W 5308   6.498   6.798   1.742
 1245W        W 5309   6.172   3.252  10.210
 1246W        W 5310   3.298   8.580   0.132
 1247W        W 5311   0.645   9.799   8.419
 1248W        W 5312   8.795   2.718   8.590
 1249W        W 5313   5.457   6.496   4.016
 1250W        W 5314   9.539   1.679   8.981
 1251W        W 5315   9.627   4.255   9.508
 1252W        W 5316   4.548   4.212   2.717
 1253W        W 5317   5.609   5.170   0.218
 1254W        W 5318   1.591   9.125  11.288
 1255W        W 5319   9.279   7.679  11.453
 1256W        W 5320   9.927   0.799   0.752
 1257W        W 5321   3.733   6.001   1.674
 1258W        W 5322   0.373   2.109   3.398
 1259W        W 5323   5.607  10.280  11.189
 1260W        W 5324   6.040  10.440   8.967
 1261W        W 5325   7.788   2.302   9.574
 1262W        W 5326   4.605   1.193   2.489
 1263W        W 5327   6.449   4.399   9.426
 1264W        W 5328   9.613   4.743  10.791
 1265W        W 5329   3.355   5.211  10.750
 1266W        W 5330   4.568   6.435   3.192
 1267W        W 5331   2.189  10.408   0.456
 1268W        W 5332   9.808   5.681   9.438
 1269W        W 5333   4.253   2.191   2.021
 1270W        W 5334  10.326   6.816   3.503
 1271W        W 5335   7.052   1.257  11.261
 1272W        W 5336   7.433   8.291  10.736
 1273W        W 5337   9.687  10.087   9.268
 1274W        W 5338   6.536   2.802   8.972
 1275W        W 5339   0.004  10.387   2.563
 1276W        W 5340   4.501   2.315   9.836
 1277W        W 5341   6.620   2.147   3.294
 1278W        W 5342   9.865   1.309   2.545
 1279W        W 5343   2.407   5.948   9.499
 1280W        W 5344   5.771   3.801   3.118
 1281W        W 5345   8.176   1.781   3.438
 1282W        W 5346   2.732   1.474   2.299
 1283W        W 5347   1.865   2.578  10.052
 1284W        W 5348   8.953   3.661   2.871
 1285W        W 5349   1.205   5.604  11.861
 1286W        W 5350   0.916   1.295  11.225
 1287W        W 5351   0.340   4.478   0.959
 1288W        W 5352   1.230   3.122  10.324
 1289W        W 5353  10.491   4.603   3.088
 1290W        W 5354   7.041   3.567   3.299
 1291W        W 5355   3.670   1.009   9.393
 1292W        W 5356   4.855   1.855  10.584
 1293W        W 5357   5.595  10.388   0.796
 1294W        W 5358   3.633   6.198  10.937
 1295W        W 5359  10.310   8.236   2.227
 1296W        W 5360   4.073   4.716  11.247
 1297W        W 5361  10.274   3.493   2.966
 1298W        W 5362   1.566  10.149  10.380
 1299W        W 5363   8.063  10.370   1.328
 1300W        W 5364   4.753   2.053   2.754
 1301W        W 5365   7.436   4.536   1.831
 1302W        W 5366   3.143   3.800  10.595
 1303W        W 5367   5.171   5.147   0.482
 1304W        W 5368   4.742   4.513  11.619
 1305W        W 5369   8.279   1.329   2.269
 1306W        W 5370   4.678   8.469   0.462
 1307W        W 5371   5.175   1.579   1.281
 1308W        W 5372   0.023   4.820   3.547
 1309W        W 5373   1.349   9.401  10.090
 1310W        W 5374   5.490   3.825  10.716
 1311W        W 5375   3.808  10.304   9.838
 1312W        W 5376   9.209   4.479   0.101
 1313W        W 5377   5.031   4.066   1.142
 1314W        W 5378   4.908   5.591   1.196
 1315W        W 5379   7.500   1.800  10.869
 1316W        W 5380   2.320   9.412   9.155
 1317W        W 5381   2.640   7.925   3.192
 1318W        W 5382   7.523   7.170   8.973
 1319W        W 5383   3.778   6.263   0.717
 1320W        W 5384   0.565   0.341   0.258
 1321W        W 5385   3.151   3.294   2.191
 1322W        W 5386   4.908   2.069   0.402
 1323W        W 5387   6.904   2.192   8.957
 1324W        W 5388   6.506  10.198   2.390
 1325W        W 5389  10.341   6.595   9.573
 1326W        W 5390   4.618   5.043  10.086
 1327W        W 5391   9.501   0.546   0.894
 1328W        W 5392   7.485   3.300   3.223
 1329W        W 5393   3.383   5.926   4.064
 1330W        W 5394   0.024   1.831   0.584
 1331W        W 5395   8.094   1.722  11.062
 1332W        W 5396   7.874   3.454  11.134
 1333W        W 5397   4.797   2.016  11.088
 1334W        W 5398   4.481   5.705   0.214
 1335W        W 5399   8.815   6.072   2.745
 1336W        W 5400   4.020   3.620   0.263
 1337W        W 5401   4.171   2.718   0.699
 1338W        W 5402   7.456   9.845  10.592
 1339W        W 5403   9.754   6.695   3.570
 1340W        W 5404   8.540   1.875   9.259
 1341W        W 5405   3.135   7.862   3.324
 1342W        W 5406   7.491   6.103  10.465
 1343W        W 5407   0.267   2.225   1.880
 1344W        W 5408   3.118   8.487   9.847
 1345W        W 5409   9.807   9.832  10.107
 1346W        W 5410   5.908   1.117   3.384
 1347W        W 5411   3.860   2.675   1.207
 1348W        W 5412   7.295   8.993  10.336
 1349W        W 5413   9.781  10.353   1.945
 1350W        W 5414   9.795   0.368   9.225
 1351W        W 5415   5.946   2.179   9.684
 1352W        W 5416   5.631   0.819   8.669
 1353W        W 5417   0.429   6.784   9.909
 1354W        W 5418   2.546   5.600   0.726
 1355W        W 5419   1.238   3.232   9.789
 1356W        W 5420   0.777   5.687  10.919
 1357W        W 5421   0.358   3.407   0.779
 1358W        W 5422   7.943   4.829   2.888
 1359W        W 5423   7.056   6.977   8.999
 1360W        W 5424   5.569   9.325   0.415
 1361W        W 5425   2.698   3.873   0.736
 1362W        W 5426   8.321   8.531  11.705
 1363W        W 5427   2.466   6.868   0.089
 1364W        W 5428   7.746   8.641   0.754
 1365W        W 5429   1.771   9.871   2.685
 1366W        W 5430   5.072   4.178  10.760
 1367W        W 5431   0.410   5.677   3.368
 1368W        W 5432   7.260   0.302   1.068
 1369W        W 5433   7.563   2.171   2.745
 1370W        W 5434   5.673   2.475  10.005
 1371W        W 5435   0.332   4.193  10.920
 1372W        W 5436   6.964   3.734   1.718
 1373W        W 5437   3.829   9.650   0.168
 1374W        W 5438   3.271   9.293   9.487
 1375W        W 5439   8.156  10.481  11.891
 1376W        W 5440   3.873   5.762   0.674
 1377W        W 5441   8.379   0.238   1.526
 1378W        W 5442   8.883   2.310   9.357
 1379W        W 5443   1.905   2.821  10.902
 1380W        W 5444   7.110   6.554   9.875
 1381W        W 5445   2.448   3.761   1.162
 1382W        W 5446   6.077   7.035   1.492
 1383W        W 5447   1.795   7.457   1.287
 1384W        W 5448   5.958   6.173  10.356
 1385W        W 5449   9.314   1.486   9.386
 1386W        W 5450   9.477   4.202   1.745
 1387W        W 5451   8.919   8.585  11.094
 1388W        W 5452   8.934   4.283   3.401
 1389W        W 5453   3.699   7.215   3.515
 1390W        W 5454   3.133   4.037   1.823
 1391W        W 5455   2.815   7.899  11.516
 1392W        W 5456   3.411   8.036   0.195
 1393W        W 5457   3.831   5.110   8.570
 1394W        W 5458   0.480   7.352   0.558
 1395W        W 5459   2.843   7.620  10.402
 1396W        W 5460   5.940   3.566  10.819
 1397W        W 5461   2.203   6.932   9.409
 1398W        W 5462   5.023   5.516   2.633
 1399W        W 5463   9.338   0.988   0.421
 1400W        W 5464   4.977   8.113  10.827
 1401W        W 5465   0.354   8.202   3.463
 1402W        W 5466   4.636   0.833   0.160
 1403W        W 5467   6.637   4.242   2.810
 1404W        W 5468   0.019   7.071   9.766
 1405W        W 5469   1.292   3.545  10.604
 1406W        W 5470   2.622   5.530   1.720
 1407W        W 5471   0.680   9.845  10.321
 1408W        W 5472   3.097   9.701   2.274
 1409W        W 5473   1.708   8.021   8.839
 1410W        W 5474   8.557   9.487  11.333
 1411W        W 5475   5.905   3.085  10.619
 1412W        W 5476   7.009  10.444   9.193
 1413W        W 5477   0.679   2.261  10.016
 1414W        W 5478   5.966   7.313   3.078
 1415W        W 5479   5.471   6.089  10.292
 1416W        W 5480   5.459   9.406  11.461
 1417W        W 5481   4.212   4.504   3.211
 1418W        W 5482   7.223   5.166   2.410
 1419W        W 5483   3.416   7.016   2.831
 1420W        W 5484   1.894   5.865   3.868
 1421W        W 5485   8.779   6.876  10.261
 1422W        W 5486   1.265   7.630  10.042
 1423W        W 5487   3.978   8.764  10.280
 1424W        W 5488   5.072  10.064   1.369
 1425W        W 5489   6.899   5.605   8.722
 1426W        W 5490   2.896  10.380   9.656
 1427W        W 5491   6.763   2.959  10.812
 1428W        W 5492   2.978  10.318   9.159
 1429W        W 5493   8.096   2.911   9.943
 1430W        W 5494   0.946   5.657   3.386
 1431W        W 5495   3.425   9.762   9.377
 1432W        W 5496   1.624   1.716   8.570
 1433W        W 5497   9.916   4.649   9.611
 1434W        W 5498   1.184   3.453   0.740
 1435W        W 5499   9.745   5.294   3.411
 1436W        W 5500   7.859   2.446  11.405
 1437W        W 5501   7.097   5.784   9.592
 1438W        W 5502   4.196   5.280   1.974
 1439W        W 5503   5.965   4.792  10.648
 1440W        W 5504   8.493   2.873   0.932
 1441W        W 5505   0.938   6.558   3.260
 1442W        W 5506   9.512   1.350  10.253
 1443W        W 5507   3.379   4.343   0.288
 1444W        W 5508   9.365   4.981   2.417
 1445W        W 5509   9.310   3.278  11.445
 1446W        W 5510   9.506   4.696  10.287
 1447W        W 5511   2.851   8.387   2.238
 1448W        W 5512   0.408   5.879   1.521
 1449W        W 5513   8.516   8.193   3.649
 1450W        W 5514   5.344   1.834   3.512
 1451W        W 5515   7.637   5.808   9.621
 1452W        W 5516   3.532   7.998  10.909
 1453W        W 5517   3.166   6.236   2.384
 1454W        W 5518   1.382   0.938  10.377
 1455W        W 5519   5.164   5.189  11.056
 1456W        W 5520   5.706   4.384  11.959
 1457W        W 5521   6.973   6.466   8.954
 1458W        W 5522   7.020   2.811  10.372
 1459W        W 5523   7.944   8.606   1.629
 1460W        W 5524   9.778   9.793  11.916
 1461W        W 5525   1.731   1.155  11.690
 1462W        W 5526  10.364   4.498   0.689
 1463W        W 5527   5.650   4.230   0.478
 1464W        W 5528   9.739   3.018   3.508
 1465W        W 5529   6.033   1.273   1.209
 1466W        W 5530   0.252   0.966   2.269
 1467W        W 5531   3.625   0.730  10.215
 1468W        W 5532   4.422  10.489   1.527
 1469W        W 5533   8.835   3.290   3.254
 1470W        W 5534   4.247   0.829   9.439
 1471W        W 5535   6.471   2.485   0.399
 1472W        W 5536   6.570   0.312  10.929
 1473W        W 5537   2.718  10.316  11.144
 1474W        W 5538   5.303   9.772   1.731
 1475W        W 5539   3.271   1.370   1.181
 1476W        W 5540   2.271   0.045  11.044
 1477W        W 5541   1.376   5.742   1.470
 1478W        W 5542   7.949   0.295  11.549
 1479W        W 5543   9.081   3.741   0.171
 1480W        W 5544   1.746   1.187   9.278
 1481W        W 5545   7.131   1.289   1.219
 1482W        W 5546   9.800   3.305   1.291
 1483W        W 5547   3.593   5.110   3.085
 1484W        W 5548   8.525   5.212   1.253
 1485W        W 5549   8.352   3.644   9.418
 1486W        W 5550   2.676   8.165  10.354
 1487W        W 5551   3.615   7.486   0.690
 1488W        W 5552   5.990   5.095   9.327
 1489W        W 5553   8.344   9.255   0.239
 1490W        W 5554   7.059   9.417   1.451
 1491W        W 5555   6.185   7.500   9.309
 1492W        W 5556   8.115   4.012   0.817
 1493W        W 5557   8.167   9.911   9.423
 1494W        W 5558   0.825   0.578   1.009
 1495W        W 5559   7.318   5.084   0.663
 1496W        W 5560  10.456   1.341  11.378
 1497W        W 5561   3.821   9.294  10.361
 1498W        W 5562   2.756   7.405   2.314
 1499W        W 5563   8.978   3.166   0.929
 1500W        W 5564   4.027   7.452  11.983
 1501W        W 5565   6.732   7.743  11.036
 1502W        W 5566   9.518   4.070   3.414
 1503W        W 5567   1.635   5.168   3.200
 1504W        W 5568   4.696   9.978   9.839
 1505W        W 5569   0.931   8.189   0.395
 1506W        W 5570   9.936   3.633   1.682
 1507W        W 5571   8.815   6.119  11.368
 1508W        W 5572   5.213   7.996   3.200
 1509W        W 5573   1.269   2.108  11.398
 1510W        W 5574   6.500   6.540   2.701
 1511W        W 5575   0.651   5.663   9.073
 1512W        W 5576   1.787   4.402   9.258
 1513W        W 5577   8.543   4.717   0.990
 1514W        W 5578   0.913   9.015  10.855
 1515W        W 5579   6.232   7.954   8.538
 1516W        W 5580   6.012   9.027   1.714
 1517W        W 5581   8.159   4.998   9.549
 1518W        W 5582   2.735   4.262   8.867
 1519W        W 5583   9.481   9.392  10.642
 1520W        W 5584   3.735   7.665   3.254
 1521W        W 5585   0.832   6.005  11.364
 1522W        W 5586   9.963   2.433   1.143
 1523W        W 5587   8.596   1.456   1.075
 1524W        W 5588   3.260   2.916   0.496
 1525W        W 5589   4.033   4.983   3.313
 1526W        W 5590   0.198   7.840   8.837
 1527W        W 5591   3.778   0.901   2.239
 1528W        W 5592  10.260   0.825  11.432
 1529W        W 5593  10.232   0.952   2.259
 1530W        W 5594   3.403   4.243   2.197
 1531W        W 5595   0.808   7.385   9.445
 1532W        W 5596   5.743   6.337  11.635
 1533W        W 5597   1.943   1.555   0.217
 1534W        W 5598   2.822   1.024   3.016
 1535W        W 5599   1.940   2.198   1.441
 1536W        W 5600   2.579   7.972   9.444
 1537W        W 5601   4.196   2.759   9.911
 1538W        W 5602   6.972   7.913   1.041
 1539W        W 5603   6.861  10.035   8.917
 1540W        W 5604   3.202   6.670   1.046
 1541W        W 5605   4.265   7.494   2.063
 1542W        W 5606   5.995   5.752   2.200
 1543W        W 5607   8.818   7.416  11.488
 1544W        W 5608   3.334   0.430   0.667
 1545W        W 5609  10.215   0.455  11.799
 1546W        W 5610   2.441  10.415  10.033
 1547W        W 5611   7.740   6.528   3.298
 1548W        W 5612   9.035   9.847   1.455
 1549W        W 5613   5.136   9.579  10.769
 1550W        W 5614   7.888   5.726  11.220
 1551W        W 5615  10.300   1.715   1.664
 1552W        W 5616   1.750   3.553   0.857
 1553W        W 5617   4.956   5.077   3.400
 1554W        W 5618   3.778   3.643   2.624
 1555W        W 5619   4.181   4.200   0.905
 1556W        W 5620   3.669   0.297  10.543
 1557W        W 5621   6.688   0.658   3.236
 1558W        W 5622   0.761   4.769   0.314
 1559W        W 5623   6.814   2.676   3.270
 1560W        W 5624   0.948   1.751   9.392
 1561W        W 5625   7.649   9.005   8.552
 1562W        W 5626   8.176   3.187   9.266
 1563W        W 5627   5.469   8.001  10.817
 1564W        W 5628   3.586   3.660  10.887
 1565W        W 5629   5.051   7.837   9.908
 1566W        W 5630   3.263   6.199   0.826
 1567W        W 5631   1.125   9.443   2.266
 1568W        W 5632   2.567   8.062   2.715
 1569W        W 5633   5.112  10.410   9.268
 1570W        W 5634   8.333   4.388   2.814
 1571W        W 5635   9.982   4.154   1.477
 1572W        W 5636   2.138   2.736   2.575
 1573W        W 5637   9.236   0.302  11.508
 1574W        W 5638   9.860   7.954  10.625
 1575W        W 5639   5.190   7.550   8.297
 1576W        W 5640   1.618   9.872   9.952
 1577W        W 5641   1.231   5.674   9.553
 1578W        W 5642   6.546   5.993  11.499
 1579W        W 5643   4.505   4.482   0.570
 1580W        W 5644   1.225   4.741   9.373
 1581W        W 5645   8.642   6.260   1.249
 1582W        W 5646   3.587   9.939   1.396
 1583W        W 5647  10.493   2.819  11.135
 1584W        W 5648   6.133   4.667   2.931
 1585W        W 5649  10.386   9.488   1.091
 1586W        W 5650   9.839   9.288  11.933
 1587W        W 5651   4.966   3.715   8.524
 1588W        W 5652   2.685   0.669   9.466
 1589W        W 5653   7.947   5.415  10.772
 1590W        W 5654   5.143   2.349   0.782
 1591W        W 5655   8.290   7.822   2.398
 1592W        W 5656   1.907   2.357  11.149
 1593W        W 5657   3.211   3.779   2.386
 1594W        W 5658   7.045   8.538   2.739
 1595W        W 5659   7.487   3.313   2.712
 1596W        W 5660   1.350   4.664   3.421
 1597W        W 5661   3.140   1.961   2.970
 1598W        W 5662   8.294  10.329   1.813
 1599W        W 5663   2.390   2.460   1.422
 1600W        W 5664   3.466   6.912   1.962
 1601W        W 5665   7.649   0.014   2.540
 1602W        W 5666   1.364   6.964   9.031
 1603W        W 5667   7.162  10.366   2.690
 1604W        W 5668   6.557   2.229   2.335
 1605W        W 5669   1.842   9.128   2.292
 1606W        W 5670   3.677   7.228  10.060
 1607W        W 5671   2.837   2.611   1.899
 1608W        W 5672   4.903   0.256   2.581
 1609W        W 5673   7.722   1.890   3.207
 1610W        W 5674   2.947   3.602   1.096
 1611W        W 5675   3.561   2.617   0.198
 1612W        W 5676   6.746   0.143   1.574
 1613W        W 5677   8.413   4.593   1.983
 1614W        W 5678   7.971   6.033   3.126
 1615W        W 5679   1.050   9.962   9.247
 1616W        W 5680   8.580   9.250  10.404
 1617W        W 5681   8.093   0.533   9.693
 1618W        W 5682   0.218  10.385   1.589
 1619W        W 5683   8.395   0.730   9.072
 1620W        W 5684   4.754   6.449   9.432
 1621W        W 5685   3.207   9.117  11.983
 1622W        W 5686  10.049   9.937   9.579
 1623W        W 5687  10.090   4.737  10.947
 1624W        W 5688   2.164   1.669  11.716
 1625W        W 5689   1.075   0.786  11.166
 1626W        W 5690   8.866   7.994   0.152
 1627W        W 5691   3.898   5.136   0.806
 1628W        W 5692   5.561   5.868   1.008
 1629W        W 5693  10.280   8.854   9.745
 1630W        W 5694   0.262   7.949   9.341
 1631W        W 5695   6.226   6.478   3.158
 1632W        W 5696   3.203   6.082   3.589
 1633W        W 5697   9.519   2.952   9.560
 1634W        W 5698   6.453   1.856   0.478
 1635W        W 5699   0.857   1.257   2.854
 1636W        W 5700   1.702   1.504   2.357
 1637W        W 5701   5.294   7.541   9.304
 1638W        W 5702   8.817   9.957  10.720
 1639W        W 5703   8.238   7.862   0.289
 1640W        W 5704   1.404   1.975   9.512
 1641W        W 5705   4.185   9.948   9.996
 1642W        W 5706   4.934   6.492   1.454
 1643W        W 5707   2.019   8.006   0.935
 1644W        W 5708   1.304   0.752   9.035
 1645W        W 5709   6.956   0.397  10.017
 1646W        W 5710   7.228   1.868   3.334
 1647W        W 5711   3.644   1.745   0.209
 1648W        W 5712   3.309   3.657   2.882
 1649W        W 5713   2.115   3.845   0.168
 1650W        W 5714   9.458   3.277   9.980
 1651W        W 5715   8.284   6.287  10.798
 1652W        W 5716   6.639   4.985   0.434
 1653W        W 5717   1.092   5.161  11.409
 1654W        W 5718   0.465   1.317  10.019
 1655W        W 5719   9.839   7.628   2.664
 1656W        W 5720  10.400   6.938   2.373
 1657W        W 5721   4.230   5.144  11.011
 1658W        W 5722   3.102   8.213  11.824
 1659W        W 5723   1.032  10.004   0.174
 1660W        W 5724   9.617   6.233   9.959
 1661W        W 5725   8.696   6.025   2.242
 1662W        W 5726   7.521   2.387   3.226
 1663W        W 5727   4.100   0.330   2.286
 1664W        W 5728   1.933   1.717  10.653
 1665W        W 5729   1.741   4.056  11.813
 1666W        W 5730   0.504   2.703  10.197
 1667W        W 5731   6.913   2.584   9.284
 1668W        W 5732   6.964   5.866   0.870
 1669W        W 5733   6.216   0.913  11.935
 1670W        W 5734   2.964   5.612   2.955
 1671W        W 5735  10.344   3.704   1.970
 1672W        W 5736   9.191   3.759  11.341
 1673W        W 5737   6.230   4.064   3.090
 1674W        W 5738   6.280  10.104   0.873
 1675W        W 5739   0.694   0.858   1.411
 1676W        W 5740   8.754   4.636   0.294
 1677W        W 5741   4.579   4.774  11.223
 1678W        W 5742   1.427   1.865  10.488
 1679W        W 5743   5.808   9.860   1.753
 1680W        W 5744   5.138   8.504  11.630
 1681W        W 5745   4.053   7.516   0.977
 1682W        W 5746   4.701   5.525   3.018
 1683W        W 5747   4.559   0.322   2.083
 1684W        W 5748   9.466   1.169   8.998
 1685W        W 5749  10.209   1.856  11.063
 1686W        W 5750   6.662   7.650   8.560
 1687W        W 5751   7.921   6.037   2.623
 1688W        W 5752   5.010   3.346   8.961
 1689W        W 5753   3.669   6.350  11.774
 1690W        W 5754   7.891   5.934  10.726
 1691W        W 5755   3.842   5.958   2.676
 1692W        W 5756   4.218   5.178  11.549
 1693W        W 5757   6.605   5.715   3.337
 1694W        W 5758   2.989   4.713   8.921
 1695W        W 5759   2.655   3.776   2.652
 1696W        W 5760   0.823   2.819   3.261
 1697W        W 5761   6.000   9.160   0.196
 1698W        W 5762   5.531   8.928   1.974
 1699W        W 5763   7.024   6.088  11.328
 1700W        W 5764   1.352   9.132  11.759
 1701W        W 5765   3.418   7.984   2.921
 1702W        W 5766   2.618   4.095   9.358
 1703W        W 5767   5.022   3.625   3.764
 1704W        W 5768   7.077   2.834  11.835
 1705W        W 5769   8.164   4.160   1.322
 1706W        W 5770   5.164   3.287  11.237
 1707W        W 5771   5.662   1.869   1.408
 1708W        W 5772   4.039   3.219   1.882
 1709W        W 5773   7.394   0.789   2.131
 1710W        W 5774   7.024   1.442  11.724
 1711W        W 5775   7.995   3.998   2.885
 1712W        W 5776   5.242   1.685   0.513
 1713W        W 5777   9.376   0.813   3.579
 1714W        W 5778   8.375   8.840   1.392
 1715W        W 5779  10.122   7.122  10.087
 1716W        W 5780   0.404   2.264  10.465
 1717W        W 5781   4.060   1.970   3.297
 1718W        W 5782   3.046   1.690   1.972
 1719W        W 5783   8.396   5.970  10.411
 1720W        W 5784   2.203   0.928   9.458
 1721W        W 5785   0.428   3.884  11.894
 1722W        W 5786  10.050   1.771   2.364
 1723W        W 5787   4.205   9.621  10.398
 1724W        W 5788   5.252   6.619   9.466
 1725W        W 5789   9.139   1.304   3.557
 1726W        W 5790   5.394   5.564   1.382
 1727W        W 5791   7.443   6.224   9.373
 1728W        W 5792   5.201   4.798   0.859
 1729W        W 5793   1.706   9.452  11.945
 1730W        W 5794   2.841   8.832   0.210
 1731W        W 5795   0.268   5.032   3.148
 1732W        W 5796   8.909   4.585   1.697
 1733W        W 5797   4.750  10.340   2.963
 1734W        W 5798   5.701   4.520  11.181
 1735W        W 5799   7.731  10.428  10.436
 1736W        W 5800   8.168   6.779  11.545
 1737W        W 5801   0.470   7.234   0.048
 1738W        W 5802   7.437   4.812   9.490
 1739W        W 5803   5.958   7.879  10.098
 1740W        W 5804   0.124   7.507  10.497
 1741W        W 5805   7.970   9.240   9.593
 1742W        W 5806   6.298   7.026  10.052
 1743W        W 5807   8.599   5.146   0.375
 1744W        W 5808   9.408   4.689   0.512
 1745W        W 5809   5.515   4.804   2.327
 1746W        W 5810   5.580   3.626  11.247
 1747W        W 5811   8.006   8.815   9.924
 1748W        W 5812   9.463   0.353   0.420
 1749W        W 5813   8.992   7.195   9.404
 1750W        W 5814   8.892   8.048   9.624
 1751W        W 5815   7.640   5.593  10.416
 1752W        W 5816   5.053   1.263   2.839
 1753W        W 5817   2.203   0.763   0.287
 1754W        W 5818   3.618   3.529   9.819
 1755W        W 5819  10.348   6.053   1.984
 1756W        W 5820   4.256   3.685   0.973
 1757W        W 5821   9.348   7.431   9.083
 1758W        W 5822   2.178   3.790   1.605
 1759W        W 5823   9.038   6.227  11.828
 1760W        W 5824   4.734   1.294   3.321
 1761W        W 5825   0.002   1.849   2.143
 1762W        W 5826   9.734   5.123  10.480
 1763W        W 5827   1.489   1.705   9.988
 1764W        W 5828   1.089   3.278   3.333
 1765W        W 5829   4.686   9.826   0.314
 1766W        W 5830  10.002   8.477   1.445
 1767W        W 5831   2.189   5.039  10.720
 1768W        W 5832   9.581   2.192   8.902
 1769W        W 5833   4.781   7.642  10.744
 1770W        W 5834   8.206   5.374  11.417
 1771W        W 5835   6.925   0.374   2.859
 1772W        W 5836   7.078   9.843   1.186
 1773W        W 5837   2.952   8.362  11.350
 1774W        W 5838   3.305   1.048   3.333
 1775W        W 5839   6.530   5.697   9.087
 1776W        W 5840   7.876   4.527   9.564
 1777W        W 5841   4.277   4.052   0.401
 1778W        W 5842   9.602   0.328   1.733
 1779W        W 5843   9.631   7.941   3.088
 1780W        W 5844   2.217   6.422   2.046
 1781W        W 5845   9.994   6.848  10.515
 1782W        W 5846   2.657   0.782   1.692
 1783W        W 5847   8.374   2.355   9.264
 1784W        W 5848  10.118   7.464  11.809
 1785W        W 5849   7.540   4.394   9.191
 1786W        W 5850   0.469   3.667   3.206
 1787W        W 5851   7.932   7.401   8.722
 1788W        W 5852   1.057   8.357   0.944
 1789W        W 5853   0.858   1.602   2.467
 1790W        W 5854   0.400   1.393   0.721
 1791W        W 5855   9.377   0.774   1.385
 1792W        W 5856   0.486   4.798  11.876
 1793W        W 5857   6.149   2.734   9.983
 1794W        W 5858   6.637   0.868   9.132
 1795W        W 5859   7.222   8.318   9.560
 1796W        W 5860   4.568   9.499  10.051
 1797W        W 5861   7.062   3.670   8.742
 1798W        W 5862   0.846   7.054   0.345
 1799W        W 5863   6.433   8.709   3.423
 1800W        W 5864   8.045  10.406   3.290
 1801W        W 5865   8.319   3.734  11.027
 1802W        W 5866  10.128   6.594   2.770
 1803W        W 5867   7.394   5.723  11.392
 1804W        W 5868   5.995   5.624  10.839
 1805W        W 5869   1.650   7.347   9.892
 1806W        W 5870   3.856   2.707   1.748
 1807W        W 5871   2.131   0.089   1.389
 1808W        W 5872   8.378   7.455   2.066
 1809W        W 5873   4.199   4.968   2.356
 1810W        W 5874   8.860   2.098  10.359
 1811W        W 5875   4.696   5.496   0.702
 1812W        W 5876   4.673   7.895   0.427
 1813W        W 5877   7.439   2.722  11.478
 1814W        W 5878   9.132   7.077  11.726
 1815W        W 5879  10.448   6.983   2.918
 1816W        W 5880   6.500   4.899   9.504
 1817W        W 5881   6.044   5.251  10.418
 1818W        W 5882   1.617   9.639  10.456
 1819W        W 5883   0.207   9.006  10.377
 1820W        W 5884   9.943   9.454   9.788
 1821W        W 5885   2.866   4.725  11.165
 1822W        W 5886   5.411   4.093  11.159
 1823W        W 5887  10.404   0.205   3.448
 1824W        W 5888   3.702   2.836   2.800
 1825W        W 5889   2.373   3.627  11.147
 1826W        W 5890   4.164   7.056   1.231
 1827W        W 5891   7.017   5.436   1.838
 1828W        W 5892   5.937   9.440   9.151
 1829W        W 5893   1.172   6.507   9.158
 1830W        W 5894   4.656   4.047   0.782
 1831W        W 5895  10.225   8.812  11.241
 1832W        W 5896   1.193   1.836   2.134
 1833W        W 5897  10.010   0.959   9.813
 1834W        W 5898   7.104   0.862   2.973
 1835W        W 5899   0.200   0.794   1.386
 1836W        W 5900   2.908   5.786   9.852
 1837W        W 5901   8.116   7.711   1.717
 1838W        W 5902   2.194   9.817   2.961
 1839W        W 5903   0.284   2.591  11.524
 1840W        W 5904   2.972   5.235  11.326
 1841W        W 5905   0.263   5.233  11.686
 1842W        W 5906   2.771   3.187   1.342
 1843W        W 5907   6.740   6.519   3.208
 1844W        W 5908   7.866   5.788   0.934
 1845W        W 5909   7.549   4.659  11.280
 1846W        W 5910   0.253   0.923  11.463
 1847W        W 5911   1.495   1.828   3.654
 1848W        W 5912   8.546   6.372   9.410
 1849W        W 5913   5.147   4.261   0.670
 1850W        W 5914   5.738  10.448   2.882
 1851W        W 5915   5.677   2.881   1.433
 1852W        W 5916   0.214  10.059  11.857
 1853W        W 5917   2.729   2.330   0.780
 1854W        W 5918   4.492   0.272  10.907
 1855W        W 5919   3.409   9.479   2.941
 1856W        W 5920   9.985   9.373  10.294
 1857W        W 5921   9.037   9.368   9.988
 1858W        W 5922   3.629   4.523  11.399
 1859W        W 5923   1.831   1.220   1.914
 1860W        W 5924   6.731   5.102   8.353
 1861W        W 5925   8.552   9.515   9.970
 1862W        W 5926   9.421   1.461   0.234
 1863W        W 5927   6.090   5.442   0.807
 1864W        W 5928   9.199   0.467   2.642
 1865W        W 5929   2.917   5.500  10.838
 1866W        W 5930   4.136   3.607  10.863
 1867W        W 5931   1.456  10.379   2.381
 1868W        W 5932   4.989   2.718  10.558
 1869W        W 5933   4.066   1.268   9.635
 1870W        W 5934   1.791   4.779  11.104
 1871W        W 5935   9.363  10.178   2.257
 1872W        W 5936   3.252   7.540   1.035
 1873W        W 5937   5.630   0.749  10.232
 1874W        W 5938   3.283   2.728   9.802
 1875W        W 5939   3.159   9.173   8.527
 1876W        W 5940   9.948   0.221  10.798
 1877W        W 5941   5.599   5.506   0.640
 1878W        W 5942   2.285   6.895  10.447
 1879W        W 5943   5.798   4.006  10.344
 1880W        W 5944   8.586  10.278  11.690
 1881W        W 5945   3.746   5.051  10.107
 1882W        W 5946   1.928   3.363   0.365
 1883W        W 5947   6.482   3.852   0.502
 1884W        W 5948   8.904   0.183  11.898
 1885W        W 5949   6.463   6.324   9.204
 1886W        W 5950   8.293   4.708   0.507
 1887W        W 5951   6.142   2.302   3.127
 1888W        W 5952   4.531   6.648  11.667
 1889W        W 5953   9.167   1.927   0.002
 1890W        W 5954   1.480   0.757  10.831
 1891W        W 5955   1.616   8.866   8.411
 1892W        W 5956   3.811   5.202   1.654
 1893W        W 5957   2.510   6.244   2.983
 1894W        W 5958  10.228   0.328   8.913
 1895W        W 5959  10.007   2.762  11.000
 1896W        W 5960   6.194   7.486   8.792
 1897W        W 5961   5.503   4.292   9.878
 1898W        W 5962   8.792   8.907  10.085
 1899W        W 5963   8.388   2.695  10.568
 1900W        W 5964   5.451   9.183   1.283
 1901W        W 5965   3.296   2.620  10.860
 1902W        W 5966   9.206   0.972   9.408
 1903W        W 5967   7.393   3.357   8.479
 1904W        W 5968   6.136   7.009   0.977
 1905W        W 5969   5.695   0.238  10.411
 1906W        W 5970   9.714   8.437   9.952
 1907W        W 5971   0.431   7.022   9.460
 1908W        W 5972   2.588   3.347   0.829
 1909W        W 5973   0.727   6.509   9.531
 1910W        W 5974   1.681   8.182   2.303
 1911W        W 5975   7.930   2.883  10.429
 1912W        W 5976   4.688   0.821   9.710
 1913W        W 5977   9.848   1.332   8.688
 1914W        W 5978   5.724   2.958  10.165
 1915W        W 5979   4.284   9.003   9.956
 1916W        W 5980   5.509   8.361   0.203
 1917W        W 5981   1.461   0.461   0.660
 1918W        W 5982   4.157   9.749   1.298
 1919W        W 5983   2.034   5.527  10.517
 1920W        W 5984   7.938   7.517   9.710
 1921W        W 5985   2.306   8.772  11.868
 1922W        W 5986   3.019   1.699   8.687
 1923W        W 5987   5.243   8.931   3.299
 1924W        W 5988   6.049   0.915   9.993
 1925W        W 5989   6.173   7.604   2.172
 1926W        W 5990   2.156   7.746   0.073
 1927W        W 5991   7.479   9.965   2.514
 1928W        W 5992   8.355   2.669   3.582
 1929W        W 5993  10.492   5.139   1.713
 1930W        W 5994   9.825   4.565   1.818
 1931W        W 5995   7.881   7.174  10.613
 1932W        W 5996   8.137   8.158   1.482
 1933W        W 5997   4.682   3.438  11.171
 1934W        W 5998   9.235   0.259   2.181
 1935W        W 5999   7.456   0.828  10.450
 1936W        W 6000   0.071   0.349   1.154
 1937W        W 6001   1.381   3.692  11.590
 1938W        W 6002   9.999   5.452   0.521
 1939W        W 6003  10.159   9.318   3.289
 1940W        W 6004   3.617   4.053  11.234
 1941W        W 6005   4.973   9.074   1.422
 1942W        W 6006   4.631   8.409  11.956
 1943W        W 6007   1.578   5.279  11.299
 1944W        W 6008   1.667   0.745   2.101
 1945W        W 6009   3.808   9.550   1.656
 1946W        W 6010   2.621   1.963   3.154
 1947W        W 6011   1.940   4.057   3.104
 1948W        W 6012   9.852   2.138   2.652
 1949W        W 6013   6.438   8.015   2.344
 1950W        W 6014   2.854   6.430  10.581
 1951W        W 6015   3.109   5.091   2.809
 1952W        W 6016   1.245   9.065  10.463
 1953W        W 6017   2.173   7.043   3.436
 1954W        W 6018   5.138   4.667   9.213
 1955W        W 6019   8.762   6.198   9.867
 1956W        W 6020   2.247   7.345   0.426
 1957W        W 6021   6.859   4.239   9.866
 1958W        W 6022   4.661   6.092  10.965
 1959W        W 6023   7.481   4.539   4.199
 1960W        W 6024   2.760   0.990  11.807
 1961W        W 6025   8.988   8.036  11.091
 1962W        W 6026   8.889   6.378   9.030
 1963W        W 6027   7.627   4.131  11.438
 1964W        W 6028   9.743   6.245   2.873
 1965W        W 6029   9.313   2.344  10.511
 1966W        W 6030   8.153   4.674   2.437
 1967W        W 6031   0.422   7.012   2.408
 1968W        W 6032  10.453   2.244  11.353
 1969W        W 6033   2.666   7.002   3.661
 1970W        W 6034   8.073   9.059   3.481
 1971W        W 6035   5.480   8.850   0.314
 1972W        W 6036   2.549   9.896  11.782
 1973W        W 6037   4.499   3.180   9.875
 1974W        W 6038   2.219  10.291   0.966
 1975W        W 6039   0.857   9.001  11.787
 1976W        W 6040   3.588  10.493   1.209
 1977W        W 6041   8.302   5.145   0.795
 1978W        W 6042   7.418   0.618   8.506
 1979W        W 6043   0.751   1.113   2.361
 1980W        W 6044   9.546   0.168   9.966
 1981W        W 6045   8.844   2.852   3.516
 1982W        W 6046   6.601   7.139  11.014
 1983W        W 6047   5.614   7.943   9.257
 1984W        W 6048   1.983   6.966   0.221
 1985W        W 6049   5.980   4.077   3.550
 1986W        W 6050   2.783  10.022   0.974
 1987W        W 6051   9.728   3.442   9.526
 1988W        W 6052   0.683   8.578   2.445
 1989W        W 6053   0.665   8.662   0.822
 1990W        W 6054   5.886   9.924   8.916
 1991W        W 6055   7.639   3.187  10.750
 1992W        W 6056   3.572   0.217   9.050
 1993W        W 6057   2.891   2.131  10.459
 1994W        W 6058   3.904   1.318   0.327
 1995W        W 6059   0.363   5.848  10.646
 1996W        W 6060   8.335   4.739  11.019
 1997W        W 6061   3.325   9.460  10.359
 1998W        W 6062   5.070   6.218   3.755
 1999W        W 6063   7.157   4.285  11.335
 2000W        W 6064   5.458   0.927   2.637
 2001W        W 6065   7.914   2.727   3.266
 2002W        W 6066   0.353   2.518   9.672
 2003W        W 6067  10.331   7.404   3.322
 2004W        W 6068   5.774   2.713   0.937
 2005W        W 6069   7.493   2.646  10.424
 2006W        W 6070   2.230   2.901   8.939
 2007W        W 6071   6.877   8.067   1.510
 2008W        W 6072   6.528   0.622   1.688
 2009W        W 6073  10.012   8.338   9.027
 2010W        W 6074   7.330   8.724   9.261
 2011W        W 6075   3.356   3.109   3.790
 2012W        W 6076   8.333   1.314   2.786
 2013W        W 6077   9.483   1.551   3.202
 2014W        W 6078   7.248   7.628   1.383
 2015W        W 6079   0.764   1.891   2.876
 2016W        W 6080   1.283   8.059   2.021
 2017W        W 6081   5.765   3.895   2.267
 2018W        W 6082   5.002   0.409   9.686
 2019W        W 6083  10.335   7.481   9.503
 2020W        W 6084   9.658  10.316   3.095
 2021W        W 6085   5.129   8.025   9.439
 2022W        W 6086   0.466   4.529  10.018
 2023W        W 6087   5.206   8.981  11.481
 2024W        W 6088   9.145   8.326  11.476
 2025W        W 6089   2.849   9.237   2.276
 2026W        W 6090   7.780   9.423   3.179
 2027W        W 6091  10.237   8.409  10.003
 2028W        W 6092   2.727   0.718   0.243
 2029W        W 6093   1.484   7.600   0.731
 2030W        W 6094   8.082   1.413  10.370
 2031W        W 6095   3.822   7.589  11.025
 2032W        W 6096   4.226   4.473   2.263
 2033W        W 6097   7.412   7.958   0.747
 2034W        W 6098   9.038   1.593  11.589
 2035W        W 6099   1.257   8.564   3.237
 2036W        W 6100   0.459   1.392  11.357
 2037W        W 6101   9.871   8.381  10.973
 2038W        W 6102   3.792   0.395   0.950
 2039W        W 6103   8.550   1.378   0.578
 2040W        W 6104   5.718   2.880   2.352
 2041W        W 6105   3.403   5.740   3.217
 2042W        W 6106   8.427   2.812   9.536
 2043W        W 6107   8.884   6.195   1.772
 2044W        W 6108   2.372   0.297   3.239
 2045W        W 6109   8.656   9.032   1.782
 2046W        W 6110   6.693   1.781   9.213
 2047W        W 6111   1.496   9.943   9.458
 2048W        W 6112   1.882   8.079  11.461
 2049W        W 6113   1.686   6.191   8.516
 2050W        W 6114   1.342   1.071   1.837
 2051W        W 6115  10.080   6.983  11.604
 2052W        W 6116   3.558   2.310   9.096
 2053W        W 6117   2.314   5.680   2.714
 2054W        W 6118   7.424   2.659   9.420
 2055W        W 6119   2.395   9.683  11.321
 2056W        W 6120   1.236   9.403  11.036
 2057W        W 6121  10.431   5.713  10.877
 2058W        W 6122   9.957   1.362  11.536
 2059W        W 6123   0.361   1.463   9.516
 2060W        W 6124  10.382   2.393   9.551
 2061W        W 6125   6.178   6.508   0.728
 2062W        W 6126   2.365   9.632  10.114
 2063W        W 6127   1.085   7.374  10.458
 2064W        W 6128   4.617   5.130   8.864
 2065W        W 6129   5.160   9.542   2.652
 2066W        W 6130   2.360   2.105   0.516
 2067W        W 6131   3.956   4.228   4.019
 2068W        W 6132   4.720   2.428   3.147
 2069W        W 6133   2.762   4.628   8.462
 2070W        W 6134   5.547   4.400   3.563
 2071W        W 6135   5.241   0.886  11.435
 2072W        W 6136   4.514   4.669   1.420
 2073W        W 6137   5.675   0.767   3.083
 2074W        W 6138   1.468   8.938   1.512
 2075W        W 6139   1.112   8.979  11.324
 2076W        W 6140   2.344   6.036   2.354
 2077W        W 6141   0.826   2.630   9.259
 2078W        W 6142   3.900   1.916  10.250
 2079W        W 6143   0.847   7.707   1.874
 2080W        W 6144   5.293   4.447  11.505
 2081W        W 6145   5.257  10.494  10.835
 2082W        W 6146   2.858   3.999   1.395
 2083W        W 6147   7.461   6.112  11.020
 2084W        W 6148   5.919   3.188   9.757
 2085W        W 6149   8.472   9.487   9.477
 2086W        W 6150   9.614  10.181  11.599
 2087W        W 6151   8.298   5.093  10.496
 2088W        W 6152   2.645   7.142   9.219
 2089W        W 6153   6.335   9.414   8.833
 2090W        W 6154   0.823   5.252   0.525
 2091W        W 6155  10.111   1.434   9.706
 2092W        W 6156   6.517   1.132   1.861
 2093W        W 6157   0.051   9.552   2.965
 2094W        W 6158   9.473   2.897  11.790
 2095W        W 6159   3.671   9.343  11.786
 2096W        W 6160   9.850   5.257   2.918
 2097W        W 6161   6.560   4.340   0.438
 2098W        W 6162   8.292  10.467  11.275
 2099W        W 6163   9.192   6.146   2.169
 2100W        W 6164   0.454   2.057   0.385
 2101W        W 6165   3.019   8.712  11.735
 2102W        W 6166   5.482   2.137   0.446
 2103W        W 6167   8.997   7.534  11.022
 2104W        W 6168   8.748   3.555  11.243
 2105W        W 6169   5.076   5.184   9.105
 2106W        W 6170   8.995   8.351  10.639
 2107W        W 6171   2.293   4.871   8.433
 2108W        W 6172   3.691   0.863   0.185
 2109W        W 6173   4.147   9.307   3.663
 2110W        W 6174   9.110   2.400   8.892
 2111W        W 6175   2.637   0.519   2.443
 2112W        W 6176   8.492   7.950  10.969
 2113W        W 6177   7.016   3.587   2.248
 2114W        W 6178   3.713  10.388   8.672
 2115W        W 6179   6.269   6.734  11.066
 2116W        W 6180   3.530   1.730   2.168
 2117W        W 6181   9.818   1.519  11.049
 2118W        W 6182   3.761   0.407   1.471
 2119W        W 6183  10.109  10.264   3.454
 2120W        W 6184   8.378   8.121   1.026
 2121W        W 6185   8.817   9.247  11.845
 2122W        W 6186   2.958   7.673   2.876
 2123W        W 6187   9.958   9.265  10.777
 2124W        W 6188   5.680   6.705   9.753
 2125W        W 6189   7.958   6.235  11.208
 2126W        W 6190   7.467   0.310   1.914
 2127W        W 6191   6.821   9.400  11.583
 2128W        W 6192   8.149   1.329   0.873
 2129W        W 6193   1.179   2.629  11.560
 2130W        W 6194   8.917   9.959   2.480
 2131W        W 6195   4.966   6.001  10.082
 2132W        W 6196   1.008   4.697   2.218
 2133W        W 6197   2.803   8.904  10.897
 2134W        W 6198   4.263   0.333   0.720
 2135W        W 6199  10.385   0.396  10.515
 2136W        W 6200   4.049   9.849   2.274
 2137W        W 6201   9.113   3.844  10.415
 2138W        W 6202   5.744   0.218   1.487
 2139W        W 6203   3.199   3.392   8.600
 2140W        W 6204   3.641   9.049   0.807
 2141W        W 6205   0.826   0.757   9.382
 2142W        W 6206   2.377   1.239   0.345
 2143W        W 6207   0.858   6.962   9.752
 2144W        W 6208   1.778   2.180   8.741
 2145W        W 6209   3.423   1.414  11.365
 2146W        W 6210   5.776   7.396   1.242
 2147W        W 6211   0.807   5.841   0.782
 2148W        W 6212   6.082   7.969   9.057
 2149W        W 6213   1.940  10.415  10.149
 2150W        W 6214   6.164   1.685   2.480
 2151W        W 6215   1.793   6.711   3.562
 2152W        W 6216   1.383   5.931  10.956
 2153W        W 6217   1.491   2.643   1.765
 2154W        W 6218   7.879   1.699   0.584
 2155W        W 6219   9.753   1.822   0.376
 2156W        W 6220   2.076   5.421   0.919
 2157W        W 6221   4.014   6.505   3.313
 2158W        W 6222   4.265   9.558   1.853
 2159W        W 6223   2.880   5.570  11.723
 2160W        W 6224   9.273   9.879   3.291
 2161W        W 6225   8.029   2.259   3.021
 2162W        W 6226   2.221   2.271   3.313
 2163W        W 6227   7.962  10.129   2.329
 2164W        W 6228   6.905  10.338  11.459
 2165W        W 6229   2.762   3.626   8.768
 2166W        W 6230   7.824   8.507  11.615
 2167W        W 6231   9.105  10.297  11.554
 2168W        W 6232   6.962   2.723   0.340
 2169W        W 6233   3.142   0.893   1.455
 2170W        W 6234   1.051   4.977   8.921
 2171W        W 6235   0.697  10.343   1.420
 2172W        W 6236   7.085   2.315   0.055
 2173W        W 6237   6.513   4.673   2.568
 2174W        W 6238   8.568   2.761  10.041
 2175W        W 6239   3.612   7.973  10.392
 2176W        W 6240   9.046   6.975   1.151
 2177W        W 6241   7.963   4.412   3.157
 2178W        W 6242   1.416   4.659  11.472
 2179W        W 6243   4.718   8.931  10.734
 2180W        W 6244   6.717   7.208  11.900
 2181W        W 6245   7.974   9.930   8.513
 2182W        W 6246   9.483   4.090   2.253
 2183W        W 6247   9.382   8.033  10.470
 2184W        W 6248   5.003   3.288  10.751
 2185W        W 6249   5.656   5.831  11.669
 2186W        W 6250   3.681   9.546   8.978
 2187W        W 6251   4.089  10.455   9.039
 2188W        W 6252   5.641   8.477   2.192
 2189W        W 6253   3.315   6.642  10.863
 2190W        W 6254   1.651   6.615   0.066
 2191W        W 6255   8.066   1.233  10.879
 2192W        W 6256   3.273   6.644  10.337
 2193W        W 6257   9.547   1.760   2.479
 2194W        W 6258   8.914   0.872   3.355
 2195W        W 6259   7.338   4.373  11.834
 2196W        W 6260   1.184   2.732  10.669
 2197W        W 6261   1.164   4.500   0.520
 2198W        W 6262   3.368   2.043   1.810
 2199W        W 6263   2.181   7.022  10.949
 2200W        W 6264   4.514   3.186   0.803
 2201W        W 6265   5.641   6.023   0.550
 2202W        W 6266   5.339   6.817   1.899
 2203W        W 6267   1.760   3.627   1.358
 2204W        W 6268   7.618   4.061   9.578
 2205W        W 6269   9.340   7.579   1.760
 2206W        W 6270   6.974   1.950  11.707
 2207W        W 6271   1.712   5.214  10.799
 2208W        W 6272   2.829   0.573   0.799
 2209W        W 6273   9.524   6.991   9.324
 2210W        W 6274   2.625   4.141   1.845
 2211W        W 6275   2.439   6.263  11.942
 2212W        W 6276   6.191   4.714   1.580
 2213W        W 6277   0.607   8.158   0.792
 2214W        W 6278   8.997   8.328   9.216
 2215W        W 6279   9.676   1.380   8.181
 2216W        W 6280   6.439   5.201   9.105
 2217W        W 6281   3.688   5.719  11.216
 2218W        W 6282   2.551   5.577  10.452
 2219W        W 6283   5.354   1.741  10.384
 2220W        W 6284   5.275   1.283   0.159
 2221W        W 6285   8.832   7.845   1.002
 2222W        W 6286   8.780   5.085  10.337
 2223W        W 6287   6.689   5.681   2.825
 2224W        W 6288   3.172   5.305   0.425
 2225W        W 6289   8.651   2.246   0.812
 2226W        W 6290   0.669   7.916  10.984
 2227W        W 6291   8.564   9.018   8.677
 2228W        W 6292   3.350   3.035   3.184
 2229W        W 6293   2.293   0.253   2.733
 2230W        W 6294   5.245   2.138   2.621
 2231W        W 6295   6.930   8.043   9.884
 2232W        W 6296   1.882   0.121   2.228
 2233W        W 6297   2.876   9.887  10.884
 2234W        W 6298   4.037   9.119  11.483
 2235W        W 6299   1.883   2.218   3.712
 2236W        W 6300   7.068   4.007   3.541
 2237W        W 6301   0.320   0.502   9.765
 2238W        W 6302   8.996   2.273   2.814
 2239W        W 6303   2.861   2.688   1.406
 2240W        W 6304   7.107   7.934   3.002
 2241W        W 6305   3.194   1.803   9.182
 2242W        W 6306   4.625   1.294   2.010
 2243W        W 6307   9.432   9.233   9.621
 2244W        W 6308   0.409   0.735   8.766
 2245W        W 6309  10.296   8.307  11.248
 2246W        W 6310   5.404   0.379   8.865
 2247W        W 6311   0.828  10.322  11.483
 2248W        W 6312   8.453   9.491   0.698
 2249W        W 6313   7.999   2.282   3.532
 2250W        W 6314   3.490   8.905  10.325
 2251W        W 6315   4.208   6.063   0.956
 2252W        W 6316   5.281  10.477   9.753
 2253W        W 6317   7.325   8.394   3.158
 2254W        W 6318   6.654   0.204   2.472
 2255W        W 6319   1.603   9.569   2.087
 2256W        W 6320   4.369   1.965  10.462
 2257W        W 6321   1.523   4.699   2.271
 2258W        W 6322   3.169   9.481   9.010
 2259W        W 6323   8.956   1.118  11.365
 2260W        W 6324   3.071   2.198  11.733
 2261W        W 6325   3.374   8.344   9.322
 2262W        W 6326   1.408   7.576   9.507
 2263W        W 6327   0.930   7.390  11.905
 2264W        W 6328   5.161   9.053   2.812
 2265W        W 6329   6.961   6.957   1.857
 2266W        W 6330   1.865   2.148  10.357
 2267W        W 6331   9.004   0.540   0.288
 2268W        W 6332   7.564   6.821   9.809
 2269W        W 6333   6.658   1.178   0.010
 2270W        W 6334   1.426   5.142  11.789
 2271W        W 6335   4.556   9.295  11.059
 2272W        W 6336   4.598   9.337   3.432
 2273W        W 6337   3.372   7.873  11.560
 2274W        W 6338   1.060  10.480  11.928
 2275W        W 6339   8.916   1.528   0.266
 2276W        W 6340   3.649   5.548   1.979
 2277W        W 6341   6.203   1.867  10.465
 2278W        W 6342   3.043   6.978   3.177
 2279W        W 6343   1.079   1.886   1.369
 2280W        W 6344   7.344   9.656  11.058
 2281W        W 6345   8.163   9.445   2.844
 2282W        W 6346   3.269   4.262   8.803
 2283W        W 6347   2.270   9.074  11.443
 2284W        W 6348   1.553   6.171   2.877
 2285W        W 6349   8.200   2.549  11.021
 2286W        W 6350   5.670   2.047  11.984
 2287W        W 6351   1.576   1.773   1.284
 2288W        W 6352   0.426   7.130  10.647
 2289W        W 6353   0.446   2.111  11.448
 2290W        W 6354   1.262   3.842   8.587
 2291W        W 6355   1.959   7.010   0.954
 2292W        W 6356   0.974   0.279   0.619
 2293W        W 6357   3.693   2.203   3.044
 2294W        W 6358   8.973   4.171   0.425
 2295W        W 6359   2.394   8.611   0.354
 2296W        W 6360   1.770   4.241  10.969
 2297W        W 6361   1.889   8.440   8.583
 2298W        W 6362   4.251   7.045   0.191
 2299W        W 6363   9.193   7.449   2.271
 2300W        W 6364   0.710   4.019   2.916
 2301W        W 6365   2.145   7.979   9.695
 2302W        W 6366   7.155   6.666   4.110
 2303W        W 6367   9.441   6.169   0.704
 2304W        W 6368   7.687   9.728   0.837
 2305W        W 6369   1.072   9.435   2.792
 2306W        W 6370   6.892   1.277   2.202
 2307W        W 6371   2.317   4.793   3.242
 2308W        W 6372   3.842   8.479   1.414
 2309W        W 6373   8.898   8.381   0.979
 2310W        W 6374   3.955   6.730   1.984
 2311W        W 6375   9.162   3.579   8.950
 2312W        W 6376   5.552   9.843   2.186
 2313W        W 6377   0.444   6.175  11.659
 2314W        W 6378   8.806   6.669   0.567
 2315W        W 6379   6.127   1.848  11.547
 2316W        W 6380  10.458   1.334   1.944
 2317W        W 6381   9.853   1.746  10.004
 2318W        W 6382   9.988   1.165   0.013
 2319W        W 6383   8.984   1.977   1.611
 2320W        W 6384   7.982   2.725   1.726
 2321W        W 6385   1.552   5.379   0.222
 2322W        W 6386   0.854   8.102  10.563
 2323W        W 6387   6.691   8.001   0.273
 2324W        W 6388   5.457   5.225   2.654
 2325W        W 6389   0.014   8.405   2.664
 2326W        W 6390   9.943   2.591   3.357
 2327W        W 6391   3.170   3.541   1.754
 2328W        W 6392   9.854   3.242  11.826
 2329W        W 6393   7.179   3.085   9.328
 2330W        W 6394   1.323   0.483   8.571
 2331W        W 6395   3.466   4.169  10.758
 2332W        W 6396   7.652   5.996   8.382
 2333W        W 6397   4.832   2.790   0.930
 2334W        W 6398   1.727   5.856   9.718
 2335W        W 6399   7.373   6.061   1.777
 2336W        W 6400   4.147   8.827   2.367
 2337W        W 6401   4.535   3.629  10.124
 2338W        W 6402   0.752   1.661   0.456
 2339W        W 6403   1.563   6.431   1.927
 2340W        W 6404   4.334   1.005  11.405
 2341W        W 6405   7.078   7.639  10.196
 2342W        W 6406   1.693   0.069   0.361
 2343W        W 6407   4.385   2.641  11.063
 2344W        W 6408   4.231   3.403  11.424
 2345W        W 6409   3.540   1.720   0.866
 2346W        W 6410   6.465   0.214   1.998
 2347W        W 6411   5.069   4.064   8.150
 2348W        W 6412   3.202   4.639  10.044
 2349W        W 6413   1.456   0.774  11.878
 2350W        W 6414   8.944   8.408  10.113
 2351W        W 6415   8.983   7.920   1.555
 2352W        W 6416   2.918   0.268   0.408
 2353W        W 6417   9.972   8.778  11.933
 2354W        W 6418   2.212   6.037  10.997
 2355W        W 6419   3.625   2.598   0.746
 2356W        W 6420  10.146   8.733  10.732
 2357W        W 6421   1.872   7.424  11.159
 2358W        W 6422   0.231   0.236   8.841
 2359W        W 6423   7.468   7.550  11.428
 2360W        W 6424   8.527   6.531  11.787
 2361W        W 6425   9.646   6.618   0.895
 2362W        W 6426   7.251   3.209   1.019
 2363W        W 6427   7.711   9.102   9.068
 2364W        W 6428   8.908   7.845  10.611
 2365W        W 6429   3.361   6.917   8.529
 2366W        W 6430   6.693   1.688  10.274
 2367W        W 6431   3.282   7.889   0.669
 2368W        W 6432   4.561   9.840   3.156
 2369W        W 6433   9.684  10.204   9.793
 2370W        W 6434   9.869   5.437  11.521
 2371W        W 6435   7.930  10.204   0.862
 2372W        W 6436   6.639   8.760   2.981
 2373W        W 6437   0.382   1.384   2.675
 2374W        W 6438   0.156   6.743  10.875
 2375W        W 6439   7.496   5.546   1.691
 2376W        W 6440   6.678   1.662   9.753
 2377W        W 6441   6.404   5.750   1.598
 2378W        W 6442   3.386   9.761  11.630
 2379W        W 6443   4.760   1.239  11.869
 2380W        W 6444   1.187   6.095   3.236
 2381W        W 6445   6.284   3.657   0.936
 2382W        W 6446   8.144   3.069  10.850
 2383W        W 6447   7.141   5.480   2.803
 2384W        W 6448   5.687  10.258   2.426
 2385W        W 6449   1.377   6.561  10.185
 2386W        W 6450   8.061   7.560  10.322
 2387W        W 6451   8.023   2.230   2.494
 2388W        W 6452   7.049   3.350  11.584
 2389W        W 6453   2.750   8.797  10.060
 2390W        W 6454  10.072   0.161   1.627
 2391W        W 6455   1.872   6.415   3.174
 2392W        W 6456   1.663   9.234  10.769
 2393W        W 6457   2.697   4.486   0.042
 2394W        W 6458   4.496   6.611   2.706
 2395W        W 6459   1.392   7.220   1.517
 2396W        W 6460   2.228   6.005  10.453
 2397W        W 6461   7.426   4.545   1.319
 2398W        W 6462   4.691   9.360   0.073
 2399W        W 6463   8.762   5.219   3.217
 2400W        W 6464   9.842   6.971   0.583
 2401W        W 6465   4.836   5.047   1.203
 2402W        W 6466   3.120   6.433   8.325
 2403W        W 6467   2.585   3.857  11.939
 2404W        W 6468   7.504   7.508   1.851
 2405W        W 6469   6.954   0.864   1.905
 2406W        W 6470   9.511   1.530   0.764
 2407W        W 6471   7.536   5.472   1.183
 2408W        W 6472   5.040   9.653   2.169
 2409W        W 6473   1.978   2.879   9.383
 2410W        W 6474   6.908   5.604  11.527
 2411W        W 6475   9.815   5.609   0.043
 2412W        W 6476   4.265   8.348   9.220
 2413W        W 6477   2.354   2.299   2.807
 2414W        W 6478   6.991   4.196   0.189
 2415W        W 6479   0.368   7.569   3.361
 2416W        W 6480   7.013   9.855  11.771
 2417W        W 6481   5.100   5.394  11.502
 2418W        W 6482   3.815   6.478   9.633
 2419W        W 6483   2.947   9.894   9.463
 2420W        W 6484   7.931   3.329  11.627
 2421W        W 6485   3.527   4.320   9.503
 2422W        W 6486   0.800   1.133   0.979
 2423W        W 6487   7.090   5.779   4.065
 2424W        W 6488   3.783   9.886   8.606
 2425W        W 6489   4.212   7.941   0.677
 2426W        W 6490   9.062   2.365   0.548
 2427W        W 6491   8.459   2.836   1.553
 2428W        W 6492   9.397   4.580   2.095
 2429W        W 6493   8.208   1.035   1.847
 2430W        W 6494   2.981   9.246   3.141
 2431W        W 6495   5.004   0.368   3.065
 2432W        W 6496   8.536   7.956   1.904
 2433W        W 6497   8.114   6.596   9.533
 2434W        W 6498   5.201   4.632  10.512
 2435W        W 6499   6.041  10.128   9.400
 2436W        W 6500   8.329   1.716   0.273
 2437W        W 6501   1.915   7.370   1.791
 2438W        W 6502   3.270   9.405   0.575
 2439W        W 6503   3.948   1.055   3.512
 2440W        W 6504   9.899   1.293   9.248
 2441W        W 6505   5.903   4.097  11.412
 2442W        W 6506   7.987   5.659   1.839
 2443W        W 6507   7.446   8.215   2.699
 2444W        W 6508  10.308   7.940   2.630
 2445W        W 6509  10.163   6.730   0.907
 2446W        W 6510   5.724  10.292  10.668
 2447W        W 6511   5.663   0.731  11.701
 2448W        W 6512   4.212  10.331  10.837
 2449W        W 6513   3.711   6.949   2.419
 2450W        W 6514   6.865   9.706   3.502
 2451W        W 6515   3.248   3.816  11.505
 2452W        W 6516   1.199   5.661  11.351
 2453W        W 6517   2.115   3.160   0.779
 2454W        W 6518  10.486   7.008  10.417
 2455W        W 6519   4.005   2.262   9.866
 2456W        W 6520   5.914   2.656   9.541
 2457W        W 6521   3.577   6.575  11.327
 2458W        W 6522   4.739   3.214   9.397
 2459W        W 6523   3.831   2.380   2.590
 2460W        W 6524   6.384   6.677   3.644
 2461W        W 6525   0.173   6.599   2.637
 2462W        W 6526   8.644   6.510   3.425
 2463W        W 6527   4.553   7.957   9.466
 2464W        W 6528   3.662   1.361  11.840
 2465W        W 6529   5.711   7.993   8.704
 2466W        W 6530   0.839   5.030   1.268
 2467W        W 6531   0.974   3.292  10.923
 2468W        W 6532   6.556   4.374   1.397
 2469W        W 6533   6.991   2.008  10.968
 2470W        W 6534   7.615   6.684  10.345
 2471W        W 6535   4.119   9.640   9.244
 2472W        W 6536   4.995   7.766   1.612
 2473W        W 6537   1.156   8.950   3.550
 2474W        W 6538   4.093   3.101   1.050
 2475W        W 6539   1.379   1.464   3.287
 2476W        W 6540   3.850   9.853   9.624
 2477W        W 6541   3.291   1.361   1.684
 2478W        W 6542   8.465  10.254   0.259
 2479W        W 6543   3.297   8.968   2.861
 2480W        W 6544   8.013   8.185   2.002
 2481W        W 6545   0.732   9.012  10.368
 2482W        W 6546   7.282   2.826   3.428
 2483W        W 6547   9.235  10.313   0.568
 2484W        W 6548   5.969   0.363   1.921
 2485W        W 6549   7.154   4.195   1.577
 2486W        W 6550   6.164   9.082   3.202
 2487W        W 6551   8.648   3.635   8.997
 2488W        W 6552  10.481   5.306   0.380
 2489W        W 6553   8.977   2.492   1.486
 2490W        W 6554   6.492   1.945   8.730
 2491W        W 6555   6.230   7.752   3.136
 2492W        W 6556  10.002   9.221   0.847
 2493W        W 6557  10.458   8.000  10.249
 2494W        W 6558   7.978   7.312   0.785
 2495W        W 6559   3.329  10.006   8.925
 2496W        W 6560   5.974   9.118   9.542
 2497W        W 6561   8.836   0.431   3.024
 2498W        W 6562   4.417   7.052   8.443
 2499W        W 6563   1.155   8.517   2.287
 2500W        W 6564   8.633   7.023  11.761
 2501W        W 6565   5.242   8.694   1.165
 2502W        W 6566   3.746   3.858   3.100
 2503W        W 6567   6.038   1.218   1.717
 2504W        W 6568  10.392   5.758   3.272
 2505W        W 6569   3.294   0.233   2.126
 2506W        W 6570  10.415   5.753   0.686
 2507W        W 6571   9.342   2.686   3.322
 2508W        W 6572  10.077   3.039   0.362
 2509W        W 6573   1.697   7.043   3.195
 2510W        W 6574   3.632   6.747   0.704
 2511W        W 6575   8.171   7.072   9.694
 2512W        W 6576   4.214   7.022   2.348
 2513W        W 6577   5.611   8.936   9.198
 2514W        W 6578   9.312   3.308   1.409
 2515W        W 6579   8.802   7.129   2.194
 2516W        W 6580   3.529   7.523   0.025
 2517W        W 6581   2.782   6.453   1.363
 2518W        W 6582   3.072   3.135   0.915
 2519W        W 6583   8.596   3.311   0.623
 2520W        W 6584   7.475   1.357   9.204
 2521W        W 6585   0.481   9.423  10.579
 2522W        W 6586   7.353   6.737   1.532
 2523W        W 6587   5.182   3.895   4.205
 2524W        W 6588   1.252   9.446   1.747
 2525W        W 6589   8.029   3.808   9.804
 2526W        W 6590   8.168   7.117   9.148
 2527W        W 6591   1.254   0.474   9.467
 2528W        W 6592   5.590   3.180   1.011
 2529W        W 6593   1.703   2.197   0.956
 2530W        W 6594   8.533   0.190   3.439
 2531W        W 6595   2.852   8.351   1.221
 2532W        W 6596   5.470   9.897   8.581
 2533W        W 6597   0.773   6.115  10.373
 2534W        W 6598   6.650   0.173   3.375
 2535W        W 6599   2.290   6.270   1.284
 2536W        W 6600   8.484   2.204   3.308
 2537W        W 6601   2.270   0.444  10.733
 2538W        W 6602   3.128   2.797   2.809
 2539W        W 6603   0.362   0.185   2.016
 2540W        W 6604   7.555   7.658  10.007
 2541W        W 6605   7.014   8.368   9.097
 2542W        W 6606   7.239   9.335   3.401
 2543W        W 6607   2.379   0.807  10.395
 2544W        W 6608   4.701   8.371   1.914
 2545W        W 6609   5.541   8.129  11.751
 2546W        W 6610   0.189   3.615  11.510
 2547W        W 6611   8.864   9.114  11.100
 2548W        W 6612  10.391   6.505  10.517
 2549W        W 6613   0.221   2.853   8.836
 2550W        W 6614   0.054   1.649   9.887
 2551W        W 6615   1.419  10.044  11.221
 2552W        W 6616   4.467   5.182   1.537
 2553W        W 6617   6.128   2.544   2.167
 2554W        W 6618   3.254   0.903  11.924
 2555W        W 6619   2.141   6.631   9.850
 2556W        W 6620   8.081   4.096   1.817
 2557W        W 6621   7.938   8.140   2.548
 2558W        W 6622   7.038   8.577  10.518
 2559W        W 6623   7.610   2.306   1.698
 2560W        W 6624   9.294   4.049   2.733
 2561W        W 6625   9.979   4.228   0.957
 2562W        W 6626   7.461   9.448   0.433
 2563W        W 6627   9.057   0.776   0.801
 2564W        W 6628   3.075   5.624  10.351
 2565W        W 6629   6.429   5.409   8.644
 2566W        W 6630   5.677   3.024  11.946
 2567W        W 6631   4.274   0.805   1.415
 2568W        W 6632   2.759   9.281  11.277
 2569W        W 6633   3.616   2.722  11.261
 2570W        W 6634   7.187   9.363   0.926
 2571W        W 6635   5.686   1.865   9.983
 2572W        W 6636   3.674   2.132   0.542
 2573W        W 6637  10.496   5.196   9.068
 2574W        W 6638   4.654   9.839  11.271
 2575W        W 6639  10.114   4.972   1.979
 2576W        W 6640   7.460   9.342   1.772
 2577W        W 6641   4.286   7.593  10.796
 2578W        W 6642   3.174   4.593  11.901
 2579W        W 6643  10.219   4.966  10.508
 2580W        W 6644   5.602   5.521  11.225
 2581W        W 6645   0.481   4.638   2.869
 2582W        W 6646   8.123   3.891   0.304
 2583W        W 6647   2.416   8.496   2.466
 2584W        W 6648   1.262   4.206   9.354
 2585W        W 6649   7.965   0.793  11.374
 2586W        W 6650   3.376   0.899   1.920
 2587W        W 6651   5.654   5.004   0.700
 2588W        W 6652   1.981   1.617   1.583
 2589W        W 6653   4.058   5.766   9.178
 2590W        W 6654   6.576   8.450   1.270
 2591W        W 6655   3.685   6.659   8.852
 2592W        W 6656   1.806   1.063   0.170
 2593W        W 6657   5.093   7.348   2.999
 2594W        W 6658   6.151   8.641   2.912
 2595W        W 6659   1.388   5.872   0.259
 2596W        W 6660   3.058   6.531  11.356
 2597W        W 6661   0.861   9.302   8.989
 2598W        W 6662   3.106   9.947  10.266
 2599W        W 6663   2.513   7.199   1.916
 2600W        W 6664   0.399   7.746  10.133
 2601W        W 6665   7.272   3.659   0.761
 2602W        W 6666   2.924   1.731   1.442
 2603W        W 6667   1.931   3.094   3.257
 2604W        W 6668   3.724   1.874  10.746
 2605W        W 6669   9.350   2.848  10.408
 2606W        W 6670   0.844   1.378   1.447
 2607W        W 6671   1.293   3.477   2.007
 2608W        W 6672   3.107   8.818   2.418
 2609W        W 6673  10.275   9.875  10.313
 2610W        W 6674   3.788  10.426  11.694
 2611W        W 6675   1.407   5.220   9.193
 2612W        W 6676   1.319   8.296   0.060
 2613W        W 6677   6.070   4.800  10.135
 2614W        W 6678   1.344   2.326   3.560
 2615W        W 6679   3.487   5.003   3.591
 2616W        W 6680   3.977   5.721   0.175
 2617W        W 6681   6.694   3.648  10.517
 2618W        W 6682   8.485   1.878   9.877
 2619W        W 6683   2.716   6.695   2.754
 2620W        W 6684   4.233   9.874   0.719
 2621W        W 6685   8.200   6.503   1.300
 2622W        W 6686   8.951   0.098   9.508
 2623W        W 6687   5.076   9.426  10.254
 2624W        W 6688   6.511  10.316  11.109
 2625W        W 6689   7.233   7.279  11.796
 2626W        W 6690   6.600   1.234  11.015
 2627W        W 6691   2.018   1.844  11.222
 2628W        W 6692   9.574   5.517  10.772
 2629W        W 6693   0.501   4.662   2.353
 2630W        W 6694   9.414   4.724   1.555
 2631W        W 6695   8.484   4.257   8.982
 2632W        W 6696   8.304   8.829  10.377
 2633W        W 6697   6.746   8.464   9.626
 2634W        W 6698   6.469   8.114   9.404
 2635W        W 6699   2.259   3.399  11.977
 2636W        W 6700   6.437   7.926   9.912
 2637W        W 6701   0.674   5.401   2.850
 2638W        W 6702   2.778   0.707   8.572
 2639W        W 6703   8.612   0.476  10.814
 2640W        W 6704   7.508   6.228  11.510
 2641W        W 6705   1.978   0.831  10.914
 2642W        W 6706   6.115   9.962   3.314
 2643W        W 6707   8.885  10.395   2.193
 2644W        W 6708   6.416   5.506  11.649
 2645W        W 6709   7.071   4.424   9.421
 2646W        W 6710   8.615   5.903   0.455
 2647W        W 6711   5.806   9.916   0.889
 2648W        W 6712   2.084   3.878   2.645
 2649W        W 6713   7.375   2.242  11.241
 2650W        W 6714   5.636   7.798   1.850
 2651W        W 6715  10.232   0.837   8.603
 2652W        W 6716   1.392   8.467   8.641
 2653W        W 6717   9.837   3.853   0.651
 2654W        W 6718   0.870   2.222  11.727
 2655W        W 6719   9.711   0.267  11.737
 2656W        W 6720   2.198   0.851   3.316
 2657W        W 6721   4.831   6.890   1.901
 2658W        W 6722   0.263  10.379   0.308
 2659W        W 6723   1.622   0.747   9.965
 2660W        W 6724   9.241   2.719   0.204
 2661W        W 6725   8.879   0.671   2.132
 2662W        W 6726   4.401   6.572   8.175
 2663W        W 6727   4.008   2.886   9.033
 2664W        W 6728   8.565   3.353  10.774
 2665W        W 6729   9.959   3.517  10.534
 2666W        W 6730   8.883   4.554   9.142
 2667W        W 6731   0.504   9.055   1.636
 2668W        W 6732   5.154   0.406   0.212
 2669W        W 6733   8.353   8.023   8.642
 2670W        W 6734   4.433   1.673   3.602
 2671W        W 6735   7.716   0.314   9.435
 2672W        W 6736   8.931   4.731   3.121
 2673W        W 6737   3.816   5.367  11.863
 2674W        W 6738   2.846   2.122   1.762
 2675W        W 6739   7.514  10.498   9.049
 2676W        W 6740   2.515  10.164   9.364
 2677W        W 6741   7.811   5.306   0.763
 2678W        W 6742   6.566   7.722  11.852
 2679W        W 6743   3.075   4.300   9.275
 2680W        W 6744   4.784   7.340   0.377
 2681W        W 6745   7.923   8.051  11.800
 2682W        W 6746   3.797   3.311  10.552
 2683W        W 6747   2.181   5.714   9.047
 2684W        W 6748   0.001   6.108  11.891
 2685W        W 6749  10.190   0.342   2.555
 2686W        W 6750   3.215   9.112   9.956
 2687W        W 6751   9.443   4.730   1.024
 2688W        W 6752   5.986   1.268   2.244
 2689W        W 6753   8.720   6.724   8.687
 2690W        W 6754   2.850   2.874  10.803
 2691W        W 6755   5.085   8.116  11.953
 2692W        W 6756   9.317   2.886   0.666
 2693W        W 6757   1.389   4.174   1.449
 2694W        W 6758   7.349   9.497  10.234
 2695W        W 6759   4.081   0.587  10.376
 2696W        W 6760   4.253   1.904   8.900
 2697W        W 6761   8.978   5.615   2.949
 2698W        W 6762   4.498   2.836  10.584
 2699W        W 6763   2.830   4.606   2.007
 2700W        W 6764   7.662   8.510  11.139
 2701W        W 6765  10.262   2.335   1.969
 2702W        W 6766  10.256  10.408   0.336
 2703W        W 6767  10.169   2.667  11.499
 2704W        W 6768   7.911   2.232   9.089
 2705W        W 6769   8.092   0.919  11.896
 2706W        W 6770   4.072   5.135   2.822
 2707W        W 6771   3.316   4.647   8.461
 2708W        W 6772   8.477  10.233  10.442
 2709W        W 6773   8.142   5.680   9.799
 2710W        W 6774   3.194   3.947   3.475
 2711W        W 6775   9.508   6.224   1.230
 2712W        W 6776   5.001   1.253   9.706
 2713W        W 6777   3.070   8.319   3.111
 2714W        W 6778   0.425  10.002  11.375
 2715W        W 6779   0.725   4.823   9.313
 2716W        W 6780   1.831   4.732   3.015
 2717W        W 6781   8.410  10.153   3.563
 2718W        W 6782   2.450   8.221  11.275
 2719W        W 6783   7.168  10.432   1.733
 2720W        W 6784   2.871   1.855  10.988
 2721W        W 6785   1.170   5.104   0.897
 2722W        W 6786   6.382   5.282  10.804
 2723W        W 6787   5.669   6.492   2.179
 2724W        W 6788   4.544   1.477  10.434
 2725W        W 6789   2.434   1.221   2.614
 2726W        W 6790   4.141   7.408   9.924
 2727W        W 6791   5.449   1.289   8.914
 2728W        W 6792   3.709   6.009   2.194
 2729W        W 6793   6.148   0.819   2.025
 2730W        W 6794   0.270   6.346   9.752
 2731W        W 6795   6.267   8.496  11.464
 2732W        W 6796  10.327   8.979   1.175
 2733W        W 6797   4.108   2.641   3.580
 2734W        W 6798   7.667   1.154  10.075
 2735W        W 6799  10.194   2.631   0.682
 2736W        W 6800   3.659   6.503   1.186
 2737W        W 6801   6.256   6.967   2.797
 2738W        W 6802   9.046   1.309   0.742
 2739W        W 6803   9.107   7.918   2.055
 2740W        W 6804   2.756   8.998   1.631
 2741W        W 6805   2.642   1.479  11.798
 2742W        W 6806   0.296   9.450   1.994
 2743W        W 6807   1.307   6.837   0.431
 2744W        W 6808   4.749   2.116   3.615
 2745W        W 6809  10.230   3.057   1.209
 2746W        W 6810   5.514   3.796   9.966
 2747W        W 6811   7.816   4.221  10.034
 2748W        W 6812   4.875   1.677  11.473
 2749W        W 6813   6.471  10.340   0.409
 2750W        W 6814   2.534   1.871   0.979
 2751W        W 6815   7.016   7.881   8.882
 2752W        W 6816   0.305  10.215  10.942
 2753W        W 6817  10.446   6.116   9.378
 2754W        W 6818   3.802   7.939  11.864
 2755W        W 6819   1.208   0.888   0.829
 2756W        W 6820   5.250   1.305   3.464
 2757W        W 6821   2.283   5.239   1.394
 2758W        W 6822   2.728   4.990   1.351
 2759W        W 6823   0.778   9.577   9.410
 2760W        W 6824   3.374   4.395   4.244
 2761W        W 6825   4.049   9.310  10.960
 2762W        W 6826   3.036   7.119  10.875
 2763W        W 6827   0.839   2.068   3.655
 2764W        W 6828   9.626   5.070   9.573
 2765W        W 6829   8.607   3.798   0.404
 2766W        W 6830   0.400  10.471   9.255
 2767W        W 6831   4.534   5.701  10.049
 2768W        W 6832   3.204  10.485   8.741
 2769W        W 6833   7.104   8.852   3.194
 2770W        W 6834   7.925   2.778   9.472
 2771W        W 6835   9.318   9.077  11.711
 2772W        W 6836   5.588   0.906   9.723
 2773W        W 6837   8.257   4.177  11.776
 2774W        W 6838   8.816   5.510   9.152
 2775W        W 6839   5.075   3.380   4.235
 2776W        W 6840   4.384   4.305  11.330
 2777W        W 6841   9.497   5.940  11.798
 2778W        W 6842   2.777   4.411   9.765
 2779W        W 6843   2.194   6.039   3.367
 2780W        W 6844   5.151   1.076   1.411
 2781W        W 6845   7.765  10.431   9.867
 2782W        W 6846   4.700   2.181   8.842
 2783W        W 6847   0.409   0.001   9.778
 2784W        W 6848   8.495   0.792   2.801
 2785W        W 6849   6.560   7.437  11.432
 2786W        W 6850   4.378   8.774  11.649
 2787W        W 6851   3.772   9.965   0.934
 2788W        W 6852   8.412   2.645   2.024
 2789W        W 6853   9.569   8.658   1.630
 2790W        W 6854   2.085   9.401  10.508
 2791W        W 6855   0.040   4.526   2.579
 2792W        W 6856   8.430   4.692   3.238
 2793W        W 6857   8.513   9.816   8.451
 2794W        W 6858   2.668   7.844  10.844
 2795W        W 6859   4.425   2.003   1.017
 2796W        W 6860   5.997   7.665   2.689
 2797W        W 6861   1.696   6.350   9.855
 2798W        W 6862   7.956   0.319   1.102
 2799W        W 6863   1.833   0.468   1.211
 2800W        W 6864   8.066   1.472   9.866
 2801W        W 6865   7.437   2.553   9.918
 2802W        W 6866   8.888   3.976   2.446
 2803W        W 6867   3.131   0.220   3.163
 2804W        W 6868   9.973   5.649  11.062
 2805W        W 6869   2.875   5.705   3.442
 2806W        W 6870   8.789   4.232   9.979
 2807W        W 6871   9.909   7.057  11.121
 2808W        W 6872   8.387   5.825   2.644
 2809W        W 6873   8.354   3.518   2.351
 2810W        W 6874   4.592   2.759   9.575
 2811W        W 6875   4.535   6.164   9.832
 2812W        W 6876   0.424   9.776   0.760
 2813W        W 6877   0.517   4.643  11.049
 2814W        W 6878   1.755   4.603   1.478
 2815W        W 6879   5.270   8.410   9.890
 2816W        W 6880   5.478   4.641   1.727
 2817W        W 6881   0.892   4.490   8.989
 2818W        W 6882   2.799   8.622   8.877
 2819W        W 6883   0.978   0.986  10.713
 2820W        W 6884   0.336   7.494   9.680
 2821W        W 6885   4.768   4.584   2.980
 2822W        W 6886   5.105   5.919   1.821
 2823W        W 6887   8.426   4.234  10.325
 2824W        W 6888   6.962   9.407   1.951
 2825W        W 6889   2.266   6.513   3.512
 2826W        W 6890   5.256   1.394  11.176
 2827W        W 6891   7.409   4.191   0.499
 2828W        W 6892   0.285   8.834   2.626
 2829W        W 6893   2.462   0.258   1.025
 2830W        W 6894   7.869   1.373   2.578
 2831W        W 6895   8.201   6.009   2.196
 2832W        W 6896  10.201   8.876  10.258
 2833W        W 6897   1.395   8.825  10.903
 2834W        W 6898   4.265   1.256  10.965
 2835W        W 6899   1.879   8.441   1.198
 2836W        W 6900   3.926   8.806   9.504
 2837W        W 6901   5.208   2.334   3.680
 2838W        W 6902   0.814   9.036   1.146
 2839W        W 6903   7.412   1.832   1.850
 2840W        W 6904   7.706   9.513   8.749
 2841W        W 6905   5.907   0.358   8.607
 2842W        W 6906   8.029   3.821  11.464
 2843W        W 6907   1.317   4.460  10.937
 2844W        W 6908   0.416   4.977   0.675
 2845W        W 6909   8.916   5.788   0.064
 2846W        W 6910   7.010   1.327   8.976
 2847W        W 6911   7.823   9.851  11.139
 2848W        W 6912   6.853   8.494   0.407
 2849W        W 6913   5.150   0.831   9.965
 2850W        W 6914   5.593   5.029  10.332
 2851W        W 6915   3.646   8.569   9.953
 2852W        W 6916   8.782  10.378   1.682
 2853W        W 6917   2.568   3.559   0.340
 2854W        W 6918   8.487   1.463   9.562
 2855W        W 6919   5.031   5.694  10.907
 2856W        W 6920   8.589   9.106   1.019
 2857W        W 6921   3.352   2.648  11.691
 2858W        W 6922   0.096   7.413   2.343
 2859W        W 6923   5.674   2.160  10.420
 2860W        W 6924   5.879   6.057   9.024
 2861W        W 6925   9.471   6.647   9.712
 2862W        W 6926   1.150   4.710   9.935
 2863W        W 6927   9.383   2.267   2.485
 2864W        W 6928   4.695   4.601   8.890
 2865W        W 6929   4.216   2.750   2.683
 2866W        W 6930   3.111   5.316   1.397
 2867W        W 6931   0.907   6.995   2.245
 2868W        W 6932   8.408   0.259   0.256
 2869W        W 6933   1.743   1.240  10.745
 2870W        W 6934  10.433   8.112   0.529
 2871W        W 6935   7.194   9.995   9.743
 2872W        W 6936   3.557   2.858  10.516
 2873W        W 6937   4.093   4.709   4.192
 2874W        W 6938   3.938  10.324  10.343
 2875W        W 6939   0.433   9.970   9.353
 2876W        W 6940   6.091  10.446   2.184
 2877W        W 6941   6.517   8.606  10.598
 2878W        W 6942   2.439   0.586   8.978
 2879W        W 6943   5.617   6.003   1.979
 2880W        W 6944   7.598   4.038   1.946
 2881W        W 6945   9.474   8.566  11.827
 2882W        W 6946   1.893   0.329   9.819
 2883W        W 6947   8.838   7.518   1.848
 2884W        W 6948   7.536   4.189   3.346
 2885W        W 6949   3.213   7.861   9.048
 2886W        W 6950   3.709   8.710   0.405
 2887W        W 6951   1.296   2.392   8.690
 2888W        W 6952   1.227   2.421   0.941
 2889W        W 6953   3.746   9.064   9.903
 2890W        W 6954   0.363   3.244   0.300
 2891W        W 6955   4.365   2.624  11.726
 2892W        W 6956   0.273   7.436   9.174
 2893W        W 6957   8.498   7.551  10.581
 2894W        W 6958   5.256   6.180   2.269
 2895W        W 6959  10.404   0.477   0.690
 2896W        W 6960   1.346   1.197   9.947
 2897W        W 6961   7.012   5.665   8.234
 2898W        W 6962   4.205   8.276  11.703
 2899W        W 6963  10.395   5.446   2.167
 2900W        W 6964   4.492   6.544   9.001
 2901W        W 6965   4.232   4.892   9.109
 2902W        W 6966   1.386   8.474   1.309
 2903W        W 6967   3.449   5.366  11.517
 2904W        W 6968   3.240   3.323  10.451
 2905W        W 6969   3.651   4.032   9.912
 2906W        W 6970   1.790   9.863   1.700
 2907W        W 6971   4.013   2.085   9.360
 2908W        W 6972   9.351   7.491  10.095
 2909W        W 6973   7.548   0.474   3.600
 2910W        W 6974   2.046   9.597   2.360
 2911W        W 6975   0.617   5.371   0.975
 2912W        W 6976   0.387   3.347   8.945
 2913W        W 6977   6.604   5.970   8.317
 2914W        W 6978   2.440   1.682  10.779
 2915W        W 6979   9.222   7.537   0.805
 2916W        W 6980   8.964   1.173  11.891
 2917W        W 6981   6.058   4.661   9.604
 2918W        W 6982   3.109   5.671   9.396
 2919W        W 6983   6.736   6.419   0.420
 2920W        W 6984  10.481   0.769   9.069
 2921W        W 6985   5.510   1.808   3.002
 2922W        W 6986   3.772   5.473   9.807
 2923W        W 6987   7.021   9.414   9.490
 2924W        W 6988   5.671   7.491   8.519
 2925W        W 6989   8.432   9.366   1.442
 2926W        W 6990   2.129   8.878  10.566
 2927W        W 6991   1.696   9.392   1.470
 2928W        W 6992   9.884   5.906   3.261
 2929W        W 6993   1.109   9.425   3.324
 2930W        W 6994   6.448   4.211   3.739
 2931W        W 6995   6.518   8.929  11.002
 2932W        W 6996   6.782   3.617   0.854
 2933W        W 6997   1.748   3.567  11.939
 2934W        W 6998   1.508   8.048   1.015
 2935W        W 6999   0.777   5.681   1.989
 2936W        W 7000   1.662   1.790   2.839
 2937W        W 7001   7.242   6.716   9.405
 2938W        W 7002   2.158   5.692  11.386
 2939W        W 7003   4.776   9.963  10.786
 2940W        W 7004   7.810   5.096  10.365
 2941W        W 7005   9.757   5.030   0.427
 2942W        W 7006   3.416   8.806   9.550
 2943W        W 7007  10.407   8.855  11.715
 2944W        W 7008   6.419   5.602   9.928
 2945W        W 7009   1.198   4.055   2.817
 2946W        W 7010   9.485   9.128   1.845
 2947W        W 7011   1.857  10.231   9.241
 2948W        W 7012   8.358   4.651  11.935
 2949W        W 7013   4.064  10.463   0.132
 2950W        W 7014   2.575   1.609   1.806
 2951W        W 7015   0.338   9.098   9.870
 2952W        W 7016   8.494   1.218   0.081
 2953W        W 7017   5.062  10.385   0.917
 2954W        W 7018   7.440   0.345   9.854
 2955W        W 7019   6.056   9.547   3.007
 2956W        W 7020   8.788   4.521  11.003
 2957W        W 7021   8.508   4.705  10.043
 2958W        W 7022   0.976   2.613   0.058
 2959W        W 7023   6.692   2.412   1.313
 2960W        W 7024   3.840   2.211   0.055
 2961W        W 7025   7.045   4.638   2.427
 2962W        W 7026   6.008   6.142  10.867
 2963W        W 7027   2.421   3.230   3.387
 2964W        W 7028   6.666   7.285   9.117
 2965W        W 7029  10.256   8.777   0.703
 2966W        W 7030   4.148   0.023  11.309
 2967W        W 7031   2.648  10.421   0.686
 2968W        W 7032   7.915   6.372   8.607
 2969W        W 7033   2.725   9.027   2.722
 2970W        W 7034   0.715   2.188   9.512
 2971W        W 7035   5.990   3.751   1.813
 2972W        W 7036   2.141   2.887  10.412
 2973W        W 7037   7.692   5.970   7.870
 2974W        W 7038  10.463   3.856   3.241
 2975W        W 7039   1.356   1.202  11.044
 2976W        W 7040   2.625   8.392  11.750
 2977W        W 7041   2.911   4.191   2.294
 2978W        W 7042   1.371   7.180   2.295
 2979W        W 7043   9.553   4.240   9.005
 2980W        W 7044   8.811   7.127   8.365
 2981W        W 7045   9.934   5.725   0.942
 2982W        W 7046   7.537   6.799   2.417
 2983W        W 7047   7.110   5.226   7.976
 2984W        W 7048   4.084   3.652   9.360
 2985W        W 7049   2.142   7.992   3.026
 2986W        W 7050   8.553   0.258   8.879
 2987W        W 7051   0.282   8.428   2.189
 2988W        W 7052   9.604   8.083  11.432
 2989W        W 7053   2.819   9.534  10.321
 2990W        W 7054   3.851   2.671  11.771
 2991W        W 7055   8.910   7.305   2.703
 2992W        W 7056   2.362   2.532   0.191
 2993W        W 7057   8.605   8.694   3.509
 2994W        W 7058   1.794   3.298  10.548
 2995W        W 7059  10.374   0.592  10.982
 2996W        W 7060   1.129   0.688   9.995
 2997W        W 7061   9.438   1.305  11.346
 2998W        W 7062   9.495   6.073   9.494
 2999W        W 7063   6.133   4.229   1.701
 3000W        W 7064   5.423   7.083   8.205
 3001W        W 7065   5.593   9.352   2.848
 3002W        W 7066   0.931   8.174   1.678
 3003W        W 7067   4.633   7.528   0.818
 3004W        W 7068   4.139   3.809  10.389
 3005W        W 7069   0.279   0.731   0.443
 3006W        W 7070   3.682   7.473   1.402
 3007W        W 7071   3.965   5.269   8.092
 3008W        W 7072   1.260   8.564   1.797
 3009W        W 7073   4.736   2.253   1.731
 3010W        W 7074   6.521   2.209  10.961
 3011W        W 7075   8.914   8.182   2.460
 3012W        W 7076   9.080   3.740   3.388
 3013W        W 7077  10.416   3.785   9.323
 3014W        W 7078   6.605   8.189   0.780
 3015W        W 7079   8.855   9.469   0.297
 3016W        W 7080   5.651   8.412   9.024
 3017W        W 7081   2.219   3.756   9.295
 3018W        W 7082   9.113   6.520  10.059
 3019W        W 7083   3.348   3.161   9.578
 3020W        W 7084   5.213   1.765   9.322
 3021W        W 7085   3.993   8.027  10.758
 3022W        W 7086   6.924   4.254  10.859
 3023W        W 7087   0.748   8.036   3.173
 3024W        W 7088   8.344   9.725  10.403
 3025W        W 7089   5.006   7.093  10.450
 3026W        W 7090   0.970   0.921   0.011
 3027W        W 7091   0.884  10.410   9.071
 3028W        W 7092   7.787   4.011   8.965
 3029W        W 7093   3.707   5.491   3.969
 3030W        W 7094   6.528   2.644  11.396
 3031W        W 7095   8.683   7.664   3.582
 3032W        W 7096   6.924   1.775   0.208
 3033W        W 7097   1.248   3.960  10.917
 3034W        W 7098   4.079   3.044   8.514
 3035W        W 7099  10.374   9.733   1.928
 3036W        W 7100   3.052   2.620   0.086
 3037W        W 7101   0.488   0.974   3.566
 3038W        W 7102   0.063   2.647   2.824
 3039W        W 7103   7.592   2.273   2.217
 3040W        W 7104   1.237   8.097   3.030
 3041W        W 7105   9.457   7.331  11.096
 3042W        W 7106   1.854   4.402   3.472
 3043W        W 7107   3.087   1.852   2.456
 3044W        W 7108   4.400   2.013  11.403
 3045W        W 7109   4.524   1.277   8.914
 3046W        W 7110   2.211   0.678   0.904
 3047W        W 7111   9.957   5.848  10.066
 3048W        W 7112   9.393   3.799   9.341
 3049W        W 7113   3.427   4.263   3.133
 3050W        W 7114   6.706   1.154   3.137
 3051W        W 7115   9.372   2.022   9.357
 3052W        W 7116   5.651   0.327   0.477
 3053W        W 7117   8.384   7.355   0.354
 3054W        W 7118   3.660   4.639   3.903
 3055W        W 7119   0.816   6.154   1.793
 3056W        W 7120   0.225   5.558   8.746
 3057W        W 7121   9.025   6.230   0.376
 3058W        W 7122   8.739   3.524  10.235
 3059W        W 7123   8.576   6.947  11.236
 3060W        W 7124   9.863   6.615  11.932
 3061W        W 7125   3.805   4.666   2.925
 3062W        W 7126   4.967   9.034   0.359
 3063W        W 7127   6.704  10.028   9.893
 3064W        W 7128   6.215   5.880   8.676
 3065W        W 7129   8.988   7.461   1.343
 3066W        W 7130   5.558   7.947   0.800
 3067W        W 7131   5.306   3.104  10.396
 3068W        W 7132   5.950   1.386   0.712
 3069W        W 7133   5.785   3.641   0.942
 3070W        W 7134   1.382   6.341   0.441
 3071W        W 7135   3.636   3.106  11.570
 3072W        W 7136   0.565   6.415   2.920
 3073W        W 7137   4.611   6.994   0.935
 3074W        W 7138   0.825   6.903  11.845
 3075W        W 7139   9.439   3.799   0.949
 3076W        W 7140   7.557   1.151   2.928
 3077W        W 7141   7.028   2.139   1.016
 3078W        W 7142   8.900   4.027  10.988
 3079W        W 7143   3.546   7.570   8.750
 3080W        W 7144   3.243   0.763   9.287
 3081W        W 7145   3.685   4.156   1.074
 3082W        W 7146  10.344   7.478   1.719
 3083W        W 7147   6.055   9.943   1.317
 3084W        W 7148  10.419  10.342   9.080
 3085W        W 7149   8.611   8.087   0.588
 3086W        W 7150   7.588   7.562   1.005
 3087W        W 7151   5.199   7.447   8.813
 3088W        W 7152   2.235   1.435   2.167
 3089W        W 7153   6.458   4.064  10.751
 3090W        W 7154   9.902   8.425  10.423
 3091W        W 7155   1.633   4.310   2.754
 3092W        W 7156   2.373   8.136   1.883
 3093W        W 7157   8.364   3.135  11.817
 3094W        W 7158   6.729  10.235  11.948
 3095W        W 7159   9.922   3.524  10.027
 3096W        W 7160   5.256   4.516   1.268
 3097W        W 7161   2.967   1.809   3.488
 3098W        W 7162   0.899   4.248   8.541
 3099W        W 7163   7.170   8.052   3.521
 3100W        W 7164   6.815   8.331   3.189
 3101W        W 7165   5.551   6.376  10.722
 3102W        W 7166   2.166   8.933   3.198
 3103W        W 7167   6.072   8.496   1.369
 3104W        W 7168   1.857   4.534  11.980
 3105W        W 7169   9.982   0.390   9.714
 3106W        W 7170   6.132   8.138   2.794
 3107W        W 7171   3.927   5.941   4.097
 3108W        W 7172   5.031   5.129   9.615
 3109W        W 7173   7.008   9.017  10.780
 3110W        W 7174   8.926   1.698  10.066
 3111W        W 7175   7.326   0.968   1.567
 3112W        W 7176   9.853   4.818   9.124
 3113W        W 7177   2.737   2.849   3.178
 3114W        W 7178   7.904   2.465  10.070
 3115W        W 7179   4.703   1.077  10.705
 3116W        W 7180   7.140   5.700  10.526
 3117W        W 7181   2.725   3.260   2.479
 3118W        W 7182   6.000   5.228   9.850
 3119W        W 7183   1.364   6.660   2.507
 3120W        W 7184   7.818   5.201   3.230
 3121W        W 7185   9.759   1.723   9.477
 3122W        W 7186   6.520   3.154  11.226
 3123W        W 7187   7.071   0.957   3.487
 3124W        W 7188   5.979   0.027   0.242
 3125W        W 7189   7.415   8.525   0.383
 3126W        W 7190   8.457   4.799   8.932
 3127W        W 7191   8.596   5.746   1.288
 3128W        W 7192   8.876   6.466   2.443
 3129W        W 7193   7.456   2.689   2.485
 3130W        W 7194   3.718   5.108  11.136
 3131W        W 7195   3.005   9.386  10.798
 3132W        W 7196   4.038   0.428   9.226
 3133W        W 7197   3.995   1.859   2.337
 3134W        W 7198   8.138   0.533   1.962
 3135W        W 7199   8.136   5.550  10.304
 3136W        W 7200   3.790  10.389   3.227
 3137W        W 7201   5.136   9.025   9.449
 3138W        W 7202   0.186   3.095  11.533
 3139W        W 7203   8.830   5.064  10.891
 3140W        W 7204   0.894   9.989   0.671
 3141W        W 7205   5.444   5.138   3.164
 3142W        W 7206   7.896   0.791   9.204
 3143W        W 7207   9.568   1.229   9.752
 3144W        W 7208   2.268   4.357   9.077
 3145W        W 7209   9.293   8.056  11.869
 3146W        W 7210   5.114   9.961   3.077
 3147W        W 7211   5.570   5.355  10.737
 3148W        W 7212   2.256   6.537   2.548
 3149W        W 7213   5.690   2.143  11.482
 3150W        W 7214   5.912   1.392   9.107
 3151W        W 7215   7.714   5.179   8.443
 3152W        W 7216   9.878   0.224   3.367
 3153W        W 7217   0.446   4.225   8.770
 3154W        W 7218  10.391   2.332  10.380
 3155W        W 7219   4.820   6.912   3.008
 3156W        W 7220   9.420   1.021  10.913
 3157W        W 7221   9.895   9.390   1.978
 3158W        W 7222   3.663   2.647   8.691
 3159W        W 7223   7.892   6.853   8.791
 3160W        W 7224   4.659   5.266  11.294
 3161W        W 7225   1.881   7.551  11.661
 3162W        W 7226   4.608   7.308   3.272
 3163W        W 7227   6.237   6.411  11.881
 3164W        W 7228   8.488   5.542   2.209
 3165W        W 7229   0.805   0.324  11.316
 3166W        W 7230   5.176   2.307  11.505
 3167W        W 7231   5.034   8.499   3.477
 3168W        W 7232   2.649   0.811   9.963
 3169W        W 7233   8.759   7.679   2.347
 3170W        W 7234   1.047   1.924   9.895
 3171W        W 7235   8.390  10.359   9.190
 3172W        W 7236   6.059   3.765   2.691
 3173W        W 7237   9.811  10.008   2.678
 3174W        W 7238   7.448   9.747   2.974
 3175W        W 7239   6.893   5.225  10.737
 3176W        W 7240   9.461   3.695   3.056
 3177W        W 7241   4.178   7.256  10.414
 3178W        W 7242   8.541   7.931  10.227
 3179W        W 7243   9.358   1.074   3.155
 3180W        W 7244   1.386   2.760   9.968
 3181W        W 7245   2.176   3.972  10.810
 3182W        W 7246   2.207   5.440   0.345
 3183W        W 7247   4.748   2.742   1.476
 3184W        W 7248   6.192   5.570   9.481
 3185W        W 7249   6.931   0.237  11.765
 3186W        W 7250   0.609   6.329   8.523
 3187W        W 7251   1.817   3.429   9.335
 3188W        W 7252   5.109   6.106   9.596
 3189W        W 7253   6.404   5.104  11.299
 3190W        W 7254   2.331   5.551  10.912
 3191W        W 7255   8.693   5.536  10.571
 3192W        W 7256   0.802   7.442  11.031
 3193W        W 7257   4.531   1.751   0.557
 3194W        W 7258   1.947   2.739   1.560
 3195W        W 7259   0.692   5.236   3.318
 3196W        W 7260   8.589   7.562  11.932
 3197W        W 7261   9.677   1.241   3.550
 3198W        W 7262   2.425   9.112   0.278
 3199W        W 7263   6.046   6.550   8.977
 3200W        W 7264   4.700   2.444  11.393
 3201W        W 7265   2.328   9.151  10.958
 3202W        W 7266   9.088   0.234  10.988
 3203W        W 7267   1.044   1.258   0.525
 3204W        W 7268   7.238   6.136   8.097
 3205W        W 7269   0.541   0.308   3.230
 3206W        W 7270   9.139   8.392   1.520
 3207W        W 7271   6.989   5.952   3.592
 3208W        W 7272   8.314   7.114  10.224
 3209W        W 7273   1.424   3.529  11.115
 3210W        W 7274   3.714   3.590  11.440
 3211W        W 7275   8.106   1.894   9.532
 3212W        W 7276   1.244   2.358   2.280
 3213W        W 7277   5.231   2.400   1.624
 3214W        W 7278   1.226   1.964   2.637
 3215W        W 7279   8.927   9.791   9.714
 3216W        W 7280   9.894  10.455   2.433
 3217W        W 7281   3.426   9.895   0.525
 3218W        W 7282   4.530   5.560  10.881
 3219W        W 7283   3.812   4.372   0.590
 3220W        W 7284   5.313   2.851   0.708
 3221W        W 7285   7.922   7.923   8.910
 3222W        W 7286   0.183   6.443   0.227
 3223W        W 7287   5.222   6.712  10.943
 3224W        W 7288   3.406   5.493   4.386
 3225W        W 7289   7.824   4.401   1.007
 3226W        W 7290   4.704   5.542   3.524
 3227W        W 7291   9.830   3.636   2.214
 3228W        W 7292   7.999   1.314  11.375
 3229W        W 7293   2.166   5.246   2.488
 3230W        W 7294   5.787   0.348   0.964
 3231W        W 7295   0.257   9.097   3.062
 3232W        W 7296   0.890   8.243   9.324
 3233W        W 7297   3.846   8.302   2.843
 3234W        W 7298   2.743  10.475   2.697
 3235W        W 7299   8.645   5.018   1.758
 3236W        W 7300   3.583   3.067   0.952
 3237W        W 7301  10.029   0.820   2.703
 3238W        W 7302   6.138   4.357  10.482
 3239W        W 7303   8.447   4.164   3.253
 3240W        W 7304   0.010  10.332   8.568
 3241W        W 7305   7.364   3.529   9.494
 3242W        W 7306   9.276   8.075   1.138
 3243W        W 7307   5.576   5.243   8.970
 3244W        W 7308   4.177   8.523  10.705
 3245W        W 7309   1.953   0.236   0.776
 3246W        W 7310   1.009   0.790   2.683
 3247W        W 7311   2.703   0.209   8.753
 3248W        W 7312   8.435   9.027   9.738
 3249W        W 7313   9.910   7.557   0.288
 3250W        W 7314  10.302   9.338  11.729
 3251W        W 7315   0.281   4.748   9.065
 3252W        W 7316   3.772   9.446   1.140
 3253W        W 7317   4.705  10.345  11.109
 3254W        W 7318   2.672   6.007   1.065
 3255W        W 7319   2.426   0.368   0.523
 3256W        W 7320   9.359   0.867  10.400
 3257W        W 7321   5.967   9.532  11.475
 3258W        W 7322   0.728   1.467  10.779
 3259W        W 7323   6.894   7.207  10.414
 3260W        W 7324   6.170   7.496   9.823
 3261W        W 7325  10.060   1.773   0.800
 3262W        W 7326   6.242   3.934   9.236
 3263W        W 7327   8.527   6.655   9.845
 3264W        W 7328   2.139   0.563   2.345
 3265W        W 7329   4.115   8.457   3.309
 3266W        W 7330   4.148   5.654   3.699
 3267W        W 7331   1.316   3.281   9.275
 3268W        W 7332   8.893   3.150   2.765
 3269W        W 7333   9.172   2.273  11.297
 3270W        W 7334   8.972   5.444   1.500
 3271W        W 7335   6.213   4.489  11.012
 3272W        W 7336   0.438   3.254  10.804
 3273W        W 7337   5.637   6.041   3.831
 3274W        W 7338   1.706   8.943   2.759
 3275W        W 7339   8.009   5.572   2.889
 3276W        W 7340   5.665   1.206  11.446
 3277W        W 7341   2.895   5.504   2.465
 3278W        W 7342   0.505  10.254   2.429
 3279W        W 7343   1.915   8.396   9.108
 3280W        W 7344   3.106   6.150  10.985
 3281W        W 7345   3.251   5.330   9.758
 3282W        W 7346   7.829   3.657   1.620
 3283W        W 7347   6.779  10.094   0.796
 3284W        W 7348   1.172   0.503  10.522
 3285W        W 7349   0.235  10.096  10.061
 3286W        W 7350   0.983  10.361   2.744
 3287W        W 7351   3.315   8.930  10.800
 3288W        W 7352   8.103   8.856   8.814
 3289W        W 7353  10.357   8.356  11.757
 3290W        W 7354   2.164   2.753  11.382
 3291W        W 7355   6.389   0.890   1.248
 3292W        W 7356   0.748   9.478   1.404
 3293W        W 7357   6.619   8.199   8.794
 3294W        W 7358   7.537   8.676   9.765
 3295W        W 7359   6.241  10.116   0.019
 3296W        W 7360   9.550   1.970   1.002
 3297W        W 7361   0.837   6.507   1.404
 3298W        W 7362  10.362   2.414  10.873
 3299W        W 7363   6.957  10.379   2.214
 3300W        W 7364   1.884   2.368   1.920
 3301W        W 7365   1.980   4.602   9.919
 3302W        W 7366   5.172   9.441   3.171
 3303W        W 7367   5.496   0.863   3.565
 3304W        W 7368   8.946   3.232   9.851
 3305W        W 7369  10.188   4.905   0.212
 3306W        W 7370   3.861   7.793   2.757
 3307W        W 7371   3.847   8.238   0.455
 3308W        W 7372   8.673   9.941   9.295
 3309W        W 7373   4.604   6.891   1.435
 3310W        W 7374   3.793   5.936  10.517
 3311W        W 7375   9.283   4.428  11.018
 3312W        W 7376   8.404   7.558   9.924
 3313W        W 7377   9.882   4.620   1.271
 3314W        W 7378   9.485   7.618   1.241
 3315W        W 7379   3.170   4.014   0.868
 3316W        W 7380   2.895   4.392   0.532
 3317W        W 7381   0.490   2.837  11.114
 3318W        W 7382   8.805   2.587  11.576
 3319W        W 7383   8.161   6.014   0.193
 3320W        W 7384   3.410   0.272  11.690
 3321W        W 7385   6.452   7.961   1.257
 3322W        W 7386   0.792   3.508   1.556
 3323W        W 7387   9.499   6.643  11.167
 3324W        W 7388   6.485   5.690   0.619
 3325W        W 7389   7.464   9.807   0.031
 3326W        W 7390   4.288   0.864   2.068
 3327W        W 7391   3.677   2.294  11.025
 3328W        W 7392   7.804   4.820   0.643
 3329W        W 7393  10.397   1.370   0.807
 3330W        W 7394   4.621   3.204   1.299
 3331W        W 7395   7.945   0.679   8.698
 3332W        W 7396   2.064   1.793   3.487
 3333W        W 7397   5.949   4.060  10.897
 3334W        W 7398   4.103   8.384   8.712
 3335W        W 7399   8.775   4.281  11.885
 3336W        W 7400   6.022   5.102   8.776
 3337W        W 7401   1.536   9.417   2.562
 3338W        W 7402   2.216   8.920   2.680
 3339W        W 7403   8.047   8.403  10.235
 3340W        W 7404   1.052   0.228   3.118
 3341W        W 7405   7.308   3.998   9.981
 3342W        W 7406   1.717   2.119   3.237
 3343W        W 7407   0.918   5.295   9.297
 3344W        W 7408   8.154   5.049   1.595
 3345W        W 7409   2.564   9.895   3.300
 3346W        W 7410   5.456   4.825  11.827
 3347W        W 7411  10.314   9.810   3.347
 3348W        W 7412  10.454   6.131   1.485
 3349W        W 7413   4.213   7.488   2.553
 3350W        W 7414   6.606   9.752   2.123
 3351W        W 7415  10.408   1.422  11.892
 3352W        W 7416   8.906   7.037   1.646
 3353W        W 7417   0.233   9.451   1.475
 3354W        W 7418   7.875   3.598   2.138
 3355W        W 7419   2.966   5.127  11.992
 3356W        W 7420   5.513   6.568   8.909
 3357W        W 7421   6.054   2.235   8.771
 3358W        W 7422   3.836   7.121   8.621
 3359W        W 7423   3.826   8.905  10.742
 3360W        W 7424   8.127   8.983   0.869
 3361W        W 7425   5.202   2.662  10.102
 3362W        W 7426   0.979   9.481  10.567
 3363W        W 7427   3.144   1.366  11.791
 3364W        W 7428   7.500   5.560   8.144
 3365W        W 7429   6.757  10.447  10.171
 3366W        W 7430   6.742   5.036   2.278
 3367W        W 7431   0.318   0.273   2.508
 3368W        W 7432   6.888   9.420  11.056
 3369W        W 7433   5.991   8.953   2.221
 3370W        W 7434  10.049   4.353   9.188
 3371W        W 7435   9.174   6.438   2.866
 3372W        W 7436   7.163   1.869  10.463
 3373W        W 7437   5.941   5.125  11.024
 3374W        W 7438   2.679   5.518   1.218
 3375W        W 7439   6.929   2.508  11.037
 3376W        W 7440   9.517   1.129   1.728
 3377W        W 7441   1.776   0.343  10.865
 3378W        W 7442   4.960  10.073  11.598
 3379W        W 7443   6.467   3.097   9.820
 3380W        W 7444   1.186   3.960   0.576
 3381W        W 7445   0.437   6.246   1.158
 3382W        W 7446   5.142   5.736   0.742
 3383W        W 7447   2.586   8.644  10.508
 3384W        W 7448   9.509   9.601   2.908
 3385W        W 7449   1.326   7.037  11.947
 3386W        W 7450   2.285   8.150   8.769
 3387W        W 7451   6.439   8.838   1.966
 3388W        W 7452   9.348   8.659   0.560
 3389W        W 7453  10.322   5.036   2.901
 3390W        W 7454   4.584   7.811   3.268
 3391W        W 7455   7.563   8.080  11.429
 3392W        W 7456   4.717   7.049  11.961
 3393W        W 7457   3.350   2.163   0.124
 3394W        W 7458   4.679   9.403   2.460
 3395W        W 7459   4.981   9.066   0.902
 3396W        W 7460   1.111  10.465   1.836
 3397W        W 7461   6.310   9.305  11.793
 3398W        W 7462   4.466   0.871   8.158
 3399W        W 7463   8.110   6.734  11.035
 3400W        W 7464  10.385   2.323   3.497
 3401W        W 7465   8.822   8.062   8.805
 3402W        W 7466   4.665   3.634  10.622
 3403W        W 7467   7.223   4.734   9.009
 3404W        W 7468   4.138   8.150   1.141
 3405W        W 7469   3.522   5.598   1.468
 3406W        W 7470   8.485   2.171   2.780
 3407W        W 7471  10.409   1.814   3.368
 3408W        W 7472   6.525   6.127  10.426
 3409W        W 7473   9.005   2.290   3.318
 3410W        W 7474   4.246   4.908   0.473
 3411W        W 7475   5.058   7.583  11.530
 3412W        W 7476   8.873   0.629  11.246
 3413W        W 7477   5.131   0.481   3.542
 3414W        W 7478   2.045   8.864   9.316
 3415W        W 7479   5.559   1.418   2.541
 3416W        W 7480   5.044   4.309   1.684
 3417W        W 7481   7.056  10.201   3.619
 3418W        W 7482   9.403   4.537  11.642
 3419W        W 7483   4.606   1.511   1.022
 3420W        W 7484   6.586  10.363  10.625
 3421W        W 7485   6.488   3.529   9.502
 3422W        W 7486   6.096   5.101   0.411
 3423W        W 7487   2.892   1.303   3.471
 3424W        W 7488   4.465   8.593  10.287
 3425W        W 7489   3.464   1.896   3.393
 3426W        W 7490   5.755   5.559   3.193
 3427W        W 7491   7.038   7.364  11.178
 3428W        W 7492   7.399   3.394   0.282
 3429W        W 7493   3.668   5.970   1.132
 3430W        W 7494   6.317   6.387   8.567
 3431W        W 7495   5.376   1.732   2.157
 3432W        W 7496   4.734   2.162   2.252
 3433W        W 7497   1.063   7.878   0.768
 3434W        W 7498   7.197   8.427   2.254
 3435W        W 7499   5.919   5.624   1.723
 3436W        W 7500   8.000   0.919   3.317
 3437W        W 7501   5.438   4.308   8.972
 3438W        W 7502   7.723   6.431   1.396
 3439W        W 7503   6.107   5.973   3.267
 3440W        W 7504  10.189   3.174  11.446
 3441W        W 7505   9.884   7.045   1.321
 3442W        W 7506   8.039   6.698  10.030
 3443W        W 7507   9.828   1.861  11.425
 3444W        W 7508   6.417   5.153   0.007
 3445W        W 7509   9.417   5.431  11.765
 3446W        W 7510   4.051   0.423   2.801
 3447W        W 7511  10.303   4.420   0.200
 3448W        W 7512   1.805   2.155   9.262
 3449W        W 7513   0.264   0.414  11.711
 3450W        W 7514   1.308   1.382   1.012
 3451W        W 7515  10.342   5.207  10.920
 3452W        W 7516   4.376   2.576   1.135
 3453W        W 7517   1.757   8.413  10.015
 3454W        W 7518   4.790   4.516   1.003
 3455W        W 7519   1.258   6.758  11.533
 3456W        W 7520   3.319   7.398   3.180
 3457W        W 7521   1.253   1.394  10.553
 3458W        W 7522   1.406  10.382  10.811
 3459W        W 7523   0.421   3.765   0.398
 3460W        W 7524   3.752   7.984   8.500
 3461W        W 7525   2.524   1.223  11.384
 3462W        W 7526   5.102   4.619   2.100
 3463W        W 7527   2.866   9.357   0.274
 3464W        W 7528   3.918   1.874  11.232
 3465W        W 7529   9.329   4.665   8.745
 3466W        W 7530   2.876   8.466   9.382
 3467W        W 7531  10.282   5.192   1.249
 3468W        W 7532   6.083   0.933  11.449
 3469W        W 7533  10.367   7.734  10.861
 3470W        W 7534   3.213   0.344  10.276
 3471W        W 7535   4.727   0.468   0.513
 3472W        W 7536   6.907   5.708  10.077
 3473W        W 7537   7.196   9.030  11.702
 3474W        W 7538   6.510   7.792   1.745
 3475W        W 7539   1.596   9.426   9.643
 3476W        W 7540   4.298   6.105   2.448
 3477W        W 7541   8.506   6.812   2.493
 3478W        W 7542   5.194   0.341   0.716
 3479W        W 7543   8.519   0.403   9.944
 3480W        W 7544   1.432   7.244  11.446
 3481W        W 7545   9.976   7.014   9.055
 3482W        W 7546   7.086   7.381   8.677
 3483W        W 7547   4.167   9.362   8.807
 3484W        W 7548   2.613   6.673   1.833
 3485W        W 7549   6.197   2.315  11.773
 3486W        W 7550   5.012   3.340   1.798
 3487W        W 7551   9.327   6.645   0.502
 3488W        W 7552   8.878   2.831   1.914
 3489W        W 7553  10.270   7.458   8.998
 3490W        W 7554   4.901   6.336   8.220
 3491W        W 7555   9.820   5.749   2.775
 3492W        W 7556   7.951   1.416   3.128
 3493W        W 7557   5.519   6.120   8.655
 3494W        W 7558   0.272   8.113   9.812
 3495W        W 7559   1.017   2.708   1.915
 3496W        W 7560   8.413   8.536   1.806
 3497W        W 7561   6.836   6.422   8.439
 3498W        W 7562   1.062   2.617   1.403
 3499W        W 7563   7.414   0.006  11.388
 3500W        W 7564   9.560   2.018  10.827
 3501W        W 7565   8.351   5.206   9.992
 3502W        W 7566   2.074   7.356  10.544
 3503W        W 7567   0.258   2.748  10.656
 3504W        W 7568   5.737   3.873   0.092
 3505W        W 7569   2.822   7.870   0.448
 3506W        W 7570   7.501   0.499   9.013
 3507W        W 7571   3.262   1.503   3.141
 3508W        W 7572   2.402   0.621  11.820
 3509W        W 7573   4.670   6.373  10.282
 3510W        W 7574   2.129  10.374   1.861
 3511W        W 7575   3.340   5.063   8.769
 3512W        W 7576   9.145   8.657   2.827
 3513W        W 7577   8.491   7.423   9.433
 3514W        W 7578   4.236   0.778   8.899
 3515W        W 7579  10.459   9.776   9.321
 3516W        W 7580   1.378   8.920   9.942
 3517W        W 7581   7.408   3.566   1.912
 3518W        W 7582   1.662   5.725   9.221
 3519W        W 7583   5.640   2.212   0.920
 3520W        W 7584   6.835   9.125   0.608
 3521W        W 7585   6.049   7.502   0.790
 3522W        W 7586   4.193   2.224   0.447
 3523W        W 7587   5.145   5.149  10.557
 3524W        W 7588   9.659  10.391   1.438
 3525W        W 7589   4.065   1.202   9.120
 3526W        W 7590   0.502   1.835   9.140
 3527W        W 7591   2.998   7.390   8.885
 3528W        W 7592   1.439   7.588   1.866
 3529W        W 7593   6.411   3.998   8.148
 3530W        W 7594   7.645   5.926   1.378
 3531W        W 7595   6.890   2.185   0.519
 3532W        W 7596   8.428   4.624   1.473
 3533W        W 7597   9.011   3.645   0.679
 3534W        W 7598   3.285   6.985  11.296
 3535W        W 7599   7.406   7.056  11.332
 3536W        W 7600   5.534   1.249   2.045
 3537W        W 7601  10.404   8.757   2.273
 3538W        W 7602  10.246   1.513  10.698
 3539W        W 7603   0.337   8.846   1.191
 3540W        W 7604   2.913   1.136   1.970
 3541W        W 7605   2.653   3.599   1.632
 3542W        W 7606   3.140   5.776   1.133
 3543W        W 7607   8.431   8.392   0.226
 3544W        W 7608   0.348   0.517  11.181
 3545W        W 7609   9.850   3.703   2.724
 3546W        W 7610   2.362   8.636  10.976
 3547W        W 7611   0.344   6.741  11.696
 3548W        W 7612  10.407   7.061   1.391
 3549W        W 7613   4.126   6.178   3.678
 3550W        W 7614   3.892  10.427   2.710
 3551W        W 7615  10.044  10.470  11.528
 3552W        W 7616   6.042   9.115   2.698
 3553W        W 7617   0.021   9.915   0.396
 3554W        W 7618   8.575   1.894  11.208
 3555W        W 7619   9.116   6.486   0.957
 3556W        W 7620  10.453   5.675  10.120
 3557W        W 7621   4.526   6.432   0.696
 3558W        W 7622   8.139   4.873  11.492
 3559W        W 7623   9.546   5.024  11.471
 3560W        W 7624   9.468   3.573   0.457
 3561W        W 7625   7.589   6.052   3.465
 3562W        W 7626  10.399   1.181   9.378
 3563W        W 7627  10.477   4.779  11.785
 3564W        W 7628   5.293   9.478   3.669
 3565W        W 7629   8.345   9.862   3.128
 3566W        W 7630   5.054   9.529   9.758
 3567W        W 7631   4.682   8.401   2.561
 3568W        W 7632   5.848   4.024   9.589
 3569W        W 7633   6.513   6.186   3.524
 3570W        W 7634   8.669   8.586   2.696
 3571W        W 7635   1.692   6.519  11.556
 3572W        W 7636   5.466   7.835   1.346
 3573W        W 7637   8.899  10.307   3.447
 3574W        W 7638   0.864   3.186   1.958
 3575W        W 7639   2.854  10.293   3.164
 3576W        W 7640  10.297   9.132   2.815
 3577W        W 7641   4.245   3.172   0.370
 3578W        W 7642   5.443   9.893  11.532
 3579W        W 7643   9.790   0.457   8.680
 3580W        W 7644   6.882   0.101   0.262
 3581W        W 7645   3.726   4.588   3.406
 3582W        W 7646   8.570   6.890   9.372
 3583W        W 7647   7.536   6.114   8.869
 3584W        W 7648   8.842   0.067   0.403
 3585W        W 7649   4.446   5.945   3.327
 3586W        W 7650   2.073   5.207  11.201
 3587W        W 7651   7.669   4.112   1.441
 3588W        W 7652   1.616   1.287   1.446
 3589W        W 7653   7.685   8.529   2.346
 3590W        W 7654   6.882   5.108   8.863
 3591W        W 7655   1.795   6.038   1.284
 3592W        W 7656   0.983   2.829  11.108
 3593W        W 7657   5.905   5.141   2.905
 3594W        W 7658   5.506  10.359   8.860
 3595W        W 7659   2.168   3.360  10.197
 3596W        W 7660   9.747   0.365   2.890
 3597W        W 7661   6.160   8.476   2.380
 3598W        W 7662   2.144   1.866   2.993
 3599W        W 7663   6.026   7.946   9.580
 3600W        W 7664   7.663   3.134   2.276
 3601W        W 7665   7.377   9.842   3.474
 3602W        W 7666   4.491   3.610   0.527
 3603W        W 7667   3.848   6.685  10.930
 3604W        W 7668   6.975   1.301   2.714
 3605W        W 7669   1.466   8.310  10.812
 3606W        W 7670   8.275   9.915  11.408
 3607W        W 7671  10.418   0.271  11.372
 3608W        W 7672   9.359   9.158   9.116
 3609W        W 7673   6.456   2.602   9.561
 3610W        W 7674   3.629   1.247   8.852
 3611W        W 7675   5.966   9.028   0.675
 3612W        W 7676   9.329   9.883  11.307
 3613W        W 7677   4.159   6.703   3.768
 3614W        W 7678   4.668   9.190   8.688
 3615W        W 7679   0.195   1.873   2.627
 3616W        W 7680   7.229   9.677   8.833
 3617W        W 7681   6.679   4.475  11.256
 3618W        W 7682   0.939   6.565  10.555
 3619W        W 7683   9.002   4.272  11.422
 3620W        W 7684   6.528   7.689   0.835
 3621W        W 7685   9.753   2.664   2.503
 3622W        W 7686   8.080  10.408   2.777
 3623W        W 7687  10.022   0.022   8.443
 3624W        W 7688   6.396   9.285   2.304
 3625W        W 7689   4.134   4.283   8.545
 3626W        W 7690   1.095   6.450   2.112
 3627W        W 7691   1.984   8.956   1.364
 3628W        W 7692   4.239   7.026   8.931
 3629W        W 7693   2.118   0.774   1.869
 3630W        W 7694   9.939   0.842   9.003
 3631W        W 7695   6.984   4.968   3.366
 3632W        W 7696   5.241   5.295   0.956
 3633W        W 7697   8.792   9.952  11.270
 3634W        W 7698   8.599   5.699  10.027
 3635W        W 7699   4.693   0.820   9.154
 3636W        W 7700   4.279   9.492   0.377
 3637W        W 7701   0.350   9.441   9.106
 3638W        W 7702   5.655   8.270   1.686
 3639W        W 7703   7.074   4.527   2.942
 3640W        W 7704   4.729   8.116   9.011
 3641W        W 7705   2.124   5.555   1.809
 3642W        W 7706  10.288   3.591   2.467
 3643W        W 7707   5.557   2.258  10.976
 3644W        W 7708   7.439   5.630   8.659
 3645W        W 7709   5.141   3.520   2.278
 3646W        W 7710   0.691   9.432  11.986
 3647W        W 7711   0.897   6.007   8.781
 3648W        W 7712   7.337   8.922   2.387
 3649W        W 7713   3.739   7.949   0.891
 3650W        W 7714   1.775   3.389   2.150
 3651W        W 7715   0.817   0.756   0.499
 3652W        W 7716   6.926   3.455   1.302
 3653W        W 7717   3.848   3.193   0.018
 3654W        W 7718   8.024   7.945   9.423
 3655W        W 7719   4.324   0.150  10.439
 3656W        W 7720   0.971   4.692  11.239
 3657W        W 7721   5.340   6.595   8.028
 3658W        W 7722   3.718   4.833   0.412
 3659W        W 7723   2.863   5.950   1.556
 3660W        W 7724   7.193   8.076   0.299
 3661W        W 7725   3.169   1.373   0.686
 3662W        W 7726   5.023   6.660  11.831
 3663W        W 7727   8.029   1.238   1.395
 3664W        W 7728   7.067   3.607   2.763
 3665W        W 7729   1.176   9.847  10.247
 3666W        W 7730   5.087   0.874   0.470
 3667W        W 7731  10.458   6.655  10.054
 3668W        W 7732   6.069   5.986   0.819
 3669W        W 7733   7.131   0.486   1.545
 3670W        W 7734   4.285  10.475   3.125
 3671W        W 7735   4.029   1.774   0.706
 3672W        W 7736   0.468   9.515  11.501
 3673W        W 7737   6.049   3.635   8.853
 3674W        W 7738   0.515   2.789   1.958
 3675W        W 7739   8.879   7.146  10.704
 3676W        W 7740   9.082   2.163   1.081
 3677W        W 7741   6.851   8.040   2.031
 3678W        W 7742   5.731   7.568  10.936
 3679W        W 7743   0.765   0.528  10.849
 3680W        W 7744   5.548   6.920  11.483
 3681W        W 7745   1.970   9.518   3.295
 3682W        W 7746   5.042   8.793   1.888
 3683W        W 7747   2.273   3.318   1.341
 3684W        W 7748   0.732   0.367   2.760
 3685W        W 7749   1.256   6.936   3.484
 3686W        W 7750   5.132   4.127   3.754
 3687W        W 7751   6.282   3.278   1.785
 3688W        W 7752   8.831   7.611   0.476
 3689W        W 7753   5.862   3.064   3.206
 3690W        W 7754   3.090   9.903   1.401
 3691W        W 7755  10.435   8.398   9.529
 3692W        W 7756   7.458   8.160   8.923
 3693W        W 7757   5.949   4.930  11.914
 3694W        W 7758   1.932   3.410   2.819
 3695W        W 7759   0.897   8.486   2.891
 3696W        W 7760   0.066   7.707  11.687
 3697W        W 7761   4.085   3.383   8.917
 3698W        W 7762   8.391   4.568   9.408
 3699W        W 7763   4.536   2.123   9.347
 3700W        W 7764   2.626   4.289  11.023
 3701W        W 7765   2.855   6.661  10.029
 3702W        W 7766   4.966   2.811   9.124
 3703W        W 7767   8.792   4.822   3.597
 3704W        W 7768   3.276  10.165   0.976
 3705W        W 7769   1.889   2.838   0.369
 3706W        W 7770   7.414  10.156  10.996
 3707W        W 7771  10.123   7.822   0.882
 3708W        W 7772   1.481   4.145  11.365
 3709W        W 7773   6.855   5.536   2.371
 3710W        W 7774   9.463   6.336   0.120
 3711W        W 7775   2.381   1.333   3.509
 3712W        W 7776   2.242   2.190  10.020
 3713W        W 7777   8.559   4.548  11.470
 3714W        W 7778   8.516   8.070   9.230
 3715W        W 7779   4.993   6.190   8.713
 3716W        W 7780   5.182  10.047   2.473
 3717W        W 7781   1.111   4.138   3.636
 3718W        W 7782   7.473   1.642   2.806
 3719W        W 7783   7.460   4.761   2.694
 3720W        W 7784   0.677   0.871   9.864
 3721W        W 7785   5.068   2.453  11.026
 3722W        W 7786   7.573   2.194   0.236
 3723W        W 7787   1.380   2.414   0.430
 3724W        W 7788   1.236   8.472   9.794
 3725W        W 7789   8.172   0.982  10.041
 3726W        W 7790   5.968   8.655  10.472
 3727W        W 7791   8.885   8.496   0.438
 3728W        W 7792   3.172   2.259   3.602
 3729W        W 7793   0.935   6.054  11.886
 3730W        W 7794  10.116   7.946  11.574
 3731W        W 7795   5.637   3.892   8.630
 3732W        W 7796   6.954   7.535   2.682
 3733W        W 7797   6.847   5.140  11.744
 3734W        W 7798   9.829   6.464   0.443
 3735W        W 7799   0.995   2.601  10.232
 3736W        W 7800   3.599   0.305   2.991
 3737W        W 7801   8.645   9.717   1.131
 3738W        W 7802   6.158   5.953   3.798
 3739W        W 7803   6.689   7.572   2.202
 3740W        W 7804   5.324   4.075   9.436
 3741W        W 7805   9.490   2.269   0.288
 3742W        W 7806   0.518   7.686   0.957
 3743W        W 7807   7.000   1.819   2.731
 3744W        W 7808   8.218   0.128  10.676
 3745W        W 7809   3.754   1.376  10.931
 3746W        W 7810   7.810   3.602   0.029
 3747W        W 7811   4.131   0.844   3.090
 3748W        W 7812   3.606   5.534   9.325
 3749W        W 7813   2.703   6.633   9.038
 3750W        W 7814   8.915   2.997   1.411
 3751W        W 7815   5.495   2.639  10.533
 3752W        W 7816   5.192   3.057   0.222
 3753W        W 7817   4.267   1.637   9.330
 3754W        W 7818   4.311   5.126  10.499
 3755W        W 7819   1.287   7.663   3.306
 3756W        W 7820  10.204   2.986   3.088
 3757W        W 7821   5.728   7.411   9.041
 3758W        W 7822   4.820   8.003   2.855
 3759W        W 7823   3.726   4.199   9.050
 3760W        W 7824   4.793   2.869  11.908
 3761W        W 7825   4.679   5.093   2.025
 3762W        W 7826   1.381   5.315   8.668
 3763W        W 7827   3.828   3.233  11.082
 3764W        W 7828   5.567   4.125   8.016
 3765W        W 7829   1.463   3.091  10.870
 3766W        W 7830   0.041   4.245   9.078
 3767W        W 7831   2.413   8.875   9.689
 3768W        W 7832   9.929   1.339   1.011
 3769W        W 7833   3.150   1.161  10.594
 3770W        W 7834   6.777   0.448   1.166
 3771W        W 7835   7.887   7.447   0.290
 3772W        W 7836   7.933   1.860  10.572
 3773W        W 7837   1.516   7.735  11.364
 3774W        W 7838   0.020  10.232   3.113
 3775W        W 7839   4.166   1.342   2.779
 3776W        W 7840   0.968   4.932   1.735
 3777W        W 7841   5.555   5.677   0.158
 3778W        W 7842   2.773   7.449   1.266
 3779W        W 7843  10.288   1.820  10.291
 3780W        W 7844   1.540   4.479   9.694
 3781W        W 7845   8.643   8.292   1.428
 3782W        W 7846   7.822   0.451  10.571
 3783W        W 7847   5.160   3.618  10.350
 3784W        W 7848   4.980   5.479   9.967
 3785W        W 7849   1.589   5.644   0.978
 3786W        W 7850   1.954   2.893   2.057
 3787W        W 7851  10.204  10.084   2.265
 3788W        W 7852   1.803   4.100   9.925
 3789W        W 7853   6.170   5.507   3.523
 3790W        W 7854   5.553   6.960   1.447
 3791W        W 7855   7.643   5.014   1.699
 3792W        W 7856   5.687   5.604  10.304
 3793W        W 7857   1.915   4.308   2.318
 3794W        W 7858   7.695   3.771   0.510
 3795W        W 7859   3.012   9.042  10.416
 3796W        W 7860   0.055   4.625  10.830
 3797W        W 7861   3.534   9.959   2.289
 3798W        W 7862   3.281   0.448   1.670
 3799W        W 7863   9.795   7.417   8.775
 3800W        W 7864   2.484   4.788   8.890
 3801W        W 7865   0.209   1.346  10.879
 3802W        W 7866   6.930   5.428   0.534
 3803W        W 7867   0.882   9.935   1.181
 3804W        W 7868   6.408   8.852   0.452
 3805W        W 7869   7.144   7.609   9.693
 3806W        W 7870   7.440   3.207  11.275
 3807W        W 7871   9.836   1.821   1.871
 3808W        W 7872   3.089   7.952  11.099
 3809W        W 7873   0.388   7.420   2.799
 3810W        W 7874   4.495   6.439   1.209
 3811W        W 7875   4.992   3.026   9.820
 3812W        W 7876   0.896   3.926   1.253
 3813W        W 7877   2.008   9.553  10.983
 3814W        W 7878   1.157   2.233   1.791
 3815W        W 7879   7.970   2.380  10.555
 3816W        W 7880   5.718   1.604  11.759
 3817W        W 7881   5.536   1.276   3.044
 3818W        W 7882  10.240   7.737   2.176
 3819W        W 7883   9.374   5.434   2.152
 3820W        W 7884   0.868   4.131   0.198
 3821W        W 7885   0.356   7.229  10.135
 3822W        W 7886   4.714   5.054  10.821
 3823W        W 7887  10.349   3.439   9.704
 3824W        W 7888   9.371   2.664   2.169
 3825W        W 7889   4.977   6.453   2.854
 3826W        W 7890   7.455   6.632   8.951
 3827W        W 7891   8.937   5.599   9.644
 3828W        W 7892   7.328   5.202  10.481
 3829W        W 7893   8.373   4.237  10.856
 3830W        W 7894   8.200   1.819  11.577
 3831W        W 7895  10.477   7.102  11.929
 3832W        W 7896   3.254   7.208   2.316
 3833W        W 7897   6.201   0.470   3.394
 3834W        W 7898   9.405   3.376  10.500
 3835W        W 7899   0.793   0.250   9.458
 3836W        W 7900   8.305   9.893   8.926
 3837W        W 7901   5.923   0.413   2.829
 3838W        W 7902   0.375   0.202  10.776
 3839W        W 7903   9.386   9.208  11.175
 3840W        W 7904   2.022   9.396   1.894
 3841W        W 7905   0.866   6.524  10.046
 3842W        W 7906   7.023   5.627  11.035
 3843W        W 7907   2.114   5.217   2.998
 3844W        W 7908   8.702   7.224   8.981
 3845W        W 7909   4.747  10.296   2.427
 3846W        W 7910   7.595   9.967  10.104
 3847W        W 7911   2.376   8.478   2.976
 3848W        W 7912   8.746   2.003   0.345
 3849W        W 7913   0.171   5.612   0.025
 3850W        W 7914   6.420   8.931   1.417
 3851W        W 7915   9.176   5.764  10.499
 3852W        W 7916   7.789   4.130   0.000
 3853W        W 7917   2.392   6.004   1.814
 3854W        W 7918   4.183   1.853   2.820
 3855W        W 7919   5.945   6.882   3.845
 3856W        W 7920   2.109   7.145   9.866
 3857W        W 7921   4.021   7.911   2.275
 3858W        W 7922   4.679   0.890   8.626
 3859W        W 7923   7.328   9.951   1.634
 3860W        W 7924   7.049   2.236   3.027
 3861W        W 7925   1.934   3.343  11.031
 3862W        W 7926   1.183   9.705   8.818
 3863W        W 7927   7.437   3.726  11.135
 3864W        W 7928   5.951   3.469   1.400
 3865W        W 7929   2.386   3.173   2.872
 3866W        W 7930   7.379   0.002   0.294
 3867W        W 7931   7.849   6.511   2.760
 3868W        W 7932   2.882   6.958  11.832
 3869W        W 7933   4.969   4.671   0.429
 3870W        W 7934   2.388   4.837   2.725
 3871W        W 7935   0.649   0.617   2.297
 3872W        W 7936   9.969   4.525  10.472
 3873W        W 7937   7.138   0.464   3.318
 3874W        W 7938   1.661   1.644  11.793
 3875W        W 7939  10.212   0.627   1.414
 3876W        W 7940   9.394   4.636   9.784
 3877W        W 7941   2.823   7.036   0.415
 3878W        W 7942   8.411   6.504   0.837
 3879W        W 7943   1.451   4.158   3.249
 3880W        W 7944   3.604   6.478   1.705
 3881W        W 7945   1.294   0.225   9.013
 3882W        W 7946  10.253   6.726   0.337
 3883W        W 7947   6.942   3.684   0.351
 3884W        W 7948   4.410   0.106   2.641
 3885W        W 7949   7.481   8.797  10.759
 3886W        W 7950   3.396   1.027  11.024
 3887W        W 7951   4.648   2.348  10.726
 3888W        W 7952   4.941   8.472  10.438
 3889W        W 7953   9.369   8.438   3.227
 3890W        W 7954   4.715   9.400   2.947
 3891W        W 7955   6.143   4.065   8.613
 3892W        W 7956   9.291   7.929   8.920
 3893W        W 7957   8.107   8.359   9.095
 3894W        W 7958   7.151   2.275   1.485
 3895W        W 7959   3.372   0.582   9.785
 3896W        W 7960   2.314   7.805  11.572
 3897W        W 7961   0.448   5.206   0.182
 3898W        W 7962   1.959   4.567   0.883
 3899W        W 7963   2.819   5.964   0.062
 3900W        W 7964   6.190   1.924   3.480
 3901W        W 7965   2.592   2.542  10.271
 3902W        W 7966   6.678   0.306   9.367
 3903W        W 7967   2.929  10.335  10.653
 3904W        W 7968   8.647   4.222   1.231
 3905W        W 7969  10.318   4.672   8.835
 3906W        W 7970   6.741   1.246  10.529
 3907W        W 7971   7.543   5.640   3.094
 3908W        W 7972   5.274   6.181   9.132
 3909W        W 7973   2.365   6.764   1.154
 3910W        W 7974   4.734   3.290   0.210
 3911W        W 7975   6.042   7.534   1.684
 3912W        W 7976   6.991   6.449   1.756
 3913W        W 7977   9.677   3.314   8.555
 3914W        W 7978   4.159   1.252  11.827
 3915W        W 7979   7.959   7.480   2.642
 3916W        W 7980   7.803   9.926   9.064
 3917W        W 7981  10.219   3.656  11.309
 3918W        W 7982   2.631   5.094   2.329
 3919W        W 7983   1.284   1.872   8.999
 3920W        W 7984   5.080   4.629  11.036
 3921W        W 7985   9.406   6.402   1.741
 3922W        W 7986   5.154   8.554  11.108
 3923W        W 7987   3.711  10.430   2.219
 3924W        W 7988   9.399   7.174   1.485
 3925W        W 7989   7.440   2.076   0.706
 3926W        W 7990   5.173   7.686  11.054
 3927W        W 7991  10.381   0.703   9.572
 3928W        W 7992   4.050  10.402   0.897
 3929W        W 7993   7.561   3.568   9.952
 3930W        W 7994   4.736   1.719   9.070
 3931W        W 7995   0.230   8.643  11.390
 3932W        W 7996   0.893   5.697   0.287
 3933W        W 7997   7.037   6.692   2.353
 3934W        W 7998  10.089   3.727  11.801
 3935W        W 7999   5.665   0.773   2.184
 3936W        W 8000   4.278   9.095  10.532
 3937W        W 8001   1.267  10.430   9.434
 3938W        W 8002   6.982   9.946  10.767
 3939W        W 8003   7.931   4.088   2.364
 3940W        W 8004   2.708   0.669   3.384
 3941W        W 8005   1.707   8.316   1.775
 3942W        W 8006   9.005   0.891   2.839
 3943W        W 8007   6.962   9.042   2.726
 3944W        W 8008   2.632   2.786   2.684
 3945W        W 8009   4.618   3.648   1.568
 3946W        W 8010   0.476   0.777  11.984
 3947W        W 8011   0.345   5.357   9.883
 3948W        W 8012   2.285   8.989   1.775
 3949W        W 8013   3.716   8.980   1.363
 3950W        W 8014   8.479   0.330   9.397
 3951W        W 8015   7.010   0.314  11.247
 3952W        W 8016  10.354   4.976   2.409
 3953W        W 8017   4.595   6.888  10.271
 3954W        W 8018   7.211   8.999   0.278
 3955W        W 8019   6.214   4.333  11.753
 3956W        W 8020   4.120   1.093   8.521
 3957W        W 8021   1.934  10.414  10.653
 3958W        W 8022   7.953   0.004   0.375
 3959W        W 8023   4.395   5.772   8.241
 3960W        W 8024   9.890  10.332  11.989
 3961W        W 8025   6.114   2.325  11.264
 3962W        W 8026   8.929   4.757   2.169
 3963W        W 8027   5.212   6.646   8.514
 3964W        W 8028   6.930   2.335  10.552
 3965W        W 8029   1.061   9.105   0.239
 3966W        W 8030   5.469   4.683   0.338
 3967W        W 8031   6.965   7.712   0.580
 3968W        W 8032   9.990   3.185   2.642
 3969W        W 8033   2.408   2.927  11.839
 3970W        W 8034   2.683   6.178   3.513
 3971W        W 8035   9.398   9.022   2.565
 3972W        W 8036   6.854   9.057   1.151
 3973W        W 8037   2.344   7.652   1.729
 3974W        W 8038   9.524   8.297   9.230
 3975W        W 8039   3.687  10.324  10.808
 3976W        W 8040   9.772   4.282  10.910
 3977W        W 8041   6.493   1.455   2.790
 3978W        W 8042   5.665   2.369   2.344
 3979W        W 8043   1.203   9.566  11.982
 3980W        W 8044   6.276   7.467   1.241
 3981W        W 8045   5.561   7.361   2.753
 3982W        W 8046   8.168   0.192   8.514
 3983W        W 8047   1.685   0.464   2.544
 3984W        W 8048   7.397   5.207   8.969
 3985W        W 8049   2.717   3.601   9.274
 3986W        W 8050   2.728   0.275  10.888
 3987W        W 8051   5.081   2.248   9.187
 3988W        W 8052   2.348  10.302   2.991
 3989W        W 8053   4.289   1.691   1.931
 3990W        W 8054   4.347   6.616   9.699
 3991W        W 8055   0.787   8.856   9.870
 3992W        W 8056   6.924   9.875  11.273
 3993W        W 8057   7.236   1.730  11.326
 3994W        W 8058   9.311   5.630   9.281
 3995W        W 8059   6.211   3.125   3.563
 3996W        W 8060   0.763   8.566   1.943
 3997W        W 8061   9.254   1.914   8.633
 3998W        W 8062   4.755   8.870  11.278
 3999W        W 8063   5.267   9.884  10.077
 4000W        W 8064   1.379   7.990   1.515
 4001W        W 8065   1.230   2.924   0.399
 4002W        W 8066   1.746   5.973  10.211
 4003W        W 8067   9.363   0.703   1.958
 4004W        W 8068   2.256   2.239  11.515
 4005W        W 8069   4.544   3.911  11.020
 4006W        W 8070   0.895   7.022  10.783
 4007W        W 8071   1.517   0.266   3.389
 4008W        W 8072   0.559   1.799   9.840
 4009W        W 8073   9.497   7.103   0.974
 4010W        W 8074   0.332   7.336   1.474
 4011W        W 8075   3.205   4.817   1.277
 4012W        W 8076   2.824   5.918   2.103
 4013W        W 8077   4.260   7.931   8.885
 4014W        W 8078   6.002   4.329   8.192
 4015W        W 8079   6.485   3.340   0.568
 4016W        W 8080   2.875   7.816   8.609
 4017W        W 8081   7.107   0.940  11.863
 4018W        W 8082   3.170   0.256   9.399
 4019W        W 8083   2.697   9.946   2.795
 4020W        W 8084   8.536   7.970   3.208
 4021W        W 8085   6.984   9.510   2.962
 4022W        W 8086   6.092   7.113   1.989
 4023W        W 8087   6.622   7.400   3.091
 4024W        W 8088   1.160   0.714   2.202
 4025W        W 8089   4.551   9.778  11.782
 4026W        W 8090   0.027   4.620  10.314
 4027W        W 8091  10.484   7.578   1.214
 4028W        W 8092   2.636   4.355  11.537
 4029W        W 8093   5.212   1.711   9.835
 4030W        W 8094   4.540   0.393   9.446
 4031W        W 8095   5.108   1.184   2.323
 4032W        W 8096   6.133   7.275  10.817
 4033W        W 8097   0.410   0.674   1.848
 4034W        W 8098   5.703   5.183   1.634
 4035W        W 8099   4.929   0.453   8.629
 4036W        W 8100   7.974   9.391   0.577
 4037W        W 8101   4.222   5.639  10.473
 4038W        W 8102   9.710   8.937  10.468
 4039W        W 8103   4.252   6.200  10.524
 4040W        W 8104   8.553   9.179   3.630
 4041W        W 8105   0.745   3.572  10.286
 4042W        W 8106   2.295   7.681   1.219
 4043W        W 8107   1.007   8.738   9.420
 4044W        W 8108   4.586   4.068   8.782
 4045W        W 8109   3.356   3.821   1.333
 4046W        W 8110   7.548   2.772   1.462
 4047W        W 8111   9.574   5.555  10.252
 4048W        W 8112   3.169   6.543   2.957
 4049W        W 8113   9.523   9.369  10.113
 4050W        W 8114   2.556   7.662   9.000
 4051W        W 8115   7.488   3.644  11.632
 4052W        W 8116  10.368   5.706   1.192
 4053W        W 8117   4.615   4.683   3.454
 4054W        W 8118   2.786   1.325  10.935
 4055W        W 8119   7.880   0.257   1.621
 4056W        W 8120   1.549   5.657  10.549
 4057W        W 8121   7.540   7.070   0.171
 4058W        W 8122   0.409   9.027  10.878
 4059W        W 8123   2.872   7.499  11.169
 4060W        W 8124   6.563   9.451   1.328
 4061W        W 8125   5.644  10.434   1.926
 4062W        W 8126   7.422   5.324   9.517
 4063W        W 8127   8.024   2.290   1.396
 4064W        W 8128   6.022   3.678   9.934
 4065W        W 8129   5.820   7.481   0.328
 4066W        W 8130   3.432   7.955   1.893
 4067W        W 8131   5.734   6.914   9.196
 4068W        W 8132   6.058   9.086  10.845
 4069W        W 8133   8.452   6.446   2.108
 4070W        W 8134   0.350   8.565   1.673
 4071W        W 8135   6.919   4.992   2.774
 4072W        W 8136   4.121   3.898   8.919
 4073W        W 8137   9.047   4.031   1.522
 4074W        W 8138   4.856   6.833   8.092
 4075W        W 8139   6.143   1.392  11.240
 4076W        W 8140   7.946   8.977   2.980
 4077W        W 8141   3.259   7.120   0.736
 4078W        W 8142   4.964   0.417  10.785
 4079W        W 8143   4.058   3.943   1.381
 4080W        W 8144   6.532   2.976   0.240
 4081W        W 8145   2.338   3.636   3.061
 4082W        W 8146   1.674   7.156   0.573
 4083W        W 8147   6.030   3.154  11.107
 4084W        W 8148   4.711   3.795   3.006
 4085W        W 8149  10.284   4.101   2.837
 4086W        W 8150   7.977   3.626   3.260
 4087W        W 8151   8.450   0.672   3.315
 4088W        W 8152   8.521   1.721   3.052
 4089W        W 8153   1.368   6.461  10.847
 4090W        W 8154   4.074   5.632   1.631
 4091W        W 8155   3.263   2.444   3.153
 4092W        W 8156   2.667   9.287   9.870
 4093W        W 8157   6.201   1.762   9.950
 4094W        W 8158   0.756   4.097   1.715
 4095W        W 8159   5.493   7.040   8.705
 4096W        W 8160   6.170   8.553   0.831
 4097W        W 8161   9.191   5.946   9.982
 4098W        W 8162   3.785   3.573   1.156
 4099W        W 8163   9.065   4.612   2.642
 4100W        W 8164   9.841   0.925   1.269
 4101W        W 8165   5.035   9.503   9.253
 4102W        W 8166   2.384   2.591  10.770
 4103W        W 8167   1.371   6.565   0.901
 4104W        W 8168   2.913   8.922   9.595
 4105W        W 8169   0.991   3.813   3.274
 4106W        W 8170   4.210   1.239   1.706
 4107W        W 8171   0.704   7.307   8.904
 4108W        W 8172   5.569   3.821   1.420
 4109W        W 8173   9.048   0.319   9.978
 4110W        W 8174   0.994   3.051   2.861
 4111W        W 8175   2.936   7.174   2.722
 4112W        W 8176   3.152   3.826   9.084
 4113W        W 8177   8.352   0.311   2.951
 4114W        W 8178   9.782   9.001  11.516
 4115W        W 8179   5.023   6.688   0.777
 4116W        W 8180  10.493   2.813   1.947
 4117W        W 8181   8.643   6.663  10.784
 4118W        W 8182   4.282   9.121   2.786
 4119W        W 8183   9.985   3.042   9.331
 4120W        W 8184   7.472   9.320  10.692
 4121W        W 8185   5.975   5.285  11.501
 4122W        W 8186   9.431   4.284  10.544
 4123W        W 8187   6.683   4.285   2.307
 4124W        W 8188   3.724   9.841  10.296
 4125W        W 8189   7.305   2.178   9.338
 4126W        W 8190   9.742   0.768   0.231
 4127W        W 8191   5.065   3.733  10.997
 4128W        W 8192   0.483   8.259  10.242
 4129W        W 8193   0.811   7.817   2.692
 4130W        W 8194   5.150   3.083   3.063
 4131W        W 8195   9.931   0.282   0.737
 4132W        W 8196   7.489   6.315   0.022
 4133W        W 8197   3.601   1.122   9.891
 4134W        W 8198   8.284   4.280   9.828
 4135W        W 8199   2.254   3.255  11.471
 4136W        W 8200   4.145   6.178   8.891
 4137W        W 8201   4.597   4.654   0.100
 4138W        W 8202   7.907   1.293   8.880
 4139W        W 8203   9.533   0.853   2.732
 4140W        W 8204   6.649   2.289   1.813
 4141W        W 8205   4.773   1.876   1.396
 4142W        W 8206   5.685  10.250   3.333
 4143W        W 8207   4.341   7.437   9.441
 4144W        W 8208   5.798   3.179   1.882
 4145W        W 8209  10.424   3.286  10.607
 4146W        W 8210   5.164   9.070  10.972
 4147W        W 8211   8.621   2.891  11.005
 4148W        W 8212   5.545   0.679   1.249
 4149W        W 8213   4.211   7.764  10.311
 4150W        W 8214   2.405   5.636   8.388
 4151W        W 8215   1.362   6.117   2.410
 4152W        W 8216   4.701   4.962   0.732
 4153W        W 8217   0.298   7.979  10.623
 4154W        W 8218   7.442   6.074   0.909
 4155W        W 8219   4.582   5.223   2.598
 4156W        W 8220   5.241  10.056  10.564
 4157W        W 8221   5.758   6.223   9.874
 4158W        W 8222  10.428   1.112   2.943
 4159W        W 8223   7.566   1.142   3.438
 4160W        W 8224   5.667   9.028  10.185
 4161W        W 8225   2.701   5.723   9.062
 4162W        W 8226   3.638   1.637   9.905
 4163W        W 8227   5.712   2.385   1.401
 4164W        W 8228   3.406   5.775   9.977
 4165W        W 8229   8.029   2.938   0.677
 4166W        W 8230   3.406   6.113  11.397
 4167W        W 8231   2.440   6.489   8.621
 4168W        W 8232   2.390   1.953   1.492
 4169W        W 8233   4.576   5.600   1.810
 4170W        W 8234   6.878   2.146   9.596
 4171W        W 8235   0.373   0.029  11.351
 4172W        W 8236   8.369   6.935   1.997
 4173W        W 8237   6.446   3.361   1.308
 4174W        W 8238   9.392   6.213  10.404
 4175W        W 8239   9.068   6.855   9.047
 4176W        W 8240   2.441   2.902   1.659
 4177W        W 8241   0.744   8.339   9.804
 4178W        W 8242   1.943   8.451   2.669
 4179W        W 8243   2.733   9.244   8.846
 4180W        W 8244   8.924   9.101   9.585
 4181W        W 8245   6.000   6.754  11.597
 4182W        W 8246   8.679   4.988   9.348
 4183W        W 8247   5.054   2.734   3.420
 4184W        W 8248   1.705   3.204   1.683
 4185W        W 8249   4.300   6.449  11.000
 4186W        W 8250   2.685   9.103  11.790
 4187W        W 8251   0.777   9.411   1.901
 4188W        W 8252   7.459  10.303   2.128
 4189W        W 8253   9.763   4.328  10.015
 4190W        W 8254   4.109   0.404   3.373
 4191W        W 8255   4.530   8.935   0.658
 4192W        W 8256   7.250   5.747   2.152
 4193W        W 8257   0.773   3.736  10.769
 4194W        W 8258   3.132   2.284   2.181
 4195W        W 8259  10.424   9.863   1.430
 4196W        W 8260   5.898   9.601   3.606
 4197W        W 8261   6.947   8.133  10.785
 4198W        W 8262   0.777   5.173   2.137
 4199W        W 8263   0.523   1.909   2.236
 4200W        W 8264   1.161   6.401   8.564
 4201W        W 8265   4.489   1.715   2.403
 4202W        W 8266   0.814   3.057   8.965
 4203W        W 8267   2.744   6.471   0.846
 4204W        W 8268   0.506   7.716  11.412
 4205W        W 8269   3.712   0.451   1.978
 4206W        W 8270   0.837   1.790  11.401
 4207W        W 8271   4.937   4.202   9.125
 4208W        W 8272   7.750   0.808   1.785
 4209W        W 8273   5.508   6.718   3.565
 4210W        W 8274   1.253   6.078   9.926
 4211W        W 8275   9.997   4.025   0.214
 4212W        W 8276   8.430   1.182   3.267
 4213W        W 8277  10.244   5.477   2.662
 4214W        W 8278   5.782   7.097  10.050
 4215W        W 8279   7.482   2.725   1.971
 4216W        W 8280   9.182  10.288   9.868
 4217W        W 8281   0.316   5.440  11.060
 4218W        W 8282   4.789   7.946  10.326
 4219W        W 8283   8.856   1.454   9.188
 4220W        W 8284   1.213   3.979   1.929
 4221W        W 8285   3.736   5.839  11.724
 4222W        W 8286   6.569   8.356   2.711
 4223W        W 8287   3.236   6.966   9.040
 4224W        W 8288   1.357   2.274  11.884
 4225W        W 8289   7.834   9.544  10.379
 4226W        W 8290   6.752   4.017   9.320
 4227W        W 8291   8.392   2.615  11.907
 4228W        W 8292   8.042   9.994   0.406
 4229W        W 8293   7.587   6.619   0.471
 4230W        W 8294   8.741   9.539   2.249
 4231W        W 8295   4.696   4.178   3.375
 4232W        W 8296   6.100   8.446   9.284
 4233W        W 8297   3.738   1.326   1.936
 4234W        W 8298   0.869   6.915   9.219
 4235W        W 8299   7.865   1.811   0.065
 4236W        W 8300   6.675   6.496  11.359
 4237W        W 8301  10.414   8.298   3.176
 4238W        W 8302   9.641   3.722   8.878
 4239W        W 8303   4.228   7.408  11.275
 4240W        W 8304  10.412   9.410   0.590
 4241W        W 8305   4.701   8.925   3.123
 4242W        W 8306   3.201   3.721  10.086
 4243W        W 8307   6.065   9.583  10.969
 4244W        W 8308  10.483   9.704  11.429
 4245W        W 8309   1.560   3.735   2.963
 4246W        W 8310   7.629   1.333  10.621
 4247W        W 8311   8.364   7.094  10.761
 4248W        W 8312   4.349   5.272   8.442
 4249W        W 8313   2.332   3.927   8.825
 4250W        W 8314   4.749   6.042   1.013
 4251W        W 8315   1.899   3.060  11.903
 4252W        W 8316   3.316   7.149  10.457
 4253W        W 8317   9.335   2.823   1.683
 4254W        W 8318   3.513   2.705   2.325
 4255W        W 8319   4.725   7.030   2.494
 4256W        W 8320   6.097   2.233  10.143
 4257W        W 8321   1.847   6.001   1.809
 4258W        W 8322   7.818   9.735  11.649
 4259W        W 8323   6.681   6.159  11.959
 4260W        W 8324   9.376   9.049   1.332
 4261W        W 8325   9.435   0.021   2.637
 4262W        W 8326   1.940   9.757   0.695
 4263W        W 8327   2.061   9.946  10.404
 4264W        W 8328   0.384   2.892   0.701
 4265W        W 8329   2.177   4.500  10.857
 4266W        W 8330   3.280   4.437   3.607
 4267W        W 8331   0.038   2.823   0.331
 4268W        W 8332  10.301   8.217  10.730
 4269W        W 8333   5.240   9.481   0.780
 4270W        W 8334   4.816   2.332   1.185
 4271W        W 8335   1.715   8.477  11.780
 4272W        W 8336   3.222   7.215   1.417
 4273W        W 8337   0.273   5.245   3.604
 4274W        W 8338   8.926   6.224   8.535
 4275W        W 8339   6.945   4.076   0.687
 4276W        W 8340   1.344   7.850   0.306
 4277W        W 8341   2.855   9.831   1.866
 4278W        W 8342   2.112   6.634  11.804
 4279W        W 8343   1.935   9.442  11.476
 4280W        W 8344   5.956   4.314   9.080
 4281W        W 8345   8.008   9.691   9.887
 4282W        W 8346   8.140   8.602   2.659
 4283W        W 8347   9.377   1.723   9.838
 4284W        W 8348   3.611   3.548   2.148
 4285W        W 8349   3.554   9.540   9.906
 4286W        W 8350   1.389   3.190  11.850
 4287W        W 8351   2.183   3.734   9.815
 4288W        W 8352   3.219   8.879   3.432
 4289W        W 8353   8.374   5.248  10.964
 4290W        W 8354   3.226   0.681   2.975
 4291W        W 8355   3.868   4.676   8.296
 4292W        W 8356  10.232   6.081   2.883
 4293W        W 8357   6.551   4.883   1.273
 4294W        W 8358   3.744   4.537   1.953
 4295W        W 8359   2.628   1.958   8.928
 4296W        W 8360   4.410  10.108  10.433
 4297W        W 8361   7.075   2.225  10.074
 4298W        W 8362   9.578   2.985  10.834
 4299W        W 8363   1.690   7.560   9.069
 4300W        W 8364   6.709   6.146   4.007
 4301W        W 8365   1.798   7.044  11.752
 4302W        W 8366   0.013  10.227   9.585
 4303W        W 8367   0.272   3.105   1.193
 4304W        W 8368   9.488   5.641   0.715
 4305W        W 8369   8.999   5.031   8.939
 4306W        W 8370   8.547   6.610   1.647
 4307W        W 8371   0.909   4.751  10.731
 4308W        W 8372   2.348   4.756  11.252
 4309W        W 8373   3.836   8.296   9.534
 4310W        W 8374   2.083   1.019   1.306
 4311W        W 8375   6.353   9.768   9.227
 4312W        W 8376   5.061   4.235   8.631
 4313W        W 8377   6.147   2.226   1.664
 4314W        W 8378   4.658   5.892  10.499
 4315W        W 8379  10.319   2.984  11.898
 4316W        W 8380   8.422   4.268   0.253
 4317W        W 8381   7.838   9.007   2.485
 4318W        W 8382   2.838   8.530   2.735
 4319W        W 8383   3.385  10.354   2.907
 4320W        W 8384   0.017  10.487   0.769
 4321W        W 8385   2.764  10.336  11.669
 4322W        W 8386   8.197   6.654   3.087
 4323W        W 8387   0.253   6.548   9.278
 4324W        W 8388   4.152   9.243   1.415
 4325W        W 8389   3.510   0.365   8.548
 4326W        W 8390   6.553   3.662   1.994
 4327W        W 8391   8.956  10.189   0.059
 4328W        W 8392   0.367   8.948   2.123
 4329W        W 8393   1.338   1.303   0.038
 4330W        W 8394   8.847   9.965   2.996
 4331W        W 8395   0.561   0.979  11.031
 4332W        W 8396   5.927   6.394   3.570
 4333W        W 8397   6.166   0.962  10.943
 4334W        W 8398   7.874   0.844   0.366
 4335W        W 8399   9.565   7.354  11.890
 4336W        W 8400   2.344   1.124   8.986
 4337W        W 8401   2.045   9.826  11.805
 4338W        W 8402   3.368   7.492  11.229
 4339W        W 8403   0.043   2.660   1.056
 4340W        W 8404   2.748   2.190  11.359
 4341W        W 8405   5.227   9.996   0.017
 4342W        W 8406   6.501   8.342   1.768
 4343W        W 8407   4.719   5.504  11.820
 4344W        W 8408   1.671   7.900   9.887
 4345W        W 8409   1.305   2.764   2.600
 4346W        W 8410  10.184   7.252   0.960
 4347W        W 8411   6.536  10.283   9.367
 4348W        W 8412   4.170   8.509   9.862
 4349W        W 8413   5.971   0.002  11.759
 4350W        W 8414   0.112   5.331   0.882
 4351W        W 8415  10.273   6.559   9.068
 4352W        W 8416   8.117   4.106   9.365
 4353W        W 8417   3.346   2.397  10.404
 4354W        W 8418   7.677   5.278  11.413
 4355W        W 8419   6.632   6.914   0.367
 4356W        W 8420   6.132   1.864   0.061
 4357W        W 8421   9.296   0.283   1.305
 4358W        W 8422   5.911   5.740   9.869
 4359W        W 8423   9.036   5.714   2.449
 4360W        W 8424   9.542  10.496   0.942
 4361W        W 8425   0.471   6.079   9.359
 4362W        W 8426   7.502   6.135   2.941
 4363W        W 8427   6.092   6.090   9.489
 4364W        W 8428   6.700   3.059   9.375
 4365W        W 8429   0.780   9.004   2.704
 4366W        W 8430   4.939   2.662   1.962
 4367W        W 8431   3.063   0.197  11.313
 4368W        W 8432   4.237   1.068  10.471
 4369W        W 8433  10.407   6.956   8.742
 4370W        W 8434   3.726   3.316   3.003
 4371W        W 8435   7.523   4.003   4.361
 4372W        W 8436   9.338   6.164  11.371
 4373W        W 8437   2.694   7.418  11.657
 4374W        W 8438   0.525   7.737  11.933
 4375W        W 8439   7.173   4.971   1.937
 4376W        W 8440   0.312   5.073   2.649
 4377W        W 8441   4.169   6.275   2.900
 4378W        W 8442   3.621   3.759  10.367
 4379W        W 8443   5.563   1.676   0.927
 4380W        W 8444   3.690   0.722   8.963
 4381W        W 8445   7.548   1.356  11.120
 4382W        W 8446   2.716   9.756   9.027
 4383W        W 8447   4.700  10.056   0.797
 4384W        W 8448   6.688   8.477   2.236
 4385W        W 8449   5.055   4.006   9.866
 4386W        W 8450   6.874   0.777   9.623
 4387W        W 8451   2.121   6.896   1.881
 4388W        W 8452   8.820   2.918  11.991
 4389W        W 8453   5.071   6.669   2.333
 4390W        W 8454   0.782   2.239   1.168
 4391W        W 8455   9.027   8.890   0.879
 4392W        W 8456   9.918   8.219   2.797
 4393W        W 8457   3.317   7.591  10.220
 4394W        W 8458   4.917   6.198  11.550
 4395W        W 8459   7.042   5.396   1.028
 4396W        W 8460   7.914   6.295   0.918
 4397W        W 8461   8.342   5.929  11.365
 4398W        W 8462   6.324   2.703  10.922
 4399W        W 8463   8.344   6.338   2.594
 4400W        W 8464  10.018   6.151  10.966
 4401W        W 8465   2.064   8.482   2.119
 4402W        W 8466   8.949   2.644   0.990
 4403W        W 8467   9.494   5.439   1.672
 4404W        W 8468   4.084   8.897   0.999
 4405W        W 8469   2.592   9.995  10.435
 4406W        W 8470   5.093   9.557   1.295
 4407W        W 8471   7.150   7.486   9.184
 4408W        W 8472  10.157   6.646  10.964
 4409W        W 8473   4.126   3.764  11.794
 4410W        W 8474   9.967   2.959   8.815
 4411W        W 8475   2.917   9.914  11.415
 4412W        W 8476   5.524   0.745   0.733
 4413W        W 8477   0.240   7.077   3.326
 4414W        W 8478   5.618  10.394   9.368
 4415W        W 8479   7.929   3.312   9.693
 4416W        W 8480   7.452   1.441   8.661
 4417W        W 8481   5.441   5.545   1.876
 4418W        W 8482   9.545   4.476   2.592
 4419W        W 8483   9.948   4.072   1.972
 4420W        W 8484   9.279   8.838  10.818
 4421W        W 8485   5.990   3.507   9.352
 4422W        W 8486   2.836   8.331   0.251
 4423W        W 8487   1.472   4.705   0.903
 4424W        W 8488   9.754   8.878  11.017
 4425W        W 8489   9.830   5.191   0.975
 4426W        W 8490   1.454   6.165   9.433
 4427W        W 8491   8.052   6.091   9.498
 4428W        W 8492   5.191   0.267  10.342
 4429W        W 8493   4.985   3.759   0.513
 4430W        W 8494   2.717   1.187  10.317
 4431W        W 8495   8.539   1.713   2.508
 4432W        W 8496   4.572   3.849  11.528
 4433W        W 8497   5.213  10.003   9.593
 4434W        W 8498   1.399   6.636   3.062
 4435W        W 8499   0.477   8.204   2.738
 4436W        W 8500   6.138   4.271   2.607
 4437W        W 8501   8.091   0.193  10.165
 4438W        W 8502   3.545   9.919   3.180
 4439W        W 8503   5.453   8.566  10.375
 4440W        W 8504   9.472   7.272   0.394
 4441W        W 8505   2.356   7.075   2.493
 4442W        W 8506   2.777   1.832   9.489
 4443W        W 8507   2.349   7.761  10.464
 4444W        W 8508   6.111   4.173   0.251
 4445W        W 8509   4.290   8.066   2.920
 4446W        W 8510   2.675   4.617   9.319
 4447W        W 8511  10.368   8.477   1.803
 4448W        W 8512   1.799   0.311   8.873
 4449W        W 8513   2.245   4.119  11.296
 4450W        W 8514   4.776   6.059   0.008
 4451W        W 8515   5.996   0.861   2.560
 4452W        W 8516   4.674   9.107   9.204
 4453W        W 8517   8.525   1.078   1.423
 4454W        W 8518   8.378   2.626   2.537
 4455W        W 8519   4.686  10.342   1.928
 4456W        W 8520   9.063   0.696  10.783
 4457W        W 8521   0.760   8.518   3.394
 4458W        W 8522   6.124   1.680   1.487
 4459W        W 8523   5.262   8.198   2.718
 4460W        W 8524   0.303   1.692   1.758
 4461W        W 8525   7.393   7.141  10.488
 4462W        W 8526   8.293   5.172   3.043
 4463W        W 8527   7.066   5.330   3.801
 4464W        W 8528  10.303   4.198  11.754
 4465W        W 8529   0.323   7.589   1.908
 4466W        W 8530   9.931   5.521   1.412
 4467W        W 8531   5.653   3.507  11.750
 4468W        W 8532   4.059   2.392  11.370
 4469W        W 8533   6.030   4.091   0.766
 4470W        W 8534   8.016   3.555  10.661
 4471W        W 8535   3.140   0.305   2.627
 4472W        W 8536   5.764   9.157  11.756
 4473W        W 8537   2.836   0.730  10.586
 4474W        W 8538   6.692   1.400   0.470
 4475W        W 8539   7.391   5.547   9.989
 4476W        W 8540   4.184   3.435   1.435
 4477W        W 8541   3.571  10.057   0.006
 4478W        W 8542   4.279   9.630   2.704
 4479W        W 8543   5.642   6.596  10.259
 4480W        W 8544   9.375   1.516  10.774
 4481W        W 8545   8.262   3.729  10.254
 4482W        W 8546   0.700   5.494  11.384
 4483W        W 8547   0.422   1.890   0.876
 4484W        W 8548   4.131   7.051   0.713
 4485W        W 8549   4.233   0.739  11.837
 4486W        W 8550   5.282   8.545   9.380
 4487W        W 8551   1.779   2.122   9.829
 4488W        W 8552   3.316   6.118   9.581
 4489W        W 8553   7.049  10.092   0.309
 4490W        W 8554   1.572   7.785   3.708
 4491W        W 8555   8.432   3.291   9.816
 4492W        W 8556   6.563   2.130  11.473
 4493W        W 8557   1.787   6.972  10.285
 4494W        W 8558   0.365   6.011   2.025
 4495W        W 8559   5.978   7.096   9.589
 4496W        W 8560   2.676   5.161   3.319
 4497W        W 8561   1.885   0.341   1.768
 4498W        W 8562   1.703   7.969  11.940
 4499W        W 8563   6.271   8.255  10.294
 4500W        W 8564   7.100   2.253   2.491
 4501W        W 8565   6.157   8.932   9.078
 4502W        W 8566   8.881   6.165  10.374
 4503W        W 8567   6.300   2.778   3.207
 4504W        W 8568   7.099   2.735   1.198
 4505W        W 8569   9.928   6.504  11.427
 4506W        W 8570   9.514   3.775   1.441
 4507W        W 8571   0.865   6.046   2.331
 4508W        W 8572   7.787   8.153   1.035
 4509W        W 8573   4.277   3.260   3.547
 4510W        W 8574   0.538   8.950   0.210
 4511W        W 8575   5.695   0.275   2.353
 4512W        W 8576   2.159   0.358  10.253
 4513W        W 8577   9.864   6.591   9.386
 4514W        W 8578   3.788   2.971   0.467
 4515W        W 8579   8.871   4.614   9.649
 4516W        W 8580   0.969   9.430  11.532
 4517W        W 8581   1.321   1.434   2.747
 4518W        W 8582   1.864   5.724   0.019
 4519W        W 8583   7.904   7.175  11.188
 4520W        W 8584   9.204   0.062   3.097
 4521W        W 8585   1.501   9.517   0.870
 4522W        W 8586   8.569   0.256   2.014
 4523W        W 8587  10.422   4.191   1.752
 4524W        W 8588   7.207   5.157   1.446
 4525W        W 8589   8.413  10.449   2.388
 4526W        W 8590   3.184   3.324  11.554
 4527W        W 8591   4.643   6.856   0.447
 4528W        W 8592   3.396   5.728  10.781
 4529W        W 8593   9.701   5.665   8.925
 4530W        W 8594   7.851   9.073  10.969
 4531W        W 8595   2.940   0.494  11.769
 4532W        W 8596   9.089   3.746   9.913
 4533W        W 8597   5.739   5.285   2.209
 4534W        W 8598   4.254  10.319   2.242
 4535W        W 8599   0.476   8.091   1.869
 4536W        W 8600   0.914   6.618  11.093
 4537W        W 8601   0.925   3.894   8.198
 4538W        W 8602   5.761   6.890   2.776
 4539W        W 8603   8.366   2.116  10.777
 4540W        W 8604   6.774   0.780  10.857
 4541W        W 8605   5.832   1.515  10.321
 4542W        W 8606   8.281   7.282  11.505
 4543W        W 8607   5.069   9.105   2.302
 4544W        W 8608   7.000   5.257   9.850
 4545W        W 8609   9.841   5.946   0.468
 4546W        W 8610   6.963   3.277   9.773
 4547W        W 8611   4.786   3.817   2.485
 4548W        W 8612   8.663   7.137   9.825
 4549W        W 8613   5.511   7.562   3.217
 4550W        W 8614   3.556   7.150  10.899
 4551W        W 8615   3.029   0.661  11.052
 4552W        W 8616   8.053   8.956  11.903
 4553W        W 8617   9.817   5.102  11.912
 4554W        W 8618   8.936   1.829   9.573
 4555W        W 8619   6.138   3.782  11.788
 4556W        W 8620   7.380   0.324  10.356
 4557W        W 8621   1.117   2.220  10.918
 4558W        W 8622   3.312   3.311   1.328
 4559W        W 8623   8.844   7.797   2.840
 4560W        W 8624   4.732   9.408   0.601
 4561W        W 8625   7.056   1.769   1.404
 4562W        W 8626   2.241   8.628  10.123
 4563W        W 8627   4.343   9.729  10.873
 4564W        W 8628   3.132   5.563   1.845
 4565W        W 8629   5.715   3.070   9.294
 4566W        W 8630   7.200   8.126  10.310
 4567W        W 8631   6.714   5.351   1.438
 4568W        W 8632   9.822   0.771  11.700
 4569W        W 8633   3.919   9.818  11.693
 4570W        W 8634   3.677   6.950   1.499
 4571W        W 8635   1.485   0.201   1.499
 4572W        W 8636   6.063   5.784  11.324
 4573W        W 8637   3.860   4.021   2.198
 4574W        W 8638   4.041   4.192   2.676
 4575W        W 8639   3.256   4.751   3.203
 4576W        W 8640   9.149   6.894   2.523
 4577W        W 8641   2.635   8.390   3.440
 4578W        W 8642   3.848   0.873   1.708
 4579W        W 8643   4.842   6.663   9.888
 4580W        W 8644   2.559   0.230  11.446
 4581W        W 8645   3.362   3.130  10.908
 4582W        W 8646   9.635   9.372   3.340
 4583W        W 8647   6.973   2.917  11.332
 4584W        W 8648   1.270   1.560   1.706
 4585W        W 8649   5.070   6.937   1.231
 4586W        W 8650   7.066   7.200   2.294
 4587W        W 8651   8.017   6.992   2.359
 4588W        W 8652   5.486   3.804   2.685
 4589W        W 8653   8.756   9.759   3.459
 4590W        W 8654   3.660   4.721   1.496
 4591W        W 8655   5.958   8.347  11.931
 4592W        W 8656   1.234   8.077   2.530
 4593W        W 8657   7.872   0.406   2.830
 4594W        W 8658   1.903   8.839  11.019
 4595W        W 8659   1.886   9.467  10.046
 4596W        W 8660   4.726   2.881   2.793
 4597W        W 8661   9.928   1.386   1.543
 4598W        W 8662   6.190   0.424   2.389
 4599W        W 8663   6.578   7.060   1.291
 4600W        W 8664   3.823   4.085   0.151
 4601W        W 8665   3.671   0.701   3.289
 4602W        W 8666   7.830   5.286   9.874
 4603W        W 8667   7.092   8.556  10.009
 4604W        W 8668   4.715   9.043  10.231
 4605W        W 8669   0.847   0.939   1.882
 4606W        W 8670   4.253   7.477   0.475
 4607W        W 8671   2.750   1.051   0.661
 4608W        W 8672   2.752   0.456   2.928
 4609W        W 8673   7.658   3.303   0.719
 4610W        W 8674   4.185   5.335  10.049
 4611W        W 8675   0.555   2.774   2.826
 4612W        W 8676   4.232   4.387   9.034
 4613W        W 8677   7.369   3.868   0.096
 4614W        W 8678   1.927   6.461  10.319
 4615W        W 8679   3.700   4.578  11.951
 4616W        W 8680   8.428   9.006   2.835
 4617W        W 8681   6.424   8.115  10.798
 4618W        W 8682  10.448   6.469  11.359
 4619W        W 8683   6.014   5.545   9.024
 4620W        W 8684   0.731   5.906   2.821
 4621W        W 8685   0.053   6.594   1.242
 4622W        W 8686   8.670  10.448  10.876
 4623W        W 8687   0.037   2.666  10.037
 4624W        W 8688   9.830   5.161  11.047
 4625W        W 8689   5.063   2.817  11.419
 4626W        W 8690   0.609   9.010  11.335
 4627W        W 8691   2.686   2.256   8.528
 4628W        W 8692   8.704   1.016   9.366
 4629W        W 8693   3.492   4.162  11.768
 4630W        W 8694   8.781   8.825  10.628
 4631W        W 8695   8.502   5.013   2.254
 4632W        W 8696   1.132   2.931   0.931
 4633W        W 8697   9.380   6.491   9.232
 4634W        W 8698   7.115   8.355   0.822
 4635W        W 8699   9.858   2.303   1.645
 4636W        W 8700   5.602   4.748   2.836
 4637W        W 8701   2.932  10.420  10.158
 4638W        W 8702   4.514   0.582   2.521
 4639W        W 8703   6.781   6.164   9.931
 4640W        W 8704   5.917   8.614   3.405
 4641W        W 8705   3.055   8.075   2.576
 4642W        W 8706   5.120   9.057   8.932
 4643W        W 8707   6.546   3.603  10.011
 4644W        W 8708   2.538   3.313   9.845
 4645W        W 8709   0.946   6.157  10.872
 4646W        W 8710   8.927   7.411   3.212
 4647W        W 8711   6.896   6.499   3.688
 4648W        W 8712  10.362   4.723   9.849
 4649W        W 8713   5.473   0.438   1.848
 4650W        W 8714   5.494   3.607   1.917
 4651W        W 8715   8.525   7.742   1.404
 4652W        W 8716   6.466   4.572   4.104
 4653W        W 8717   1.808   9.811   1.177
 4654W        W 8718   8.637   4.135   9.464
 4655W        W 8719   0.371   2.878  11.944
 4656W        W 8720   5.006   8.571   2.934
 4657W        W 8721   8.359   5.156   3.527
 4658W        W 8722   8.000  10.332   8.836
 4659W        W 8723  10.434   2.490  11.932
 4660W        W 8724   4.302   8.605   2.844
 4661W        W 8725   9.610  10.077  10.939
 4662W        W 8726   3.887   4.638   9.366
 4663W        W 8727   1.168   7.425   9.081
 4664W        W 8728   4.782   2.093  11.765
 4665W        W 8729   8.762   0.143  11.370
 4666W        W 8730   3.969   5.621   8.487
 4667W        W 8731   3.724   2.276   1.506
 4668W        W 8732   2.225   2.377   9.039
 4669W        W 8733   7.386   4.587   0.818
 4670W        W 8734   5.145   0.837   9.429
 4671W        W 8735   7.012   8.479   1.782
 4672W        W 8736   9.334   3.226   3.288
 4673W        W 8737   0.847   0.989   8.890
 4674W        W 8738   1.168   7.976  11.071
 4675W        W 8739   0.018   0.523   2.185
 4676W        W 8740   5.660   7.038  10.944
 4677W        W 8741   6.598  10.164   3.367
 4678W        W 8742   8.500   1.498  10.839
 4679W        W 8743   7.526   4.788  10.742
 4680W        W 8744   4.688   4.697  10.458
 4681W        W 8745   3.767   0.894  11.679
 4682W        W 8746   9.606   3.839  10.323
 4683W        W 8747   8.679   3.227   9.336
 4684W        W 8748   3.336   5.529  11.997
 4685W        W 8749   5.654   4.813   9.863
 4686W        W 8750   0.254   0.813  10.176
 4687W        W 8751   3.170   5.933   8.533
 4688W        W 8752   1.784   7.928  10.404
 4689W        W 8753   6.588  10.228   1.867
 4690W        W 8754   8.091   9.874   1.886
 4691W        W 8755   4.601   7.869  11.186
 4692W        W 8756   2.613   0.912   1.161
 4693W        W 8757   6.209   7.413   0.007
 4694W        W 8758   9.331   2.487   9.552
 4695W        W 8759   1.815   6.753   2.775
 4696W        W 8760   1.663   6.851   9.804
 4697W        W 8761   0.225   2.011   9.515
 4698W        W 8762   8.537   6.034  11.835
 4699W        W 8763   3.157   2.869   8.799
 4700W        W 8764   9.960   0.914   1.771
 4701W        W 8765   5.478   8.990   0.810
 4702W        W 8766   6.117   3.256  11.656
 4703W        W 8767   9.986   1.723  11.926
 4704W        W 8768   2.997   4.112  11.836
 4705W        W 8769   1.719   1.319  10.257
 4706W        W 8770   3.577   0.063  11.241
 4707W        W 8771   0.385   6.920   8.958
 4708W        W 8772   7.135   5.752   1.376
 4709W        W 8773   5.488   2.857   9.714
 4710W        W 8774   8.424   2.064   1.679
 4711W        W 8775   8.451   9.747   0.249
 4712W        W 8776   6.434   9.350   0.368
 4713W        W 8777   6.960   4.650   4.323
 4714W        W 8778   8.559   3.804   9.849
 4715W        W 8779   3.222   2.329   1.431
 4716W        W 8780   1.395   5.212   1.384
 4717W        W 8781   0.212   0.705   3.176
 4718W        W 8782   7.891   4.990  11.043
 4719W        W 8783   0.700   4.978   9.800
 4720W        W 8784  10.277   5.675   9.630
 4721W        W 8785  10.063   3.660   8.574
 4722W        W 8786   9.121   4.736  10.640
 4723W        W 8787   7.610   0.426   0.358
 4724W        W 8788   5.263   4.052   2.289
 4725W        W 8789   9.806   9.852   3.279
 4726W        W 8790   1.940   8.317  11.018
 4727W        W 8791   9.253   4.051  11.799
 4728W        W 8792   1.397   5.568  10.044
 4729W        W 8793   2.140   8.465   9.645
 4730W        W 8794   8.450   6.441  11.272
 4731W        W 8795   8.335   8.489   3.130
 4732W        W 8796   7.710   9.980   1.301
 4733W        W 8797   7.083   3.582  10.177
 4734W        W 8798   9.396   6.013  10.892
 4735W        W 8799   7.773  10.243   1.741
 4736W        W 8800   4.740   5.772   9.568
 4737W        W 8801   6.142   6.253   2.270
 4738W        W 8802   7.568   2.151  10.297
 4739W        W 8803   6.624   0.217   0.709
 4740W        W 8804   6.100   0.803   8.407
 4741W        W 8805   7.378   0.888   0.400
 4742W        W 8806   9.582   3.853   9.814
 4743W        W 8807  10.365   9.216   2.063
 4744W        W 8808   6.095   8.043   1.876
 4745W        W 8809  10.195   1.539   0.346
 4746W        W 8810   7.105   5.084   0.185
 4747W        W 8811   8.599   3.045   2.309
 4748W        W 8812   2.800   5.196   9.040
 4749W        W 8813   8.259   6.192   9.936
 4750W        W 8814   4.222   6.719  10.562
 4751W        W 8815   3.627   3.665   8.914
 4752W        W 8816   0.770   3.617   8.662
 4753W        W 8817   4.313   3.305  10.458
 4754W        W 8818   3.686   6.725  10.056
 4755W        W 8819   0.801   0.737   3.161
 4756W        W 8820   2.780   8.343  10.866
 4757W        W 8821   4.682   4.892   9.339
 4758W        W 8822   5.516   5.863  10.763
 4759W        W 8823   5.303   5.070   1.939
 4760W        W 8824   7.539   0.781   9.567
 4761W        W 8825   5.155   6.215  11.048
 4762W        W 8826   6.548   6.112   3.016
 4763W        W 8827   5.473   1.325   9.453
 4764W        W 8828  10.436   3.514   0.466
 4765W        W 8829   2.485   5.263  11.504
 4766W        W 8830  10.177   4.013   3.642
 4767W        W 8831   9.427   6.606   2.200
 4768W        W 8832   2.647   1.186   9.483
 4769W        W 8833  10.423   9.125  10.878
 4770W        W 8834   0.872   3.111   0.068
 4771W        W 8835   4.598   6.422   3.719
 4772W        W 8836   2.440   5.143  11.998
 4773W        W 8837   7.779   0.637  10.089
 4774W        W 8838   0.896   0.256   3.608
 4775W        W 8839   3.119  10.431   1.428
 4776W        W 8840   8.425   7.305   2.538
 4777W        W 8841   8.430   7.519   2.996
 4778W        W 8842   0.853   7.656   0.344
 4779W        W 8843   0.895   9.515   0.916
 4780W        W 8844   0.934   9.863  11.268
 4781W        W 8845   8.722   9.782  11.783
 4782W        W 8846   1.054   6.310   2.777
 4783W        W 8847  10.459   9.985   0.914
 4784W        W 8848   4.578   2.986  11.429
 4785W        W 8849   1.862   0.885   2.865
 4786W        W 8850   1.705   2.555   2.359
 4787W        W 8851   5.993   0.522   0.138
 4788W        W 8852   8.060   4.857   1.128
 4789W        W 8853   2.683   2.383   2.394
 4790W        W 8854   0.283   3.653  10.510
 4791W        W 8855   3.625   6.219  10.049
 4792W        W 8856   6.570   5.226   0.884
 4793W        W 8857   6.581   5.920   9.540
 4794W        W 8858   6.698   8.690   0.847
 4795W        W 8859   2.355   0.760   2.819
 4796W        W 8860   6.749   9.119   0.034
 4797W        W 8861   1.724   3.152   8.930
 4798W        W 8862   4.983   7.326   9.970
 4799W        W 8863   1.921  10.015   0.265
 4800W        W 8864   8.822   1.823   8.266
 4801W        W 8865   6.598   0.673   2.217
 4802W        W 8866   9.547   6.638   3.132
 4803W        W 8867   2.266   3.414   8.839
 4804W        W 8868   1.768   7.445   0.172
 4805W        W 8869   1.301   6.125  10.459
 4806W        W 8870   3.841   4.647   8.813
 4807W        W 8871   3.779   8.557   9.080
 4808W        W 8872   4.048   2.378   8.932
 4809W        W 8873   1.187   7.994   9.671
 4810W        W 8874   4.333   4.856   8.110
 4811W        W 8875   3.932   2.755  10.866
 4812W        W 8876   4.027   0.007   1.833
 4813W        W 8877   6.573   9.963   1.262
 4814W        W 8878   7.018   6.205   2.189
 4815W        W 8879   4.305  10.061   9.472
 4816W        W 8880   3.662   0.824   0.690
 4817W        W 8881  10.415   3.565   0.987
 4818W        W 8882   1.234   1.080  11.558
 4819W        W 8883   9.578   7.888   0.771
 4820W        W 8884   5.560   3.437   8.960
 4821W        W 8885   6.994   2.429  11.542
 4822W        W 8886   0.991   4.202  11.326
 4823W        W 8887   9.480   0.013  10.711
 4824W        W 8888   1.240  10.219   9.899
 4825W        W 8889   4.334   0.508  11.332
 4826W        W 8890   2.711   9.982   9.930
 4827W        W 8891   4.128   2.954   3.149
 4828W        W 8892  10.452   9.442  10.502
 4829W        W 8893   3.286   8.403   1.584
 4830W        W 8894   3.384   3.209   2.631
 4831W        W 8895   3.246   5.130  10.237
 4832W        W 8896   5.249   0.020   2.284
 4833W        W 8897   9.472   1.884   1.514
 4834W        W 8898   4.194   8.957   3.273
 4835W        W 8899   2.327   5.279   8.787
 4836W        W 8900   7.927   8.463   0.123
 4837W        W 8901   0.494   4.333   9.295
 4838W        W 8902   4.562   6.981   3.956
 4839W        W 8903   9.870   4.666   0.750
 4840W        W 8904   8.136   9.048   1.791
 4841W        W 8905   0.679   9.884  10.826
 4842W        W 8906   5.181   0.418  11.667
 4843W        W 8907   4.958   7.027   9.549
 4844W        W 8908   9.752   4.161  11.800
 4845W        W 8909   1.317   5.822   8.516
 4846W        W 8910   5.713   9.887  10.334
 4847W        W 8911   2.375   4.627   2.254
 4848W        W 8912   4.138   6.908  10.065
 4849W        W 8913   6.943   4.417   1.059
 4850W        W 8914   5.735  10.074   0.024
 4851W        W 8915   9.343   2.894   8.627
 4852W        W 8916   8.114   4.331  11.307
 4853W        W 8917   6.616   9.918  10.396
 4854W        W 8918   5.483   3.563   3.952
 4855W        W 8919   2.949   6.434  11.877
 4856W        W 8920   6.790   7.146   3.556
 4857W        W 8921   2.359  10.474   2.315
 4858W        W 8922   9.729   2.178  10.252
 4859W        W 8923   6.972   4.611   0.549
 4860W        W 8924   3.712   9.484   2.169
 4861W        W 8925   0.266   4.195   3.027
 4862W        W 8926   3.114   0.462   8.906
 4863W        W 8927   0.684   6.676   1.906
 4864W        W 8928   6.639   2.587  11.904
 4865W        W 8929   6.281   9.109   3.712
 4866W        W 8930   4.705   1.832  10.067
 4867W        W 8931   0.673   3.689   2.550
 4868W        W 8932   4.497   0.351   8.936
 4869W        W 8933   0.876   6.351   0.897
 4870W        W 8934   0.333   2.348  11.011
 4871W        W 8935  10.367   0.895   1.000
 4872W        W 8936   3.603   3.666  11.939
 4873W        W 8937   7.558   8.772  11.949
 4874W        W 8938   8.524   1.376  10.079
 4875W        W 8939   7.080   7.576  10.697
 4876W        W 8940   0.370  10.004   1.220
 4877W        W 8941   5.135   6.906   0.289
 4878W        W 8942   4.918   0.039   1.420
 4879W        W 8943   4.338   7.010   1.839
 4880W        W 8944   6.475   0.264   9.849
 4881W        W 8945   0.768  10.388   0.360
 4882W        W 8946   8.379   3.159  10.334
 4883W        W 8947   2.989   5.305   0.892
 4884W        W 8948   5.976   3.215   2.699
 4885W        W 8949   2.427   6.482   9.449
 4886W        W 8950   4.903   3.235   3.466
 4887W        W 8951   6.942   0.784  10.382
 4888W        W 8952   6.343   4.597   2.070
 4889W        W 8953   1.890   8.434  10.512
 4890W        W 8954   2.645   0.722  11.385
 4891W        W 8955   8.021   1.580   8.476
 4892W        W 8956   9.470   6.713   1.340
 4893W        W 8957   0.991   0.245   1.383
 4894W        W 8958   7.192   7.687   2.234
 4895W        W 8959   5.146   7.582  10.401
 4896W        W 8960   9.425   9.521   1.549
 4897W        W 8961  10.493   8.494   1.309
 4898W        W 8962   7.392   6.668   2.903
 4899W        W 8963   8.626   2.231   8.817
 4900W        W 8964   8.193   9.984  11.895
 4901W        W 8965   2.238   2.536   8.559
 4902W        W 8966   6.644   4.952   1.784
 4903W        W 8967   0.171   8.493   0.820
 4904W        W 8968   9.276   2.746   2.703
 4905W        W 8969   4.418   6.183  11.440
 4906W        W 8970   3.128  10.310   0.482
 4907W        W 8971   8.936   1.173  10.767
 4908W        W 8972   2.783   1.224   8.609
 4909W        W 8973   8.859   2.587  10.430
 4910W        W 8974   7.806   4.976   9.182
 4911W        W 8975   0.843   4.443   9.653
 4912W        W 8976   6.413   2.864  10.440
 4913W        W 8977   0.224   8.974   0.643
 4914W        W 8978   6.444   1.132   2.398
 4915W        W 8979   5.930   3.657   4.184
 4916W        W 8980   6.444   7.416   2.613
 4917W        W 8981   7.538   3.760   2.972
 4918W        W 8982   9.646   3.222   1.790
 4919W        W 8983   9.365   1.802  11.243
 4920W        W 8984   9.411   7.761   0.297
 4921W        W 8985   1.460   8.782   0.134
 4922W        W 8986   7.026   5.482   9.190
 4923W        W 8987   0.037   4.143  10.514
 4924W        W 8988   7.708   8.065  10.386
 4925W        W 8989   0.764   7.044   3.335
 4926W        W 8990   0.620   9.835   2.146
 4927W        W 8991   2.201   1.302  10.997
 4928W        W 8992   3.283   6.013  11.870
 4929W        W 8993   0.034   3.320  11.100
 4930W        W 8994   8.556   3.313   1.195
 4931W        W 8995   4.488   6.480   1.719
 4932W        W 8996   5.981   2.615  10.448
 4933W        W 8997   1.682   8.008   2.790
 4934W        W 8998   6.928   9.559   9.965
 4935W        W 8999   7.211   6.576  11.218
 4936W        W 9000   2.485   7.526   2.751
 4937W        W 9001   7.286   1.680   0.954
 4938W        W 9002   6.238   4.499   3.382
 4939W        W 9003   6.044   0.423  10.098
 4940W        W 9004   0.127   4.681   1.980
 4941W        W 9005   0.602   4.117   3.443
 4942W        W 9006   9.955   3.519   0.263
 4943W        W 9007   7.948   7.226   1.898
 4944W        W 9008   4.660   3.968   3.885
 4945W        W 9009   9.991   9.063   2.392
 4946W        W 9010   8.521   4.976   8.432
 4947W        W 9011   7.473   4.138  10.439
 4948W        W 9012   2.238   1.139  11.861
 4949W        W 9013   0.766   3.685   2.040
 4950W        W 9014   9.093   1.671   1.198
 4951W        W 9015   4.430   4.205  11.889
 4952W        W 9016   5.572   1.394   1.550
 4953W        W 9017   7.485   0.731   2.650
 4954W        W 9018   6.654   4.687   3.630
 4955W        W 9019   0.996   9.004   1.668
 4956W        W 9020   1.986   6.231   9.460
 4957W        W 9021   3.700   2.671   3.279
 4958W        W 9022   2.359   4.269  10.024
 4959W        W 9023   7.594   7.951   3.202
 4960W        W 9024   8.838   8.953   3.135
 4961W        W 9025   0.174   4.764   0.290
 4962W        W 9026   2.764   4.838  11.643
 4963W        W 9027   6.227   8.367   9.781
 4964W        W 9028   1.067   3.551   2.858
 4965W        W 9029   6.861   8.977   2.213
 4966W        W 9030   2.693   8.495   1.689
 4967W        W 9031   6.950   3.824  11.320
 4968W        W 9032  10.407   8.857   3.339
 4969W        W 9033   1.981   2.551  11.846
 4970W        W 9034   5.601   0.868   9.193
 4971W        W 9035   7.531   8.715   2.808
 4972W        W 9036   0.974   4.358   3.187
 4973W        W 9037   5.421   3.305   9.931
 4974W        W 9038   3.050   4.096   2.790
 4975W        W 9039   7.838   4.523  11.691
 4976W        W 9040   1.399   2.993   2.137
 4977W        W 9041   7.614   9.802   2.032
 4978W        W 9042   0.798   3.157   0.580
 4979W        W 9043   3.608   6.438   2.719
 4980W        W 9044   2.743   9.054   0.686
 4981W        W 9045   9.151   6.568   3.436
 4982W        W 9046   5.476   0.608  10.695
 4983W        W 9047   0.846   9.847   2.600
 4984W        W 9048   7.493  10.123   8.720
 4985W        W 9049   4.219   7.774  11.619
 4986W        W 9050   1.982   1.046   2.388
 4987W        W 9051   2.165  10.088   1.440
 4988W        W 9052   3.570   1.941   2.626
 4989W        W 9053   7.440   4.264  10.925
 4990W        W 9054   7.239   1.798   8.980
 4991W        W 9055   8.556   6.865   1.206
 4992W        W 9056   7.933   2.692   2.240
 4993W        W 9057   9.441   5.542   9.763
 4994W        W 9058   4.596   7.875   1.947
 4995W        W 9059   4.818   0.338  11.298
 4996W        W 9060   6.415   0.856  10.496
 4997W        W 9061   1.632   2.812  10.447
 4998W        W 9062   0.787   1.676   3.343
 4999W        W 9063   4.539   7.124   9.820
 5000W        W 9064   2.009   3.095   8.508
 5001W        W 9065   9.793   5.924  10.562
 5002W        W 9066   4.844   7.532   9.518
 5003W        W 9067   3.407   6.564   9.298
 5004W        W 9068   0.488   2.560   0.310
 5005W        W 9069   1.855   4.232   8.770
 5006W        W 9070   2.210   1.642   8.927
 5007W        W 9071   2.704   3.805   9.784
 5008W        W 9072   4.825   1.175  11.372
 5009W        W 9073   1.645   5.193   0.700
 5010W        W 9074   9.897   6.119   9.125
 5011W        W 9075   9.021   4.227   2.032
 5012W        W 9076   9.182  10.082   9.377
 5013W        W 9077   6.505   9.468  10.228
 5014W        W 9078   8.263   4.506   8.549
 5015W        W 9079   8.822   2.079  11.636
 5016W        W 9080   8.149   9.253  10.117
 5017W        W 9081   9.974   2.122   3.164
 5018W        W 9082  10.203   5.663   9.096
 5019W        W 9083   7.093   6.760  10.337
 5020W        W 9084   9.953  10.274  10.525
 5021W        W 9085   2.269   0.838   8.550
 5022W        W 9086   4.743   6.001   0.519
 5023W        W 9087   8.108   6.733  10.531
 5024W        W 9088   1.221   1.935   3.183
 5025W        W 9089   8.452   5.480   1.699
 5026W        W 9090   5.549   3.368   2.941
 5027W        W 9091  10.335   7.465   2.795
 5028W        W 9092   8.830   4.233   2.900
 5029W        W 9093   0.180   5.651   9.277
 5030W        W 9094   7.618   4.616  10.282
 5031W        W 9095   6.256   0.208   1.526
 5032W        W 9096   4.299  10.051   1.770
 5033W        W 9097   7.948   9.592   0.123
 5034W        W 9098   6.471   4.557   9.943
 5035W        W 9099   9.293   8.338   9.696
 5036W        W 9100   4.158   2.232  10.872
 5037W        W 9101   0.338   4.954   1.180
 5038W        W 9102   3.870   7.211   1.894
 5039W        W 9103   1.627  10.362   1.838
 5040W        W 9104   4.662   7.520   2.800
 5041W        W 9105   8.897   9.838   8.840
 5042W        W 9106   2.091   7.187   2.915
 5043W        W 9107   1.848   1.242   3.257
 5044W        W 9108   8.067   2.141   0.423
 5045W        W 9109   7.019   6.256  10.352
 5046W        W 9110   0.718   4.344  11.748
 5047W        W 9111   5.927   7.851  11.995
 5048W        W 9112  10.345   0.927  10.507
 5049W        W 9113   9.960   6.023   1.389
 5050W        W 9114   7.522   3.620  10.478
 5051W        W 9115   1.439   0.065   0.982
 5052W        W 9116   5.952   6.598   0.279
 5053W        W 9117   2.672   7.456   0.172
 5054W        W 9118   0.217   4.073  10.053
 5055W        W 9119   5.943  10.037  11.558
 5056W        W 9120   9.333   7.867   9.429
 5057W        W 9121   4.439   0.430   8.433
 5058W        W 9122   7.936   7.699  11.345
 5059W        W 9123   6.138   5.924  11.810
 5060W        W 9124   1.839   8.971  11.711
 5061W        W 9125   6.449   6.948  11.513
 5062W        W 9126   4.738   3.384  11.699
 5063W        W 9127   8.477   2.193   2.265
 5064W        W 9128   6.899   5.152  11.241
 5065W        W 9129   5.584   7.885  11.319
 5066W        W 9130   9.400   3.708   1.926
 5067W        W 9131   2.957   0.620   2.065
 5068W        W 9132   5.290   0.458  11.157
 5069W        W 9133   2.888   8.561   0.720
 5070W        W 9134   4.070   1.551  10.585
 5071W        W 9135   1.835   4.915  11.597
 5072W        W 9136   2.825   0.112   2.210
 5073W        W 9137   4.150   0.801   0.915
 5074W        W 9138   6.134   6.752   2.345
 5075W        W 9139   3.691   6.124   0.232
 5076W        W 9140   8.812   5.980  10.856
 5077W        W 9141   7.850   9.929   3.308
 5078W        W 9142   4.160   7.480   3.542
 5079W        W 9143   2.563   7.099   3.071
 5080W        W 9144   2.789   1.252   1.496
 5081W        W 9145   1.968   7.513   0.814
 5082W        W 9146   1.232   5.782   2.809
 5083W        W 9147   8.502   7.446  11.081
 5084W        W 9148   3.957   6.780   2.878
 5085W        W 9149   7.010   7.633   0.080
 5086W        W 9150   7.954   0.074   2.103
 5087W        W 9151   0.316   2.337   2.419
 5088W        W 9152   7.988   0.906   2.788
 5089W        W 9153   5.780   3.389   8.476
 5090W        W 9154   5.243   4.667   3.193
 5091W        W 9155   6.506   1.960   2.811
 5092W        W 9156   6.644   0.676  11.775
 5093W        W 9157   1.907   9.917  11.318
 5094W        W 9158   4.717   0.914   1.680
 5095W        W 9159   9.875   8.357   1.934
 5096W        W 9160   7.547   5.707   2.583
 5097W        W 9161   0.326  10.419   3.455
 5098W        W 9162   8.159   1.813   2.169
 5099W        W 9163   9.025   1.161   1.229
 5100W        W 9164   3.838   6.459   4.122
 5101W        W 9165   6.884   3.178   8.838
 5102W        W 9166   8.710   0.377   2.517
 5103W        W 9167   1.135   6.862   1.797
 5104W        W 9168   7.938   0.945  10.479
 5105W        W 9169   9.052   9.483  11.467
 5106W        W 9170   5.059   1.265   0.902
 5107W        W 9171   9.931   0.444  11.283
 5108W        W 9172   5.951   1.055  10.489
 5109W        W 9173   9.984   6.538   1.360
 5110W        W 9174   5.574  10.214   1.425
 5111W        W 9175   7.451   2.904   0.456
 5112W        W 9176   8.611   1.690   8.764
 5113W        W 9177   6.098   9.941   2.186
 5114W        W 9178   2.274   4.668   0.251
 5115W        W 9179   1.687   8.763   0.605
 5116W        W 9180   0.341   1.201   9.049
 5117W        W 9181  10.293   5.275  11.875
 5118W        W 9182   4.037   6.662  11.931
 5119W        W 9183   8.230   1.008   9.534
 5120W        W 9184   4.333   1.773  10.951
 5121W        W 9185   5.725   5.281   1.122
 5122W        W 9186   1.685   3.159  10.075
 5123W        W 9187  10.139   7.854   3.095
 5124W        W 9188   5.610   8.886  11.198
 5125W        W 9189   4.733   0.292  10.114
 5126W        W 9190   3.640   2.463   9.570
 5127W        W 9191   3.627   2.231  11.576
 5128W        W 9192   0.494   6.345  10.756
 5129W        W 9193   8.998   0.381   1.713
 5130W        W 9194   7.128   6.693   0.216
 5131W        W 9195   7.542   9.501   1.276
 5132W        W 9196   1.642   2.537   9.570
 5133W        W 9197   1.381   6.100   8.935
 5134W        W 9198   2.477   4.148   0.367
 5135W        W 9199   0.880   8.991   2.184
 5136W        W 9200   2.296   0.563   1.424
 5137W        W 9201   6.420   9.352  11.259
 5138W        W 9202   1.585   8.590   3.614
 5139W        W 9203  10.193   6.999   1.859
 5140W        W 9204  10.351   9.308   9.503
 5141W        W 9205   0.724   9.432  11.059
 5142W        W 9206   2.497   5.117   0.916
 5143W        W 9207   0.795   2.401  11.260
 5144W        W 9208   4.185   1.245   1.194
 5145W        W 9209   6.012   5.719   0.388
 5146W        W 9210   2.249   4.234  11.861
 5147W        W 9211   9.075   8.812   0.079
 5148W        W 9212   9.461  10.018   0.230
 5149W        W 9213   4.788   6.553  11.221
 5150W        W 9214   9.353   2.313   1.816
 5151W        W 9215   1.743   7.140   9.375
 5152W        W 9216   3.882   5.489  10.814
 5153W        W 9217   4.623   3.759   0.043
 5154W        W 9218   4.367   4.285  10.424
 5155W        W 9219   2.815   0.929   9.044
 5156W        W 9220   5.311   6.241  11.880
 5157W        W 9221   4.204   0.329   1.233
 5158W        W 9222   3.191   2.383   0.544
 5159W        W 9223   8.909   1.634  10.568
 5160W        W 9224  10.358   3.715  10.227
 5161W        W 9225   6.286   9.030  10.375
 5162W        W 9226   9.573   3.216   9.057
 5163W        W 9227   1.736   9.040  10.293
 5164W        W 9228   6.106   3.632  11.296
 5165W        W 9229   0.901   1.189   3.360
 5166W        W 9230   3.538  10.492   1.722
 5167W        W 9231   5.008   9.586   8.738
 5168W        W 9232   0.350   9.098  11.767
 5169W        W 9233   2.260   8.705   8.820
 5170W        W 9234   0.366   1.303   1.229
 5171W        W 9235   6.449   3.818   1.506
 5172W        W 9236   2.790   5.983   2.632
 5173W        W 9237   0.176   5.492   2.926
 5174W        W 9238   0.903   4.448   2.663
 5175W        W 9239   3.520   2.168   9.986
 5176W        W 9240   4.627   6.060   9.110
 5177W        W 9241   7.011   6.379   0.881
 5178W        W 9242   8.114   8.715   2.165
 5179W        W 9243   5.180   7.215  10.906
 5180W        W 9244   8.948   1.562  11.088
 5181W        W 9245   9.843   4.576   8.675
 5182W        W 9246   0.381   1.441   2.187
 5183W        W 9247   1.294   7.639   2.798
 5184W        W 9248   0.473   5.999   0.154
 5185W        W 9249   6.243   6.516  10.601
 5186W        W 9250   8.296   3.639   1.850
 5187W        W 9251   8.995   6.065   9.419
 5188W        W 9252   0.635   5.373  10.520
 5189W        W 9253   2.234   0.314   8.563
 5190W        W 9254   1.630   8.679   2.309
 5191W        W 9255   5.623   8.497   0.704
 5192W        W 9256   5.209   6.019   0.313
 5193W        W 9257   4.548   1.933   3.191
 5194W        W 9258   4.092   3.761   9.867
 5195W        W 9259   2.905   6.064  11.519
 5196W        W 9260   0.870   1.382  11.745
 5197W        W 9261   6.279   1.675   0.969
 5198W        W 9262   8.211   0.404   2.457
 5199W        W 9263   9.516   7.115   2.907
 5200W        W 9264   3.126   8.047  10.578
 5201W        W 9265  10.154   2.174   9.946
 5202W        W 9266   7.720   8.993   0.377
 5203W        W 9267   5.832   6.498   1.393
 5204W        W 9268   4.564  10.059   1.307
 5205W        W 9269   7.131   8.562  11.033
 5206W        W 9270   1.459   6.136  11.822
 5207W        W 9271   8.683   5.581  11.193
 5208W        W 9272   2.124   7.897   9.181
 5209W        W 9273   4.227   4.083   3.610
 5210W        W 9274   1.692   9.986   3.167
 5211W        W 9275   7.369   4.084   8.637
 5212W        W 9276   8.059   9.480   9.142
 5213W        W 9277   1.925   5.033   0.113
 5214W        W 9278   4.298   8.339   2.234
 5215W        W 9279   0.413   4.170   2.536
 5216W        W 9280   5.389   6.363   1.698
 5217W        W 9281   7.349   9.027   1.320
 5218W        W 9282   7.715   3.749   1.025
 5219W        W 9283   1.328   4.760   2.747
 5220W        W 9284   4.229   6.196   9.416
 5221W        W 9285   6.090   3.034   1.204
 5222W        W 9286   6.152   9.987  10.582
 5223W        W 9287   7.664   1.828   9.280
 5224W        W 9288   8.083   7.585  11.850
 5225W        W 9289  10.237   1.887   9.533
 5226W        W 9290   5.057   5.062   2.382
 5227W        W 9291   5.809   8.175  10.502
 5228W        W 9292   9.195   5.539   8.785
 5229W        W 9293   1.721  10.288   1.303
 5230W        W 9294   2.679   2.299   9.282
 5231W        W 9295   7.731   6.043   0.477
 5232W        W 9296   4.349   8.584   1.302
 5233W        W 9297   6.878   3.949   1.236
 5234W        W 9298   9.459   5.617   3.145
 5235W        W 9299   5.074   8.594   0.135
 5236W        W 9300   4.813   2.289  10.252
 5237W        W 9301   9.395   1.953   2.913
 5238W        W 9302   2.459   2.809   2.186
 5239W        W 9303   8.732   1.170   2.508
 5240W        W 9304   1.526   9.496   3.049
 5241W        W 9305   7.236   0.566  10.841
 5242W        W 9306   0.817   4.191   2.217
 5243W        W 9307  10.202   4.491   2.163
 5244W        W 9308   5.428   6.189   3.391
 5245W        W 9309   8.642   0.493   0.649
 5246W        W 9310   4.491   4.043   9.323
 5247W        W 9311   6.598   7.439   0.346
 5248W        W 9312   1.486  10.209   0.074
 5249W        W 9313   0.859   2.183   8.496
 5250W        W 9314   2.959   8.086   1.859
 5251W        W 9315   8.477   6.468  10.317
 5252W        W 9316   2.117   4.230   1.856
 5253W        W 9317   4.994  10.018   8.430
 5254W        W 9318   2.044   1.833   1.099
 5255W        W 9319   0.385   3.432   9.460
 5256W        W 9320   9.471   3.303   0.897
 5257W        W 9321   4.967   7.801   1.117
 5258W        W 9322   6.435   3.768   3.469
 5259W        W 9323   9.926   3.057   9.841
 5260W        W 9324   0.484   5.047   1.675
 5261W        W 9325   2.242   2.020   8.595
 5262W        W 9326   9.095   8.661   2.327
 5263W        W 9327   9.483   0.011   9.466
 5264W        W 9328   6.431   8.199  11.865
 5265W        W 9329  10.423   9.755   9.841
 5266W        W 9330   9.685   2.161   9.742
 5267W        W 9331   8.885   0.670   1.283
 5268W        W 9332   9.425   7.405   9.605
 5269W        W 9333   4.862   1.352   0.448
 5270W        W 9334   2.054   6.120   2.792
 5271W        W 9335   6.110   2.225   2.620
 5272W        W 9336   9.757   9.496   0.418
 5273W        W 9337   9.840   1.191   3.035
 5274W        W 9338   3.397   2.804   1.385
 5275W        W 9339   1.772   5.160   2.172
 5276W        W 9340   4.574   3.663   3.478
 5277W        W 9341   4.616   0.944   0.674
 5278W        W 9342   7.604   8.825   3.314
 5279W        W 9343   1.668   5.737  11.535
 5280W        W 9344   4.832   4.378   9.581
 5281W        W 9345   5.545   7.428   0.759
 5282W        W 9346   7.821   8.037  10.943
 5283W        W 9347   3.189   5.544   8.909
 5284W        W 9348   3.922   6.152  11.363
 5285W        W 9349   9.269  10.442   1.785
 5286W        W 9350   7.018   0.834   2.455
 5287W        W 9351   5.236   6.961   2.700
 5288W        W 9352   0.442   6.852   1.489
 5289W        W 9353   2.956   3.268   3.460
 5290W        W 9354   0.886   2.378   2.668
 5291W        W 9355  10.009   4.112  11.354
 5292W        W 9356   0.107   6.071   8.406
 5293W        W 9357   5.110   7.094   3.513
 5294W        W 9358   9.703   2.887   2.987
 5295W        W 9359   7.410  10.001  11.481
 5296W        W 9360  10.426   3.095   0.753
 5297W        W 9361   9.398   9.492   1.027
 5298W        W 9362   4.633   8.117   0.898
 5299W        W 9363   8.857   9.949   0.498
 5300W        W 9364   4.281   0.415   9.906
 5301W        W 9365   8.466   5.399   9.526
 5302W        W 9366  10.406   2.145   9.100
 5303W        W 9367   2.571   9.661   2.260
 5304W        W 9368   5.272   7.395   1.191
 5305W        W 9369   1.731   6.161   0.774
 5306W        W 9370   9.515   0.504  10.974
 5307W        W 9371  10.026   8.855   1.907
 5308W        W 9372   9.696   0.831   9.441
 5309W        W 9373   9.324   5.960   2.790
 5310W        W 9374   5.209   8.305   1.948
 5311W        W 9375   2.152   0.435   9.365
 5312W        W 9376   4.000  10.242   1.384
 5313W        W 9377   0.327   0.284  10.250
 5314W        W 9378   4.061   4.980   1.296
 5315W        W 9379   3.185   0.873   0.438
 5316W        W 9380  10.042   2.402   8.809
 5317W        W 9381  10.293   5.261   3.355
 5318W        W 9382   9.070   3.231   0.401
 5319W        W 9383   6.980  10.422  10.955
 5320W        W 9384   4.057   4.452   1.340
 5321W        W 9385   6.075   8.990  11.359
 5322W        W 9386   1.984   4.242  10.399
 5323W        W 9387   7.570   1.446  11.638
 5324W        W 9388   2.912   9.836   0.457
 5325W        W 9389   7.669   5.230   2.671
 5326W        W 9390   0.932   8.463   8.856
 5327W        W 9391  10.307   4.529  11.355
 5328W        W 9392   0.762   4.507   1.353
 5329W        W 9393   3.060   0.993   9.704
 5330W        W 9394   1.185   8.898   8.962
 5331W        W 9395   7.480   3.805   2.431
 5332W        W 9396   5.234   5.848  11.364
 5333W        W 9397   4.358   7.098   2.857
 5334W        W 9398   7.510   3.715   3.495
 5335W        W 9399   0.139   3.218   3.230
 5336W        W 9400   7.469   7.011   1.948
 5337W        W 9401   2.702   6.626   3.275
 5338W        W 9402   5.148   2.599   2.884
 5339W        W 9403   2.370   6.866   0.616
 5340W        W 9404   9.068   6.914   3.037
 5341W        W 9405   8.348   0.892   0.506
 5342W        W 9406   5.359   6.520   1.201
 5343W        W 9407   2.267   7.552   2.228
 5344W        W 9408   5.004   9.469  11.253
 5345W        W 9409   9.800   0.751   3.307
 5346W        W 9410   9.364   2.866   1.171
 5347W        W 9411   0.798   7.431   9.973
 5348W        W 9412   5.178   4.739   8.722
 5349W        W 9413   6.427   1.376   9.006
 5350W        W 9414   1.510   2.772   1.260
 5351W        W 9415   9.386   8.550  10.359
 5352W        W 9416   0.644   6.471   0.036
 5353W        W 9417   1.361   8.436   9.155
 5354W        W 9418   7.561   7.064   1.180
 5355W        W 9419   4.221   6.792   4.288
 5356W        W 9420   0.494   0.347   1.446
 5357W        W 9421   8.177   8.016  10.571
 5358W        W 9422   4.136   6.151  11.899
 5359W        W 9423   7.963   5.879   9.067
 5360W        W 9424   9.963   7.861   1.765
 5361W        W 9425   5.604   8.952  10.686
 5362W        W 9426   7.840   1.412   1.996
 5363W        W 9427   0.092   0.229   2.960
 5364W        W 9428   1.276   3.668   1.535
 5365W        W 9429   8.409   7.004   0.723
 5366W        W 9430   1.273   7.084   9.521
 5367W        W 9431   4.126   5.345   8.904
 5368W        W 9432   6.139   3.530   2.254
 5369W        W 9433   9.864   2.737   1.972
 5370W        W 9434   6.545   6.163   0.827
 5371W        W 9435   9.369   4.693   9.274
 5372W        W 9436   1.563   1.312   0.554
 5373W        W 9437   9.471   5.633  11.273
 5374W        W 9438   0.769   2.990  10.540
 5375W        W 9439   2.447   5.616   3.201
 5376W        W 9440   0.632   9.394   2.403
 5377W        W 9441   2.417   0.371   9.801
 5378W        W 9442   9.946   1.847   1.302
 5379W        W 9443   2.249   7.285  11.895
 5380W        W 9444   6.942   3.776  11.839
 5381W        W 9445   4.620   8.344   3.198
 5382W        W 9446   5.613   9.842  10.865
 5383W        W 9447   8.323   6.620   8.999
 5384W        W 9448   8.801   9.913  10.202
 5385W        W 9449   4.545   9.061   1.151
 5386W        W 9450   3.194   9.176   1.018
 5387W        W 9451   3.728   8.051   9.002
 5388W        W 9452   5.927   3.566   3.553
 5389W        W 9453   8.353   0.052   0.857
 5390W        W 9454   2.008   9.401   0.354
 5391W        W 9455   4.739   1.503  11.004
 5392W        W 9456   2.342   9.193   2.254
 5393W        W 9457   6.607   4.824  10.905
 5394W        W 9458   0.281   7.469  11.014
 5395W        W 9459   9.252   1.884   0.514
 5396W        W 9460   4.179   0.470   1.770
 5397W        W 9461   2.308   4.371   8.550
 5398W        W 9462   4.128   3.529   2.280
 5399W        W 9463   7.386   6.466   8.477
 5400W        W 9464   2.919   0.369   9.841
 5401W        W 9465   4.762   7.074   8.937
 5402W        W 9466   0.813   3.126   9.485
 5403W        W 9467   0.054   1.171   0.342
 5404W        W 9468   7.498   5.685   9.158
 5405W        W 9469   1.288   1.900   0.879
 5406W        W 9470   5.156   8.972  10.468
 5407W        W 9471  10.419   0.066  10.913
 5408W        W 9472   3.158   7.706   2.239
 5409W        W 9473   2.853   6.144   9.349
 5410W        W 9474   7.075   6.965  10.860
 5411W        W 9475   0.348   5.026  10.766
 5412W        W 9476   3.769   1.278   0.880
 5413W        W 9477   9.089   0.260   0.814
 5414W        W 9478   7.923   3.341  10.208
 5415W        W 9479   8.194   2.741   8.990
 5416W        W 9480   9.864   9.767  10.616
 5417W        W 9481   4.384   8.789   8.551
 5418W        W 9482   6.278  10.293   9.821
 5419W        W 9483  10.335   4.760   9.333
 5420W        W 9484   3.195   6.255   0.296
 5421W        W 9485   5.032   3.840   1.889
 5422W        W 9486  10.206   5.745  11.726
 5423W        W 9487   3.281   5.247   2.244
 5424W        W 9488   1.234   6.577   9.676
 5425W        W 9489   1.689   7.852  10.904
 5426W        W 9490   7.260   7.195   9.996
 5427W        W 9491   5.750   1.779  10.750
 5428W        W 9492   3.037   3.262   9.974
 5429W        W 9493   7.309   6.069   9.963
 5430W        W 9494   6.423   1.205   0.854
 5431W        W 9495   7.543   0.230  11.858
 5432W        W 9496   1.971   9.363   2.820
 5433W        W 9497   8.846   6.983   3.485
 5434W        W 9498   0.480   6.916   2.912
 5435W        W 9499   6.175   0.147   9.428
 5436W        W 9500   1.922   7.574   9.538
 5437W        W 9501   7.152   4.548  10.483
 5438W        W 9502   5.231   2.645   2.379
 5439W        W 9503   5.704   3.889   9.132
 5440W        W 9504   4.236   9.975   8.872
 5441W        W 9505   3.398   7.433   1.858
 5442W        W 9506   5.664   0.286  11.450
 5443W        W 9507   1.256   7.077  10.054
 5444W        W 9508   7.462   8.269  11.905
 5445W        W 9509   2.883   0.996   2.494
 5446W        W 9510   0.087   7.549   0.186
 5447W        W 9511   5.024   7.579   3.436
 5448W        W 9512   1.249   3.720   9.576
 5449W        W 9513   4.676   4.731   2.431
 5450W        W 9514   4.227   9.375   0.884
 5451W        W 9515   3.268   1.438   9.589
 5452W        W 9516   3.191   7.108   3.633
 5453W        W 9517   1.162   5.383   1.845
 5454W        W 9518  10.027   7.052   9.575
 5455W        W 9519   9.774   7.801   8.421
 5456W        W 9520   7.551   8.170   9.907
 5457W        W 9521  10.043   6.402   3.277
 5458W        W 9522   6.533   0.248  11.435
 5459W        W 9523   1.975   4.781   8.958
 5460W        W 9524   5.638   0.906   1.683
 5461W        W 9525   2.431  10.470  10.552
 5462W        W 9526   0.147   9.795   2.356
 5463W        W 9527   2.642   4.383   2.682
 5464W        W 9528   6.117   8.811  11.847
 5465W        W 9529   4.702   6.033   1.523
 5466W        W 9530   7.539   4.266   2.833
 5467W        W 9531   5.276   3.600   0.949
 5468W        W 9532   4.568   5.928   3.843
 5469W        W 9533   9.962   9.535   3.719
 5470W        W 9534   3.427   1.822   1.366
 5471W        W 9535   4.420   5.685   1.264
 5472W        W 9536   7.682   9.976   9.582
 5473W        W 9537   6.036   9.486  10.471
 5474W        W 9538   8.339   7.082   8.656
 5475W        W 9539   8.443   8.139   2.754
 5476W        W 9540   2.866   7.572   1.823
 5477W        W 9541   1.923   1.373   3.739
 5478W        W 9542   3.620   9.190   0.277
 5479W        W 9543   1.411   7.099   1.013
 5480W        W 9544   1.693   0.204   9.362
 5481W        W 9545   6.743   6.566  10.757
 5482W        W 9546   5.610   9.850   9.330
 5483W        W 9547   0.339   0.951   9.499
 5484W        W 9548  10.458   6.166   0.977
 5485W        W 9549   5.069   6.142  10.575
 5486W        W 9550   0.109   9.183  11.332
 5487W        W 9551   7.079   7.140   1.386
 5488W        W 9552   4.983  10.464   8.774
 5489W        W 9553   3.740   6.202   9.176
 5490W        W 9554   3.340   0.474   1.171
 5491W        W 9555   4.806   2.905  10.993
 5492W        W 9556   2.745   3.231  11.258
 5493W        W 9557   6.550   9.793   3.033
 5494W        W 9558   4.244   9.560  11.382
 5495W        W 9559   0.709   9.131   0.640
 5496W        W 9560   9.003   2.281   8.403
 5497W        W 9561   9.956   6.646   9.905
 5498W        W 9562   5.164  10.006  11.109
 5499W        W 9563   7.029   2.677   2.780
 5500W        W 9564   3.799   2.950   9.656
 5501W        W 9565   3.214   2.369  11.278
 5502W        W 9566   6.590   3.802   8.894
 5503W        W 9567   1.032   7.898  11.904
 5504W        W 9568  10.339   3.141  10.125
 5505W        W 9569   3.003   2.819   2.320
 5506W        W 9570   0.438   5.595   2.402
 5507W        W 9571   7.752   1.553   1.067
 5508W        W 9572   1.137   9.728   9.742
 5509W        W 9573   2.161   6.118   9.938
 5510W        W 9574   9.309   6.497   8.733
 5511W        W 9575   0.194   6.154   3.422
 5512W        W 9576   8.080   6.457   0.449
 5513W        W 9577   7.543   1.927   1.344
 5514W        W 9578   9.821   3.347   3.120
 5515W        W 9579   5.421   2.955   8.880
 5516W        W 9580   6.042   6.612   1.848
 5517W        W 9581   6.193   0.844   3.028
 5518W        W 9582   7.586   1.529   9.703
 5519W        W 9583   0.441   6.484  11.245
 5520W        W 9584   6.292   6.147   0.342
 5521W        W 9585   3.821   3.115   2.360
 5522W        W 9586   2.846   0.475   1.299
 5523W        W 9587   3.732   9.523  11.304
 5524W        W 9588   0.744   3.674   3.695
 5525W        W 9589   7.902   6.710   1.825
 5526W        W 9590   9.240   2.820   9.141
 5527W        W 9591   1.273   0.984   9.498
 5528W        W 9592   1.377   1.478   9.521
 5529W        W 9593   1.840   3.798  11.270
 5530W        W 9594   9.069   5.285  11.416
 5531W        W 9595   4.239   8.038   0.156
 5532W        W 9596   5.068   4.119   2.769
 5533W        W 9597   3.726   3.305   9.281
 5534W        W 9598   6.075   3.259   0.185
 5535W        W 9599   3.541   7.999   2.413
 5536W        W 9600   3.332   0.687  10.628
 5537W        W 9601   0.136   7.064   0.877
 5538W        W 9602   4.492   7.608   0.054
 5539W        W 9603   1.877   0.832  10.412
 5540W        W 9604   7.499   5.444   4.074
 5541W        W 9605   1.789   6.650   0.594
 5542W        W 9606   3.940   5.520   1.145
 5543W        W 9607   8.625   8.805   2.234
 5544W        W 9608   5.056   4.895  11.480
 5545W        W 9609   9.074   5.759  11.580
 5546W        W 9610   5.281   6.412   9.948
 5547W        W 9611   5.712   6.404   0.874
 5548W        W 9612   2.442  10.358   3.494
 5549W        W 9613   2.491   0.879  10.930
 5550W        W 9614   1.042   5.679  10.458
 5551W        W 9615   7.144   2.277   1.983
 5552W        W 9616   3.988   0.313  10.930
 5553W        W 9617   7.448   6.299   2.473
 5554W        W 9618   2.279   1.955   9.325
 5555W        W 9619   5.929   7.660   3.513
 5556W        W 9620   4.396  10.355   0.506
 5557W        W 9621   4.145   6.623   8.617
 5558W        W 9622   5.744   2.527  11.825
 5559W        W 9623   6.990   7.146   9.523
 5560W        W 9624   7.390   2.287  10.752
 5561W        W 9625   6.447   5.683   0.123
 5562W        W 9626   3.301   9.670   8.533
 5563W        W 9627   2.167   5.917   0.889
 5564W        W 9628   5.994   2.817   0.434
 5565W        W 9629   6.515   2.470   8.566
 5566W        W 9630   0.822   2.815   2.382
 5567W        W 9631   2.071   8.455   0.717
 5568W        W 9632   4.209   6.105   0.431
 5569W        W 9633   5.729   1.276  10.924
 5570W        W 9634   6.404   9.127   0.914
 5571W        W 9635   0.022   6.505   3.108
 5572W        W 9636   5.155   1.836   8.783
 5573W        W 9637   5.904   0.956   0.444
 5574W        W 9638   2.088   9.984   3.455
 5575W        W 9639   4.669   9.441  10.577
 5576W        W 9640   7.064   8.595   1.274
 5577W        W 9641   1.663   8.540   9.532
 5578W        W 9642   8.048   7.865   2.963
 5579W        W 9643   6.105   0.492  11.128
 5580W        W 9644   1.181   0.431   0.172
 5581W        W 9645   1.512   4.256   0.249
 5582W        W 9646   9.287   4.644   3.544
 5583W        W 9647   3.139   3.617   9.572
 5584W        W 9648   8.909   8.807  11.560
 5585W        W 9649   9.781   7.449   0.766
 5586W        W 9650   3.288   1.569  10.865
 5587W        W 9651   7.399   1.636   0.456
 5588W        W 9652   5.920   8.030   2.345
 5589W        W 9653   7.010   2.777   9.744
 5590W        W 9654   2.672   2.833   0.961
 5591W        W 9655   3.046   9.784   3.167
 5592W        W 9656   9.582   7.155   2.398
 5593W        W 9657   8.189   6.280   3.518
 5594W        W 9658   4.717   0.345  11.960
 5595W        W 9659   0.253   5.417   1.370
 5596W        W 9660   5.960   7.952   1.385
 5597W        W 9661   6.555   3.649  11.032
 5598W        W 9662   7.186   1.369   3.189
 5599W        W 9663   9.991   7.091   2.697
 5600W        W 9664   9.816   0.970  11.220
 5601W        W 9665   5.235   3.163   9.387
 5602W        W 9666   9.308   6.041   8.979
 5603W        W 9667   1.327   9.964   1.901
 5604W        W 9668   6.961   8.108  11.840
 5605W        W 9669   3.143   6.671   0.545
 5606W        W 9670   7.275  10.403  10.043
 5607W        W 9671   7.526   2.381   1.134
 5608W        W 9672   6.576   2.115  10.022
 5609W        W 9673   9.478   1.050   0.922
 5610W        W 9674   2.248   9.124  10.107
 5611W        W 9675   8.089   1.419  11.859
 5612W        W 9676   5.640   3.401   2.369
 5613W        W 9677   3.793   5.951   9.616
 5614W        W 9678  10.446   1.953   0.046
 5615W        W 9679   4.135   1.328   2.265
 5616W        W 9680   4.683   9.301   1.981
 5617W        W 9681   7.844   5.603   0.205
 5618W        W 9682   5.554   8.903   2.503
 5619W        W 9683   0.796   5.173  10.983
 5620W        W 9684   8.984   4.588   0.758
 5621W        W 9685   5.210   9.962   9.031
 5622W        W 9686   0.225   6.941   0.373
 5623W        W 9687   8.024   4.511   9.043
 5624W        W 9688   0.270   2.831   2.393
 5625W        W 9689   7.448   3.134  10.252
 5626W        W 9690   1.422   9.271   3.836
 5627W        W 9691   2.269  10.045  10.919
 5628W        W 9692   8.887   8.806   1.357
 5629W        W 9693   6.600   7.869   2.828
 5630W        W 9694   0.930   8.627   0.132
 5631W        W 9695   4.191   6.112   1.475
 5632W        W 9696   6.567   8.652   0.010
 5633W        W 9697   2.432   1.718   0.185
 5634W        W 9698   0.171   9.919   8.879
 5635W        W 9699   7.545   8.047   2.224
 5636W        W 9700   2.281   5.104   1.975
 5637W        W 9701   2.736   3.575  10.276
 5638W        W 9702   5.290   2.640   1.176
 5639W        W 9703   5.948   8.995   1.186
 5640W        W 9704   7.869   3.177   3.512
 5641W        W 9705   4.690   7.934  11.701
 5642W        W 9706   1.956   8.911   0.207
 5643W        W 9707  10.471   0.240   9.391
 5644W        W 9708   4.984   4.454  10.093
 5645W        W 9709   0.484  10.403   2.918
 5646W        W 9710   4.558   2.843   3.450
 5647W        W 9711   7.266   3.184   1.545
 5648W        W 9712   8.417   8.074   9.742
 5649W        W 9713   1.572   8.561  11.302
 5650W        W 9714   0.863   7.977   1.225
 5651W        W 9715   8.161   3.655   1.232
 5652W        W 9716   1.906   7.859   1.971
 5653W        W 9717   2.863   9.422   1.367
 5654W        W 9718   8.511   2.434   1.263
 5655W        W 9719   1.840   1.191   9.772
 5656W        W 9720   3.343   5.042   1.766
 5657W        W 9721   7.074   5.972   9.091
 5658W        W 9722   0.116   5.396  10.509
 5659W        W 9723   6.086  10.278   1.703
 5660W        W 9724   4.082   2.910  11.384
 5661W        W 9725   6.453   9.266   9.345
 5662W        W 9726   6.932   8.941  11.288
 5663W        W 9727   3.478   2.203   1.018
 5664W        W 9728   3.337   6.740  11.750
 5665W        W 9729   0.604   4.983  11.421
 5666W        W 9730  10.374   5.430  11.364
 5667W        W 9731   5.521   4.120   1.841
 5668W        W 9732   0.866   2.311   3.201
 5669W        W 9733   5.243   7.044   9.136
 5670W        W 9734   3.253   5.149   9.271
 5671W        W 9735   0.498   8.243   8.979
 5672W        W 9736   0.995   7.375   0.779
 5673W        W 9737   0.991   2.128   0.223
 5674W        W 9738   7.873   6.654   0.004
 5675W        W 9739   9.339   0.569   3.124
 5676W        W 9740   4.592   4.474   3.920
 5677W        W 9741   6.422   0.155  11.960
 5678W        W 9742  10.490   3.928   0.154
 5679W        W 9743   6.084   9.322   9.991
 5680W        W 9744   4.544   5.296   9.666
 5681W        W 9745   8.523   5.890   9.532
 5682W        W 9746   9.894   8.283  11.971
 5683W        W 9747   5.624   1.800   8.987
 5684W        W 9748   1.248   0.319  11.030
 5685W        W 9749   3.253   8.319   8.820
 5686W        W 9750   9.468   7.837  10.977
 5687W        W 9751   9.924   9.804   1.679
 5688W        W 9752   5.700   3.481  10.346
 5689W        W 9753   7.373   3.060   8.872
 5690W        W 9754   1.836   7.896   0.463
 5691W        W 9755   1.367   3.834   1.051
 5692W        W 9756   5.135   8.647   0.643
 5693W        W 9757   0.748   0.887  11.542
 5694W        W 9758   1.398   0.234   9.879
 5695W        W 9759   8.140   5.996   1.338
 5696W        W 9760   9.499   5.712   1.232
 5697W        W 9761   0.877   5.428  10.030
 5698W        W 9762   3.682   5.912   3.642
 5699W        W 9763   3.441  10.303   9.395
 5700W        W 9764   7.699   1.889   8.738
 5701W        W 9765   1.315   4.957  10.972
 5702W        W 9766   7.728   6.340   9.807
 5703W        W 9767   5.090   3.647   1.412
 5704W        W 9768   1.218  10.272   1.387
 5705W        W 9769   6.613   3.281   3.288
 5706W        W 9770   0.819   3.969   9.466
 5707W        W 9771   1.291   7.830  10.579
 5708W        W 9772   3.404   7.529   2.686
 5709W        W 9773   2.826   4.081  10.195
 5710W        W 9774   1.673   2.791  11.512
 5711W        W 9775   0.846   6.472  11.573
 5712W        W 9776   5.459   8.447   3.150
 5713W        W 9777   2.195   3.318   1.850
 5714W        W 9778   5.991   5.447  11.974
 5715W        W 9779   7.621   0.108   0.760
 5716W        W 9780   2.140   9.304   9.625
 5717W        W 9781   7.664   1.224   0.664
 5718W        W 9782   3.712   3.614   1.658
 5719W        W 9783   7.085  10.483   3.190
 5720W        W 9784   5.683   0.788  11.137
 5721W        W 9785   7.993   2.624   0.247
 5722W        W 9786   3.333   0.718  11.461
 5723W        W 9787   8.776   2.310   9.868
 5724W        W 9788   2.785   1.476   9.878
 5725W        W 9789   6.920   4.963  10.275
 5726W        W 9790   4.423   5.124   3.612
 5727W        W 9791   1.227   9.308   1.253
 5728W        W 9792   2.409   5.673   9.965
 5729W        W 9793   3.210   3.305   9.111
 5730W        W 9794   9.124   3.287   1.882
 5731W        W 9795   5.498   3.727   0.515
 5732W        W 9796   0.194   9.569  11.950
 5733W        W 9797   5.106   3.155   1.167
 5734W        W 9798   5.674   6.523   3.117
 5735W        W 9799  10.341   7.196  10.859
 5736W        W 9800   9.873   9.051   1.465
 5737W        W 9801   6.890   9.935   2.612
 5738W        W 9802   4.615   2.378   0.698
 5739W        W 9803   1.350   0.884   0.356
 5740W        W 9804   6.147   0.067  10.769
 5741W        W 9805   3.752   5.028   2.117
 5742W        W 9806   1.285   1.022   3.063
 5743W        W 9807   3.882   0.896  11.185
 5744W        W 9808   7.457   9.563   9.757
 5745W        W 9809   7.045   8.142  11.313
 5746W        W 9810  10.114  10.484   2.927
 5747W        W 9811   1.844   1.685   9.601
 5748W        W 9812   4.760  10.452   9.648
 5749W        W 9813   6.374   9.990   8.752
 5750W        W 9814   2.907   7.574   9.371
 5751W        W 9815   2.406   6.117  11.464
 5752W        W 9816   7.600   5.380   2.152
 5753W        W 9817   4.553   3.139   1.806
 5754W        W 9818   8.941   0.492   9.139
 5755W        W 9819   8.386   2.283  10.250
 5756W        W 9820   9.147  10.305   1.275
 5757W        W 9821   6.982   6.097  10.824
 5758W        W 9822   4.440   7.746   1.227
 5759W        W 9823   9.501   2.129   3.366
 5760W        W 9824   4.146   7.014   3.321
 5761W        W 9825   4.596   8.813   2.140
 5762W        W 9826   2.142   2.413   9.559
 5763W        W 9827   4.668   8.383  11.443
 5764W        W 9828   4.514   5.500   9.205
 5765W        W 9829   5.178   0.950  10.933
 5766W        W 9830   9.501   4.881   2.911
 5767W        W 9831  10.346   2.884   3.581
 5768W        W 9832   4.628   0.442   1.544
 5769W        W 9833   3.500   5.649   8.255
 5770W        W 9834   8.610   0.974   0.924
 5771W        W 9835   1.478   9.284   8.777
 5772W        W 9836   2.226   6.406   0.789
 5773W        W 9837   2.910   4.797   0.862
 5774W        W 9838   8.096   8.537   1.119
 5775W        W 9839   8.852   7.412  10.237
 5776W        W 9840   0.971  10.204  10.556
 5777W        W 9841   7.348   4.106   1.032
 5778W        W 9842   1.152   6.527   0.008
 5779W        W 9843   2.486   9.598  10.763
 5780W        W 9844   7.092   9.952  10.244
 5781W        W 9845   3.072   8.014   9.556
 5782W        W 9846   0.424   5.219   9.390
 5783W        W 9847   9.050   7.950   3.329
 5784W        W 9848   0.303   8.601  11.912
 5785W        W 9849   7.527   5.566   3.592
 5786W        W 9850   0.528   8.599  10.615
 5787W        W 9851   8.371   9.466   1.933
 5788W        W 9852   8.932   6.631  11.500
 5789W        W 9853   0.873   2.173   9.021
 5790W        W 9854   7.455   6.500   2.001
 5791W        W 9855   4.533   4.139   1.299
 5792W        W 9856   0.475   4.567  10.542
 5793W        W 9857   3.690   0.782   2.763
 5794W        W 9858   5.502   3.327  10.832
 5795W        W 9859   2.499   1.728  11.325
 5796W        W 9860   2.387   0.341   1.948
 5797W        W 9861   3.165   5.278   3.297
 5798W        W 9862   4.251  10.207  11.710
 5799W        W 9863   0.490   4.616   3.376
 5800W        W 9864   9.135   6.628  10.573
 5801W        W 9865  10.290   7.223   0.457
 5802W        W 9866   0.720   6.078   9.839
 5803W        W 9867   0.180   8.120   0.075
 5804W        W 9868   2.126   2.092   0.025
 5805W        W 9869   3.663   5.027   4.245
 5806W        W 9870   4.614   5.705   2.380
 5807W        W 9871   7.521   2.651   0.010
 5808W        W 9872   9.001   9.521  10.468
 5809W        W 9873  10.020  10.294  11.073
 5810W        W 9874   3.359   8.382   0.606
 5811W        W 9875   0.950  10.410   0.967
 5812W        W 9876   8.438   1.782  10.387
 5813W        W 9877   3.156   4.798   0.372
 5814W        W 9878   5.660   2.314   2.888
 5815W        W 9879   0.498   1.119  10.506
 5816W        W 9880   3.676   8.173   3.310
 5817W        W 9881   9.359   9.439   0.069
 5818W        W 9882   1.771   3.739  10.281
 5819W        W 9883   6.216   7.681  11.138
 5820W        W 9884   2.614  10.371   1.320
 5821W        W 9885   9.098   9.904   0.944
 5822W        W 9886   0.664   8.230  11.964
 5823W        W 9887   9.985   4.619  11.784
 5824W        W 9888   1.475   3.454   2.551
 5825W        W 9889   3.822   9.331   2.664
 5826W        W 9890   3.058   9.601   9.862
 5827W        W 9891   0.334   3.925   9.595
 5828W        W 9892   1.371   3.750   9.080
 5829W        W 9893   0.875   8.592   1.393
 5830W        W 9894   4.009   7.491   9.012
 5831W        W 9895   3.332   0.467   0.158
 5832W        W 9896   9.458   9.983   1.763
 5833W        W 9897   2.319   5.971   0.370
 5834W        W 9898   3.823   0.420  11.952
 5835W        W 9899   1.087   9.941   3.533
 5836W        W 9900   9.508   3.446  11.012
 5837W        W 9901   2.140   4.393   2.763
 5838W        W 9902   4.987   7.113   8.490
 5839W        W 9903   4.229   1.798   9.820
 5840W        W 9904   0.483  10.287   0.788
 5841W        W 9905   2.670   5.954  10.787
 5842W        W 9906   0.785   0.314   9.969
 5843W        W 9907   6.561   1.657  11.821
 5844W        W 9908   4.511   5.032   3.088
 5845W        W 9909   3.953   5.073   3.815
 5846W        W 9910   1.940   4.705   1.976
 5847W        W 9911   1.859   7.040   8.884
 5848W        W 9912   8.277   2.356   9.754
 5849W        W 9913   4.649   5.012  11.754
 5850W        W 9914   5.126   4.961  10.098
 5851W        W 9915   0.210   7.050   1.924
 5852W        W 9916  10.302   0.070   2.104
 5853W        W 9917   6.801   6.975   9.965
 5854W        W 9918   1.052   3.972  10.417
 5855W        W 9919   6.925   4.537   1.949
 5856W        W 9920   5.979   6.441   2.716
 5857W        W 9921   1.965   9.753   9.453
 5858W        W 9922   3.051  10.006  11.965
 5859W        W 9923   2.576   6.600  11.567
 5860W        W 9924   4.721   0.735  11.624
 5861W        W 9925   7.133   1.661   9.984
 5862W        W 9926   2.621  10.277   1.832
 5863W        W 9927  10.026   9.587   2.884
 5864W        W 9928   2.166   2.287   2.338
 5865W        W 9929   1.306   3.102  11.356
 5866W        W 9930   3.766   9.358   9.477
 5867W        W 9931   0.520  10.478  11.869
 5868W        W 9932   0.972   3.363  11.627
 5869W        W 9933  10.304   7.940   9.740
 5870W        W 9934   6.133   6.621   9.496
 5871W        W 9935   0.492   5.736  10.175
 5872W        W 9936   6.711   5.033   4.061
 5873W        W 9937   7.839   3.107   0.193
 5874W        W 9938   3.764   7.136   0.351
 5875W        W 9939   6.474   4.082  10.206
 5876W        W 9940   7.662   8.359   3.534
 5877W        W 9941   6.647   2.618  10.061
 5878W        W 9942   5.986   5.703   1.234
 5879W        W 9943   4.137   4.264   1.802
 5880W        W 9944  10.458  10.403  10.382
 5881W        W 9945   5.543   9.590  11.953
 5882W        W 9946   5.509   0.267   3.235
 5883W        W 9947   6.441   4.034  11.384
 5884W        W 9948   9.483   1.371   2.173
 5885W        W 9949   8.331   5.758  10.878
 5886W        W 9950   5.723   2.146   3.389
 5887W        W 9951   3.056   9.356   1.842
 5888W        W 9952   5.003   5.053   2.889
 5889W        W 9953   2.501   2.770   9.392
 5890W        W 9954   0.348   3.042   9.811
 5891W        W 9955   4.102   3.884  11.293
 5892W        W 9956   1.259   8.981   2.522
 5893W        W 9957   2.000   0.439   3.561
 5894W        W 9958   7.841   8.374   3.023
 5895W        W 9959   6.511   7.296   1.749
 5896W        W 9960   7.255   0.827   9.986
 5897W        W 9961   1.160   8.159   3.524
 5898W        W 9962   6.615   5.666   3.845
 5899W        W 9963   2.324   5.191  10.205
 5900W        W 9964   4.983   3.399   8.073
 5901W        W 9965   1.138   4.313   1.008
 5902W        W 9966   1.592   4.955   9.919
 5903W        W 9967   8.658   1.549   3.519
 5904W        W 9968   3.543   3.086   1.917
 5905W        W 9969   2.217   5.270   3.510
 5906W        W 9970   5.544   2.631   3.318
 5907W        W 9971   7.242   6.228   0.456
 5908W        W 9972   5.227   1.345  11.675
 5909W        W 9973   9.092   7.068   0.649
 5910W        W 9974   2.292   2.810   9.894
 5911W        W 9975  10.034   4.025  10.514
 5912W        W 9976  10.077   1.329  10.214
 5913W        W 9977   7.719   9.489   2.613
 5914W        W 9978   0.862   1.636  10.285
 5915W        W 9979   3.772   8.458  11.022
 5916W        W 9980   3.089   0.023   0.002
 5917W        W 9981   1.990   9.355   1.014
 5918W        W 9982   5.468   7.023   3.157
 5919W        W 9983   9.714  10.416   0.448
 5920W        W 9984   4.300   2.438  10.306
 5921W        W 9985   7.710   8.025   0.285
 5922W        W 9986   4.701   1.394   1.516
 5923W        W 9987   6.577   9.700  11.985
 5924W        W 9988   3.290   5.759   2.295
 5925W        W 9989   6.028   4.293   9.979
 5926W        W 9990   5.006   1.286   9.185
 5927W        W 9991   6.946   9.493  10.531
 5928W        W 9992   0.605   6.615   0.521
 5929W        W 9993   8.890  10.368   9.041
 5930W        W 9994   9.146   7.020   9.855
 5931W        W 9995   9.360   5.156   0.751
 5932W        W 9996   9.903   7.543   9.842
 5933W        W 9997   9.666   0.439   2.398
 5934W        W 9998   2.320   9.785   1.039
 5935W        W 9999   8.173   3.134   2.019
 5936W        W10000   3.287   1.293   2.284
 5937W        W10001   6.030   1.814   2.974
 5938W        W10002   6.090   7.400  10.319
 5939W        W10003   2.438   9.455   2.687
 5940W        W10004   7.216   1.189   9.628
 5941W        W10005   2.708   1.979  10.013
 5942W        W10006   8.611   9.513  10.833
 5943W        W10007   9.298   7.055   1.978
 5944W        W10008   5.712   6.073   2.479
 5945W        W10009   3.925   1.361  11.397
 5946W        W10010   3.251   4.317   1.283
 5947W        W10011   4.539   4.064   9.855
 5948W        W10012   5.228   5.611   3.099
 5949W        W10013   7.936   3.559   2.652
 5950W        W10014   2.790   3.364  10.742
 5951W        W10015   4.732  10.030   8.844
 5952W        W10016   1.873  10.299   8.732
 5953W        W10017   7.414   4.994   9.993
 5954W        W10018   1.906   2.329   0.479
 5955W        W10019   1.082   5.550   1.109
 5956W        W10020  10.270   8.023   1.368
 5957W        W10021   0.833   8.097  11.470
 5958W        W10022   0.932   0.122   8.601
 5959W        W10023   5.419   7.568   4.198
 5960W        W10024   0.004   5.880   2.474
 5961W        W10025   5.430   0.384   9.398
 5962W        W10026  10.453   7.016   9.258
 5963W        W10027   4.599   7.404  11.621
 5964W        W10028   1.316   2.378   9.201
 5965W        W10029   6.993   7.691  11.558
 5966W        W10030   5.274   2.157  10.084
 5967W        W10031   5.477   3.994  11.675
 5968W        W10032   3.292   5.583   3.689
 5969W        W10033   1.784   7.582   3.154
 5970W        W10034   9.025   1.527   2.307
 5971W        W10035   4.357   4.519   9.506
 5972W        W10036   6.588   2.114   0.046
 5973W        W10037   4.660  10.479  11.594
 5974W        W10038   3.192   7.048   9.989
 5975W        W10039   4.627   4.418   8.389
 5976W        W10040   3.245   9.910   2.715
 5977W        W10041   3.414   3.506   3.357
 5978W        W10042   5.755   5.599   8.596
 5979W        W10043   6.059  10.075  11.062
 5980W        W10044   2.541   9.431   1.802
 5981W        W10045   2.992   6.101   3.121
 5982W        W10046  10.030   9.730   0.802
 5983W        W10047   9.852   1.692   2.894
 5984W        W10048   5.550   4.380   8.476
 5985W        W10049   2.545   9.159  10.507
 5986W        W10050   1.262  10.337   0.533
 5987W        W10051   9.202   0.988   2.364
 5988W        W10052   5.102   8.173   0.453
 5989W        W10053  10.218   8.830   9.135
 5990W        W10054   9.336   1.353   2.721
 5991W        W10055  10.042   1.754   9.026
 5992W        W10056   2.518   8.234   0.826
 5993W        W10057   8.470   1.073  10.518
 5994W        W10058   3.693   7.121   1.028
 5995W        W10059   6.612   6.589  10.242
 5996W        W10060   3.021   2.709   9.294
 5997W        W10061   8.916   6.098   3.237
 5998W        W10062   8.711   3.905   3.696
 5999W        W10063   9.134  10.238  11.000
 6000W        W10064   9.882   8.895   3.287
 6001W        W10065   5.697   4.756   9.005
 6002W        W10066   0.286   2.235   1.279
 6003W        W10067   2.666   3.852  10.749
 6004W        W10068  10.258   2.658   1.529
 6005W        W10069   3.381   8.459   2.655
 6006W        W10070   5.485   2.270   8.806
 6007W        W10071   3.683   4.111   3.583
 6008W        W10072   5.619   4.903   8.515
 6009W        W10073   3.346   7.497   9.725
 6010W        W10074   4.668   8.137   1.433
 6011W        W10075   8.966   1.735   2.788
 6012W        W10076   9.506   9.934   1.257
 6013W        W10077   8.702   2.725   9.092
 6014W        W10078   2.619   3.074  10.325
 6015W        W10079   2.300   3.843  10.309
 6016W        W10080   0.642   7.597  10.557
 6017W        W10081   6.702   1.662  11.298
 6018W        W10082   8.563   8.844   0.021
 6019W        W10083   2.272   9.874   1.910
 6020W        W10084   6.350   0.445   8.997
 6021W        W10085   7.345   5.751   0.233
 6022W        W10086   9.851   9.206   8.926
 6023W        W10087   6.713   7.843   3.342
 6024W        W10088   1.845   6.537   1.115
 6025W        W10089   8.062   9.449   1.081
 6026W        W10090   7.401   5.606   0.707
 6027W        W10091   0.294   4.737   9.581
 6028W        W10092   1.644   1.989   0.180
 6029W        W10093   2.230  10.300  11.946
 6030W        W10094   5.700   1.594   0.279
 6031W        W10095   0.801   1.257   9.333
 6032W        W10096   2.634   5.500   9.524
 6033W        W10097   2.908   4.304   3.235
 6034W        W10098   8.895  10.431   2.709
 6035W        W10099   1.855   3.730   8.919
 6036W        W10100   7.907  10.359   9.349
 6037W        W10101   5.222   1.886   1.690
 6038W        W10102   6.605   3.068  11.728
 6039W        W10103   6.373   3.290  10.715
 6040W        W10104   8.121   5.716  11.771
 6041W        W10105   8.947   5.294  11.960
 6042W        W10106   1.854   1.268   8.783
 6043W        W10107   8.790   0.172   1.236
 6044W        W10108   3.316   8.149   1.116
 6045W        W10109   0.682   9.814   8.932
 6046W        W10110   4.208   7.562   3.053
 6047W        W10111   5.486   5.004   9.417
 6048W        W10112   2.411   9.970   0.584
 6049W        W10113   1.767   5.679   2.790
 6050W        W10114   6.516  10.465   1.140
 6051W        W10115   5.071   0.790  10.458
 6052W        W10116   6.030   2.246  10.773
 6053W        W10117   8.177   9.673   2.382
 6054W        W10118   7.282   7.955   1.794
 6055W        W10119   4.146   1.452   3.265
 6056W        W10120   4.045   2.651   2.216
 6057W        W10121   0.255   9.622  11.006
 6058W        W10122   6.936   1.354   1.683
 6059W        W10123   5.161   9.292   1.828
 6060W        W10124   8.191   2.455   0.853
 6061W        W10125   3.791   0.902  10.684
 6062W        W10126   5.995   7.226   2.468
 6063W        W10127   3.342   5.795   0.456
 6064W        W10128   6.872   8.922   9.422
 6065W        W10129   7.583   7.608  10.516
 6066W        W10130   3.480   5.501   0.861
 6067W        W10131   2.025   5.352  11.727
 6068W        W10132   8.549   0.713   0.076
 6069W        W10133   0.404   2.387   0.792
 6070W        W10134   9.788   7.873   9.020
 6071W        W10135   1.816   2.681   0.864
 6072W        W10136   7.896  10.337  10.974
 6073W        W10137   9.154   0.321  10.470
 6074W        W10138   5.865   8.422   8.374
 6075W        W10139   5.107   5.169  11.967
 6076W        W10140   4.684   7.386   1.796
 6077W        W10141   4.291   4.667   2.749
 6078W        W10142   0.960   5.539   2.451
 6079W        W10143   6.129   0.471  11.647
 6080W        W10144   7.925   5.217  11.850
 6081W        W10145   7.138   1.686   9.470
 6082W        W10146   5.732   7.544   9.561
 6083W        W10147   9.286   8.750   9.401
 6084W        W10148   7.563   4.977   1.105
 6085W        W10149   8.827   0.704  10.313
 6086W        W10150   1.738   1.791   0.651
 6087W        W10151   1.694   0.793   1.580
 6088W        W10152   1.186   5.179   3.448
 6089W        W10153  10.248   2.792   2.405
 6090W        W10154   0.003   8.944   1.651
 6091W        W10155   5.686   1.690  11.250
 6092W        W10156   8.077   1.296   0.359
 6093W        W10157   2.177  10.469   9.579
 6094W        W10158   2.648   6.362  11.098
 6095W        W10159   4.153   9.458   3.163
 6096W        W10160   8.852   5.094   0.833
 6097W        W10161   9.525   9.051   0.822
 6098W        W10162   9.291   9.826  10.079
 6099W        W10163   2.852   3.158   9.475
 6100W        W10164   3.116   6.209  10.058
 6101W        W10165   6.650   3.215   2.227
 6102W        W10166   7.017   6.930   3.152
 6103W        W10167   8.688   2.384  11.110
 6104W        W10168   3.145   4.381  11.425
 6105W        W10169   4.180   0.045   9.551
 6106W        W10170   6.632   7.601   9.559
 6107W        W10171   2.459   1.642  10.272
 6108W        W10172   0.249   5.721  11.544
 6109W        W10173   8.416   7.771  11.454
 6110W        W10174   0.201   1.783  11.166
 6111W        W10175   4.578   9.583   9.035
 6112W        W10176   3.518   2.829   9.204
 6113W        W10177   0.072   1.355  10.342
 6114W        W10178   7.604   0.640   0.816
 6115W        W10179   2.183   8.139  10.170
 6116W        W10180   8.981   1.214  10.256
 6117W        W10181   3.829   8.023  11.345
 6118W        W10182   8.996   5.517   0.495
 6119W        W10183   6.465   4.441   8.413
 6120W        W10184   7.937   2.821  11.766
 6121W        W10185   6.395   0.976   0.398
 6122W        W10186   7.090   5.485   3.322
 6123W        W10187   3.459   5.029   0.012
 6124W        W10188   4.657   0.226   3.429
 6125W        W10189   1.569  10.136   3.665
 6126W        W10190   3.620   3.152   8.791
 6127W        W10191   2.919   4.737   2.495
 6128W        W10192   7.109   4.069   2.077
 6129W        W10193   9.821   7.446   3.159
 6130W        W10194   2.677   5.005   0.437
 6131W        W10195   8.888   7.689   9.203
 6132W        W10196   6.850   1.200  10.000
 6133W        W10197   5.881   8.134   0.436
 6134W        W10198   7.134   4.806   3.862
 6135W        W10199   4.560   0.008   1.013
 6136W        W10200   8.541   4.040  11.364
 6137W        W10201   3.167   5.698  11.249
 6138W        W10202   5.609   2.653   1.896
 6139W        W10203   6.369   8.796   9.544
 6140W        W10204   2.584   1.948   2.173
 6141W        W10205   3.369   9.766   1.838
 6142W        W10206   0.685   7.439   8.389
 6143W        W10207   5.626   8.311   1.175
 6144W        W10208   2.476   4.813   9.869
 6145W        W10209   0.250   4.355  11.966
 6146W        W10210   3.698   0.874   1.211
 6147W        W10211   0.446   3.835   9.107
 6148W        W10212   5.905   9.579   2.502
 6149W        W10213   1.699   3.805   1.832
 6150W        W10214   4.787   6.247   2.427
 6151W        W10215   1.687   8.119   3.314
 6152W        W10216   1.722   3.930   9.424
 6153W        W10217   4.717   0.770  11.092
 6154W        W10218   9.889   8.501  11.494
 6155W        W10219   0.408   6.166   2.500
 6156W        W10220   2.345   1.732   9.767
 6157W        W10221   8.032   5.112   2.081
 6158W        W10222   5.488  10.336  10.197
 6159W        W10223   3.301   2.356   2.650
 6160W        W10224   1.911   3.599   3.329
 6161W        W10225   5.127   9.550   0.276
 6162W        W10226   6.003   1.304   2.830
 6163W        W10227   8.948   2.034   2.366
 6164W        W10228   9.141   5.081   1.825
 6165W        W10229   0.709   7.195   1.807
 6166W        W10230   2.270   4.159   0.881
 6167W        W10231   7.134   1.244   0.711
 6168W        W10232   7.597   2.853   0.959
 6169W        W10233   6.775   7.010   2.707
 6170W        W10234   9.479   8.371   2.503
 6171W        W10235   1.237   2.826   9.479
 6172W        W10236   2.210   9.323  11.880
 6173W        W10237   7.503   5.628  10.893
 6174W        W10238   0.385   0.849   0.919
 6175W        W10239   5.603   4.305   2.587
 6176W        W10240   1.419   3.392   0.308
 6177W        W10241   8.910   9.474   1.782
 6178W        W10242   4.715   5.761  11.361
 6179W        W10243   7.238   2.539   0.734
 6180W        W10244   3.700   7.989   1.431
 6181W        W10245   7.729  10.230  11.997
 6182W        W10246   0.386   5.973  11.135
 6183W        W10247   0.798   0.424  11.813
 6184W        W10248   3.107   3.562   0.011
 6185W        W10249   0.351   8.588   3.087
 6186W        W10250   4.243   9.203   9.473
 6187W        W10251   2.372   3.064   0.345
 6188W        W10252   3.099   2.758   3.518
 6189W        W10253   5.228   3.827   8.949
 6190W        W10254   2.827   8.855   1.151
 6191W        W10255  10.354   5.642   1.687
 6192W        W10256   0.957   2.127  10.438
 6193W        W10257   5.546   2.633   0.294
 6194W        W10258   6.467   4.303   8.913
 6195W        W10259   3.261   9.277  11.476
 6196W        W10260   3.756   4.685   0.993
 6197W        W10261   0.832   1.446   1.961
 6198W        W10262   9.521   1.609  11.751
 6199W        W10263   8.093   8.280   0.605
 6200W        W10264   1.844   5.080  10.326
 6201W        W10265   9.965   6.404   1.874
 6202W        W10266   4.940   6.442   0.326
 6203W        W10267   3.372   9.906  10.688
 6204W        W10268   6.564   2.456   2.864
 6205W        W10269   5.267   3.284   8.514
 6206W        W10270   8.942   3.136   8.890
 6207W        W10271   3.210   1.375  10.122
 6208W        W10272   9.788   6.570   8.878
 6209W        W10273   9.938   6.973   8.521
 6210W        W10274   4.617   1.541   2.872
 6211W        W10275   4.607   2.640   2.355
 6212W        W10276   3.979   4.243  11.650
 6213W        W10277   4.441   8.748   9.505
 6214W        W10278   6.251   6.916   0.004
 6215W        W10279   6.113   4.940   0.922
 6216W        W10280   2.768  10.117   2.307
 6217W        W10281   2.133  10.021   9.862
 6218W        W10282   4.693   0.994  10.195
 6219W        W10283   6.562   1.922   1.388
 6220W        W10284   6.086  10.410  10.280
 6221W        W10285   9.333   9.585   2.074
 6222W        W10286   8.637   5.804   8.522
 6223W        W10287   5.481   1.231   0.599
 6224W        W10288   0.634   9.858   9.822
 6225W        W10289   6.849   0.914   1.412
 6226W        W10290   5.220   3.201  11.733
 6227W        W10291   6.034   2.661   9.050
 6228W        W10292   0.395   8.983   3.533
 6229W        W10293   8.123   3.592   8.932
 6230W        W10294   0.684   1.810  11.969
 6231W        W10295   0.969   6.048   9.307
 6232W        W10296   8.051   7.584  10.855
 6233W        W10297   7.937   9.483   1.603
 6234W        W10298   6.944   3.768   9.703
 6235W        W10299   6.065   2.074   1.167
 6236W        W10300   9.308   7.504  10.612
 6237W        W10301   6.613   2.973   2.870
 6238W        W10302   5.634   9.373   1.719
 6239W        W10303   7.077   8.604  11.973
 6240W        W10304   2.842   2.375  10.897
 6241W        W10305   8.566   9.447   8.980
 6242W        W10306   1.286   6.053   1.021
 6243W        W10307   5.258   1.843  10.934
 6244W        W10308   9.092   6.983  11.159
 6245W        W10309   0.010   1.735   1.174
 6246W        W10310   6.554   0.740  10.027
 6247W        W10311   5.942   3.797   8.216
 6248W        W10312   9.250   2.206  10.006
 6249W        W10313   4.069   6.619   1.486
 6250W        W10314   5.184   9.022   9.959
 6251W        W10315   6.101   2.780   1.699
 6252W        W10316   5.213   4.666   9.701
 6253W        W10317   1.616   4.026   3.725
 6254W        W10318   7.357   5.167  11.026
 6255W        W10319   4.521   3.615   9.607
 6256W        W10320   1.989   1.394   2.786
 6257W        W10321   3.063   2.273   8.944
 6258W        W10322   9.481   8.266   0.288
 6259W        W10323   0.852   1.543   8.903
 6260W        W10324   3.855   7.705   1.838
 6261W        W10325   5.608   9.355  10.987
 6262W        W10326   0.714   2.983   1.519
 6263W        W10327   6.876   5.929   1.774
 6264W        W10328   3.072   4.036  11.065
 6265W        W10329   3.090   8.965   9.120
 6266W        W10330   9.879   2.225   0.684
 6267W        W10331   7.946   6.192   1.782
 6268W        W10332  10.235   0.768   0.315
 6269W        W10333   7.522   3.554   8.953
 6270W        W10334   5.891   0.525   9.619
 6271W        W10335   7.900   4.510   2.036
 6272W        W10336   6.922   0.272  10.557
 6273W        W10337   2.169   0.498  11.242
 6274W        W10338   3.315   0.746   2.413
 6275W        W10339   5.821   0.040   9.829
 6276W        W10340  10.185   1.282   3.397
 6277W        W10341   1.232   4.269  11.798
 6278W        W10342   6.670   6.088   8.803
 6279W        W10343   8.001   0.410   3.353
 6280W        W10344   1.426   0.296   2.057
 6281W        W10345   0.328   3.789   1.738
 6282W        W10346   7.943   9.985  10.613
 6283W        W10347   4.142   2.687   0.189
 6284W        W10348   9.507   5.192   9.061
 6285W        W10349   4.183   3.752   1.838
 6286W        W10350   6.622   3.826   2.488
 6287W        W10351   7.715   3.168   1.776
 6288W        W10352   5.401   0.424   2.751
 6289W        W10353   4.868   9.780   3.571
 6290W        W10354   3.768   2.131   8.525
 6291W        W10355   5.469   5.289   9.886
 6292W        W10356   3.112   4.773  10.582
 6293W        W10357   6.961   4.069  10.360
 6294W        W10358   0.330   1.691   3.097
 6295W        W10359   5.582   0.277  11.965
 6296W        W10360   3.303  10.314   3.415
 6297W        W10361   3.343   7.602   3.692
 6298W        W10362   1.265   1.711   0.388
 6299W        W10363   1.777   8.608   4.090
 6300W        W10364   3.733   1.174   3.070
 6301W        W10365   6.048   8.035  11.523
 6302W        W10366   2.851   3.132   0.161
 6303W        W10367   4.241   5.710   9.640
 6304W        W10368   3.656   8.684   1.839
 6305W        W10369   5.551   9.829   0.441
 6306W        W10370   2.280   4.728  11.748
 6307W        W10371   4.149   0.896   2.574
 6308W        W10372   6.787   3.237   1.737
 6309W        W10373   2.470   7.321  10.191
 6310W        W10374   7.924   0.338  11.055
 6311W        W10375   7.362   3.696   1.390
 6312W        W10376   9.847   5.985  11.435
 6313W        W10377   6.247   6.998   9.158
 6314W        W10378   9.159   0.877   9.917
 6315W        W10379   2.771   5.130  10.490
 6316W        W10380   7.491   2.856   2.966
 6317W        W10381   2.273   5.771   1.367
 6318W        W10382   1.228   0.487  11.548
 6319W        W10383   9.472   1.098  11.857
 6320W        W10384   6.071   8.810   9.963
 6321W        W10385   1.427   3.646   3.456
 6322W        W10386   4.840   8.900  11.819
 6323W        W10387   3.340   5.984   2.775
 6324W        W10388   9.081   2.724   9.996
 6325W        W10389   5.260   3.106   2.571
 6326W        W10390   8.952   4.948   1.328
 6327W        W10391   3.771   3.137   1.450
 6328W        W10392   3.204   7.770   1.479
 6329W        W10393  10.105   3.921   9.748
 6330W        W10394   0.031   0.358   1.686
 6331W        W10395   7.108   3.788  10.767
 6332W        W10396   7.885   3.146   8.784
 6333W        W10397   0.166   7.869   2.998
 6334W        W10398   8.435   5.135  11.866
 6335W        W10399   9.077   5.527   1.014
 6336W        W10400   5.787   1.606   3.407
 6337W        W10401   4.040   1.396  10.116
 6338W        W10402   3.125   8.801   1.927
 6339W        W10403   3.342   0.052   9.870
 6340W        W10404   2.441   6.450  10.234
 6341W        W10405   9.368   5.861   0.279
 6342W        W10406   3.158   6.582   3.493
 6343W        W10407   3.798  10.046   1.855
 6344W        W10408   3.347  10.032   9.823
 6345W        W10409   5.010   0.254   1.885
 6346W        W10410   5.315   8.071  10.305
 6347W        W10411   1.376   9.039   2.029
 6348W        W10412   1.390   2.254  10.135
 6349W        W10413   1.848   2.608   3.396
 6350W        W10414   0.194   3.741   2.764
 6351W        W10415   5.766   6.581  11.151
 6352W        W10416   8.041   9.372  11.350
 6353W        W10417   6.165   1.850  11.045
 6354W        W10418   5.086   8.077  11.364
 6355W        W10419   4.515   1.370   9.915
 6356W        W10420   6.165   7.109   0.469
 6357W        W10421   3.058   1.871   0.971
 6358W        W10422   6.979   4.699   1.484
 6359W        W10423   0.987  10.123   8.629
 6360W        W10424   6.302   8.247   3.262
 6361W        W10425   2.478   4.267  10.522
 6362W        W10426   2.126   0.775   9.941
 6363W        W10427   7.196   9.808   0.699
 6364W        W10428   9.326   1.874   2.044
 6365W        W10429   1.809   9.313   9.186
 6366W        W10430   5.577   8.691  11.815
 6367W        W10431   9.774   4.594  11.308
 6368W        W10432   7.104   5.936   2.601
 6369W        W10433   1.823   5.668  11.001
 6370W        W10434   9.342   4.948  11.945
 6371W        W10435   3.182   1.277   9.113
 6372W        W10436   7.871  10.255  11.499
 6373W        W10437   1.564   0.216  11.868
 6374W        W10438   6.354   5.561   2.479
 6375W        W10439   8.546   1.003  11.056
 6376W        W10440   0.630   4.582   1.863
 6377W        W10441   7.515   7.125   0.674
 6378W        W10442   6.617   4.722   3.093
 6379W        W10443   8.520  10.345   3.065
 6380W        W10444   8.074   1.800   2.774
 6381W        W10445   7.068   0.484   0.621
 6382W        W10446   2.216   3.243   2.377
 6383W        W10447   3.199   4.711   9.552
 6384W        W10448   9.314   9.901  10.583
 6385W        W10449   5.342   3.072   2.071
 6386W        W10450   4.122   7.962   3.409
 6387W        W10451   2.406   4.122   2.322
 6388W        W10452   0.726   4.224   0.700
 6389W        W10453   9.427   9.676   9.100
 6390W        W10454   5.752   1.153  11.986
 6391W        W10455   8.842   2.321   1.948
 6392W        W10456   6.968   0.413   8.948
 6393W        W10457   8.927   5.673   1.947
 6394W        W10458   1.719   3.767  10.776
 6395W        W10459   9.684   3.557   3.569
 6396W        W10460   8.442   8.473  10.943
 6397W        W10461   8.085   0.443   0.617
 6398W        W10462   0.796   3.125  10.047
 6399W        W10463   6.225   9.605   0.972
 6400W        W10464   5.316   9.946   0.953
 6401W        W10465  10.071   3.204   2.082
 6402W        W10466  10.390   9.280  10.014
 6403W        W10467   6.019   7.151  11.289
 6404W        W10468   2.359   1.467   1.280
 6405W        W10469   6.729   3.204  10.255
 6406W        W10470   3.711   9.133   3.164
 6407W        W10471   2.838   6.170   8.841
 6408W        W10472   3.331   4.744   2.210
 6409W        W10473   3.574  10.477   0.700
 6410W        W10474   8.988   7.558   8.671
 6411W        W10475   9.698   8.751   9.089
 6412W        W10476  10.446   2.157   2.986
 6413W        W10477   2.373   2.114  10.505
 6414W        W10478   2.046   3.231   9.733
 6415W        W10479   6.897   1.829   1.892
 6416W        W10480   9.971   1.355   2.049
 6417W        W10481   9.786   9.154   2.865
 6418W        W10482   2.971   4.297  10.639
 6419W        W10483   5.613   4.493   9.426
 6420W        W10484   5.460   3.277   3.497
 6421W        W10485   0.378   7.252  11.554
 6422W        W10486   2.172   3.757  11.643
 6423W        W10487  10.051   3.457   9.044
 6424W        W10488   2.721   3.136   8.972
 6425W        W10489   8.614   3.845  10.612
 6426W        W10490   3.772   3.131   3.479
 6427W        W10491   7.291   7.166   2.773
 6428W        W10492   1.853   5.012   1.146
 6429W        W10493   6.833   9.880   9.413
 6430W        W10494   3.589   5.011   2.595
 6431W        W10495   0.401   7.864   0.449
 6432W        W10496   8.959   9.335   1.306
 6433W        W10497   5.766   1.753   9.478
 6434W        W10498   2.181   6.502   0.298
 6435W        W10499   5.326   2.879  10.955
 6436W        W10500   8.980   9.508   9.278
 6437W        W10501   7.205   5.222   8.483
 6438W        W10502   5.145   6.607  10.411
 6439W        W10503   9.484   4.065   0.268
 6440W        W10504   8.335   1.831   0.787
 6441W        W10505   9.131   6.115   3.701
 6442W        W10506   8.846   8.398   3.164
 6443W        W10507   1.721   0.558   0.235
 6444W        W10508   1.312  10.483  11.457
 6445W        W10509   9.968   8.554   2.432
 6446W        W10510   8.434   5.990   1.750
 6447W        W10511   1.223   7.194   3.055
 6448W        W10512   5.705   8.354   9.555
 6449W        W10513   4.290   4.782   8.615
 6450W        W10514   9.967   7.905  11.111
 6451W        W10515   7.349   5.116   3.051
 6452W        W10516   8.051   2.275   1.966
 6453W        W10517   6.448   9.840   0.470
 6454W        W10518   4.980   3.688   9.378
 6455W        W10519   6.163   6.304  11.356
 6456W        W10520   1.897   0.395   3.026
 6457W        W10521   2.187   4.686   9.453
 6458W        W10522   6.479   9.614   9.716
 6459W        W10523   4.936   8.044   2.303
 6460W        W10524   4.421   2.645   1.871
 6461W        W10525  10.247   9.643  10.953
 6462W        W10526   6.236   5.120   2.250
 6463W        W10527   5.467   3.328   1.497
 6464W        W10528   0.713   7.784   9.111
 6465W        W10529   6.186  10.461   3.182
 6466W        W10530   6.333   2.841   0.800
 6467W        W10531   5.456   1.133  10.507
 6468W        W10532   4.675   2.747  10.103
 6469W        W10533   1.850   6.184   2.315
 6470W        W10534   6.248   5.043   3.275
 6471W        W10535   1.608   6.564   8.842
 6472W        W10536   6.064   6.106   1.782
 6473W        W10537   5.708   4.318   1.395
 6474W        W10538   3.844   7.756   0.348
 6475W        W10539   0.441   6.603   3.394
 6476W        W10540   0.876   4.972  10.282
 6477W        W10541   0.155  10.205   2.064
 6478W        W10542   5.273   2.697  11.859
 6479W        W10543   9.572   3.124   0.253
 6480W        W10544  10.190   6.491   8.558
 6481W        W10545   5.236  10.428   2.827
 6482W        W10546   7.464   9.121   9.518
 6483W        W10547   4.468   6.467   0.148
 6484W        W10548   8.640   9.571   2.731
 6485W        W10549   2.381   4.234   1.394
 6486W        W10550  10.378   2.188   0.923
 6487W        W10551   8.011   7.935   9.999
 6488W        W10552   1.451   9.598  11.493
 6489W        W10553   5.677   7.229   3.573
 6490W        W10554   2.849   6.836   8.583
 6491W        W10555   3.021   3.478   0.536
 6492W        W10556   0.354   9.856   3.271
 6493W        W10557   5.512   9.353   2.257
 6494W        W10558   7.710   3.276   1.257
 6495W        W10559   6.157   4.117   4.136
 6496W        W10560   8.114   0.705   1.450
 6497W        W10561   0.415   4.108   1.337
 6498W        W10562   3.549   0.532  11.045
 6499W        W10563   4.790   9.856   1.753
 6500W        W10564   5.061   6.577   3.349
 6501W        W10565   1.843   1.388   0.987
 6502W        W10566   6.190   5.192   1.757
 6503W        W10567  10.039   5.794   2.305
 6504W        W10568   8.613   1.653  11.851
 6505W        W10569   6.032   8.551   1.880
 6506W        W10570   7.411   9.197   2.917
 6507W        W10571   8.854   8.360   1.964
 6508W        W10572   7.402   1.211   2.452
 6509W        W10573   9.569   9.500  11.559
 6510W        W10574   0.961   6.867   0.823
 6511W        W10575   7.004   0.782  11.392
 6512W        W10576   1.225   1.305   2.262
 6513W        W10577   1.665   9.079   3.375
 6514W        W10578   4.030   5.879  10.069
 6515W        W10579   2.646   2.486  11.769
 6516W        W10580   1.590   7.443  10.394
 6517W        W10581   1.184   1.002   1.347
 6518W        W10582   6.130   4.465   1.115
 6519W        W10583   3.364   2.588   1.848
 6520W        W10584   5.819   2.701  10.949
 6521W        W10585   8.314   7.314   1.145
 6522W        W10586   6.245   7.793   0.403
 6523W        W10587   0.548   4.075  10.447
 6524W        W10588   6.536   2.737   2.439
 6525W        W10589   2.216   2.835   1.151
 6526W        W10590   0.637  10.289   1.913
 6527W        W10591   6.316   1.327  10.227
 6528W        W10592   9.002   4.056   9.088
 6529W        W10593   8.819   2.810   0.523
 6530W        W10594   3.194   6.724   1.542
 6531W        W10595   5.191   0.881   1.897
 6532W        W10596   8.067   7.746   1.161
 6533W        W10597   8.261  10.478   9.712
 6534W        W10598   1.743   3.039   2.521
 6535W        W10599   1.786   6.125  10.703
 6536W        W10600   9.468   2.393   1.338
 6537W        W10601   4.936   6.390   1.941
 6538W        W10602   9.412   5.437   2.672
 6539W        W10603   4.810   8.666   9.889
 6540W        W10604   2.152   6.527  11.243
 6541W        W10605   4.625   3.355   2.590
 6542W        W10606   5.703   0.232  10.943
 6543W        W10607   1.415   8.508   2.746
 6544W        W10608   2.714   6.017  10.280
 6545W        W10609   2.788   2.207   0.242
 6546W        W10610   3.753   5.426   3.458
 6547W        W10611   4.561   6.061   2.010
 6548W        W10612   6.433   2.316   9.116
 6549W        W10613   1.850   2.254   2.752
 6550W        W10614   8.902   1.335   3.092
 6551W        W10615   7.200   1.064  10.811
 6552W        W10616   2.401   2.354   1.904
 6553W        W10617   0.925   1.131  10.226
 6554W        W10618   6.610   0.793   2.742
 6555W        W10619   0.368   9.921   2.783
 6556W        W10620   4.497   2.587   9.098
 6557W        W10621   2.210   1.427   9.382
 6558W        W10622   3.685   5.355   0.381
 6559W        W10623   8.547   6.358   0.255
 6560W        W10624   7.234  10.311  11.854
 6561W        W10625   3.625   8.458  10.534
 6562W        W10626   4.712   8.905   2.620
 6563W        W10627   7.910   2.673   2.752
 6564W        W10628   3.197   0.916   0.945
 6565W        W10629   1.582   3.104   0.719
 6566W        W10630   5.436   8.016   2.291
 6567W        W10631   9.354   3.625   2.442
 6568W        W10632   4.248   5.676  11.746
 6569W        W10633   1.035   2.819   8.537
 6570W        W10634   9.044   6.430  11.030
 6571W        W10635   3.778   6.955  10.490
 6572W        W10636   8.830   3.749   1.928
 6573W        W10637   9.946   7.791   3.558
 6574W        W10638   6.596   0.519   0.269
 6575W        W10639   3.305   6.583   9.791
 6576W        W10640  10.089   9.309  11.277
 6577W        W10641   5.768   4.314   3.093
 6578W        W10642   5.613   3.213   0.456
 6579W        W10643   0.778   9.005   3.202
 6580W        W10644   7.787   7.178  10.100
 6581W        W10645   8.499   6.026   9.026
 6582W        W10646   1.508   0.057   2.873
 6583W        W10647   0.433   0.325   0.758
 6584W        W10648   3.626   5.480  10.354
 6585W        W10649   8.819  10.324   0.857
 6586W        W10650   8.562   8.524   8.933
 6587W        W10651   5.854   4.379   2.137
 6588W        W10652   0.182   6.501   8.744
 6589W        W10653   6.567   6.778   8.809
 6590W        W10654   0.102   8.617  10.905
 6591W        W10655   7.836   3.662   9.345
 6592W        W10656   3.005   7.083   1.872
 6593W        W10657   7.876   7.672   2.164
 6594W        W10658   5.177  10.253   1.837
 6595W        W10659   5.654   4.080   3.975
 6596W        W10660   5.487   7.612  11.823
 6597W        W10661   6.164   2.801  11.946
 6598W        W10662   4.902   8.753   8.501
 6599W        W10663   5.520   0.752   0.204
 6600W        W10664   8.358   6.002   0.883
 6601W        W10665   5.196   5.999   2.748
 6602W        W10666   8.584   4.179   1.740
 6603W        W10667   6.203   3.716  10.423
 6604W        W10668   2.212   2.295   0.981
 6605W        W10669   9.425   5.361   0.265
 6606W        W10670   7.478   3.064   9.749
 6607W        W10671   5.803   4.782   3.313
 6608W        W10672   1.976   6.128  11.730
 6609W        W10673   4.136   4.893   9.781
 6610W        W10674   5.899   1.376   9.817
 6611W        W10675   1.846   6.959   1.444
 6612W        W10676   4.995   1.665   2.502
 6613W        W10677   3.729   2.258   2.088
 6614W        W10678   6.927   6.302   9.456
 6615W        W10679   3.405   1.902  11.242
 6616W        W10680   1.817   0.861   0.635
 6617W        W10681   3.332   4.489   0.792
 6618W        W10682   9.751   4.170   2.943
 6619W        W10683   4.448  10.424   8.635
 6620W        W10684   0.261   6.198  10.269
 6621W        W10685   3.310   1.137   2.778
 6622W        W10686   1.787   5.691   8.697
 6623W        W10687   8.454   8.559   8.417
 6624W        W10688   5.098   1.412  10.685
 6625W        W10689   0.754   5.481   1.511
 6626W        W10690   9.208   8.140   2.874
 6627W        W10691   6.524   5.601  11.169
 6628W        W10692  10.363   5.967  11.311
 6629W        W10693   9.456   6.881   0.073
 6630W        W10694   9.673   2.507  11.512
 6631W        W10695   7.533   8.487   8.427
 6632W        W10696   7.971   1.416   9.369
 6633W        W10697   0.810   7.503   1.397
 6634W        W10698   0.899   3.590   0.288
 6635W        W10699   1.607   0.821  11.320
 6636W        W10700  10.272   7.464  11.303
 6637W        W10701   8.428   8.055  11.859
 6638W        W10702   7.047   2.298   3.564
 6639W        W10703   3.121   3.539  11.087
 6640W        W10704   0.334   5.785   1.007
 6641W        W10705   4.258   0.746  10.872
 6642W        W10706   7.982   6.957   0.424
 6643W        W10707   1.401   7.559  11.847
 6644W        W10708   4.959   3.517   9.867
 6645W        W10709   1.888   7.217   2.292
 6646W        W10710   1.271   6.276  11.332
 6647W        W10711   4.200   8.580   1.799
 6648W        W10712   4.961  10.320  10.129
 6649W        W10713   7.979   4.086  10.517
 6650W        W10714   8.934   2.823   9.535
 6651W        W10715   2.390   6.177   9.047
 6652W        W10716   1.022   8.545  10.718
 6653W        W10717   8.987   9.954   1.963
 6654W        W10718   1.272   9.024   3.030
 6655W        W10719   7.268   3.941   9.207
 6656W        W10720   7.162   0.506   0.122
 6657W        W10721   8.705  10.412   9.984
 6658W        W10722   2.778   6.899   2.279
 6659W        W10723   4.750   7.357  11.153
 6660W        W10724   2.202   3.699   0.666
 6661W        W10725   4.767   3.601   1.005
 6662W        W10726   9.488   1.738   3.697
 6663W        W10727   9.880   3.794  10.961
 6664W        W10728   6.380   9.526   3.435
 6665W        W10729   3.325   4.564   2.726
 6666W        W10730   3.283   7.045   0.167
 6667W        W10731   6.723   9.580   0.863
 6668W        W10732   5.667   9.229   3.360
 6669W        W10733   4.255   1.305   0.705
 6670W        W10734   8.821   3.777  11.718
 6671W        W10735  10.039   2.234   0.211
 6672W        W10736   6.083   0.897   8.959
 6673W        W10737   6.381   0.955   3.481
 6674W        W10738   9.169   1.486   1.764
 6675W        W10739   2.295  10.223  11.444
 6676W        W10740   0.690   7.856   9.625
 6677W        W10741   4.342   3.066   2.272
 6678W        W10742   2.467   9.699   9.581
 6679W        W10743   0.769   1.919   1.793
 6680W        W10744   5.560   9.876   2.756
 6681W        W10745   0.033   0.690   2.673
 6682W        W10746   0.364   5.000  10.245
 6683W        W10747   2.873   7.444   9.890
 6684W        W10748   8.689   1.234   1.982
 6685W        W10749   9.975   4.845   3.242
 6686W        W10750  10.159   8.662   2.918
 6687W        W10751   2.664   6.240   9.821
 6688W        W10752   6.642   5.727  10.701
 6689W        W10753   2.163   8.234  11.875
 6690W        W10754   5.288   6.925  10.034
 6691W        W10755   0.241   6.002   2.948
 6692W        W10756   1.031   7.623  11.455
 6693W        W10757   8.127   3.501   0.748
 6694W        W10758  10.456  10.222  11.331
 6695W        W10759   0.568   9.453   2.907
 6696W        W10760   6.438   2.358  10.482
 6697W        W10761   4.214   7.074  11.673
 6698W        W10762   6.385   5.116   2.741
 6699W        W10763   2.222   1.629   0.654
 6700W        W10764   8.995   1.913   9.047
 6701W        W10765   2.243   2.724   3.067
 6702W        W10766   0.380   3.601   1.259
 6703W        W10767   8.856   8.600   9.642
 6704W        W10768   5.992   2.333   0.251
 6705W        W10769   6.321   9.800   1.714
 6706W        W10770   2.564   7.330  10.738
 6707W        W10771   3.233   8.899   0.537
 6708W        W10772   3.326   4.197  10.268
 6709W        W10773   0.023   8.399   9.033
 6710W        W10774   7.412  10.182   0.958
 6711W        W10775   3.160   1.845   9.861
 6712W        W10776   8.121   3.085   2.525
 6713W        W10777   6.016   4.576   8.642
 6714W        W10778   4.601   4.085   1.820
 6715W        W10779   0.164   8.970   8.887
 6716W        W10780   4.147   3.251   2.726
 6717W        W10781   2.659   5.693  11.262
 6718W        W10782   7.089  10.477   0.712
 6719W        W10783   2.292   1.175   0.854
 6720W        W10784   3.862   5.444   2.444
 6721W        W10785   4.008   4.139   9.487
 6722W        W10786   9.790   5.925   1.875
 6723W        W10787   3.222  10.226  11.072
 6724W        W10788   0.046   7.588   0.708
 6725W        W10789   4.116   5.952  10.930
 6726W        W10790   6.985   3.367  11.076
 6727W        W10791   1.272   9.936   2.895
 6728W        W10792   7.393  10.419   9.534
 6729W        W10793   2.307   7.521   3.246
 6730W        W10794  10.313   1.256   8.885
 6731W        W10795   5.176   6.041   1.310
 6732W        W10796   8.351   3.137   3.346
 6733W        W10797   9.961   6.940   3.172
 6734W        W10798   7.025  10.001   3.107
 6735W        W10799   4.288   1.687   1.423
 6736W        W10800   6.561   3.557  11.555
 6737W        W10801   1.343  10.018   0.941
 6738W        W10802   3.658   5.760   8.858
 6739W        W10803   9.977   3.369   0.773
 6740W        W10804   4.482   7.914   2.473
 6741W        W10805   6.509   5.702   1.112
 6742W        W10806   0.895   6.198   0.398
 6743W        W10807   0.861   5.976   1.302
 6744W        W10808  10.330   3.987   0.649
 6745W        W10809   6.560   7.047   2.226
 6746W        W10810   9.517  10.254  10.271
 6747W        W10811   9.571   2.415   2.957
 6748W        W10812   6.393   1.776   1.903
 6749W        W10813   2.169   8.968   0.710
 6750W        W10814   5.077   7.192   0.762
 6751W        W10815   3.274   6.086   1.886
 6752W        W10816   7.558  10.077   0.475
 6753W        W10817   0.383   9.423   0.398
 6754W        W10818   6.983   4.258   8.931
 6755W        W10819   5.669   6.012   1.474
 6756W        W10820   9.187   3.303  11.923
 6757W        W10821   6.559   8.646  10.075
 6758W        W10822   4.650   8.485  10.942
 6759W        W10823   9.958   3.821   3.229
 6760W        W10824   5.108   0.857  11.932
 6761W        W10825   0.240   5.848   9.748
 6762W        W10826   5.546   1.163   1.090
 6763W        W10827   4.154   3.537   3.149
 6764W        W10828   2.257   6.704   3.030
 6765W        W10829   7.670   0.863  10.937
 6766W        W10830   6.855   9.454   2.457
 6767W        W10831  10.269   7.933   9.220
 6768W        W10832   2.629   8.808   2.106
 6769W        W10833   8.965   6.679   0.060
 6770W        W10834   1.604   9.016   1.030
 6771W        W10835   7.999   0.445   0.040
 6772W        W10836   2.314   4.720   1.212
 6773W        W10837   2.597   9.855   1.450
 6774W        W10838   6.613   5.386  10.342
 6775W        W10839   7.493   2.731   8.497
 6776W        W10840   8.843   1.774   0.775
 6777W        W10841   1.235   5.443  10.893
 6778W        W10842   5.304   6.498  11.424
 6779W        W10843   2.354   8.668   1.111
 6780W        W10844   5.474   0.410   9.914
 6781W        W10845   8.880   2.579   2.396
 6782W        W10846   6.700   9.031   8.941
 6783W        W10847   5.452   7.131   9.598
 6784W        W10848   0.273   8.515   8.584
 6785W        W10849   8.563   4.268   0.731
 6786W        W10850   8.903   3.095  10.442
 6787W        W10851   5.182   0.871   3.147
 6788W        W10852   7.634   1.261   0.115
 6789W        W10853   7.645   9.155   0.887
 6790W        W10854   5.562   4.341  10.733
 6791W        W10855   9.811   2.893   0.917
 6792W        W10856   1.760  10.231   0.740
 6793W        W10857   2.391   4.668   1.721
 6794W        W10858   6.338   8.344   0.364
 6795W        W10859   0.254   4.559   1.497
 6796W        W10860   5.208   2.908   1.611
 6797W        W10861   6.786   9.532   9.043
 6798W        W10862   3.513   8.597   3.118
 6799W        W10863   1.431   8.608  10.379
 6800W        W10864   8.951   6.658   1.984
 6801W        W10865   1.756   8.608   3.127
 6802W        W10866   5.208   4.157   3.248
 6803W        W10867   8.165   9.562   3.486
 6804W        W10868   6.169   9.849  10.074
 6805W        W10869   7.803   5.914  10.080
 6806W        W10870   4.163   0.873   0.401
 6807W        W10871   9.843   7.462   9.314
 6808W        W10872   4.291   0.411   0.227
 6809W        W10873   7.130   6.034   8.581
 6810W        W10874   1.253   9.854  10.778
 6811W        W10875   9.377   0.577  11.940
 6812W        W10876  10.255   5.784   0.222
 6813W        W10877   1.663   0.759   3.311
 6814W        W10878   2.453   4.610   0.717
 6815W        W10879   5.535   7.959   9.809
 6816W        W10880   5.185   5.655  10.409
 6817W        W10881   4.719   9.137   9.718
 6818W        W10882   8.330   3.278  11.293
 6819W        W10883  10.036  10.441   9.455
 6820W        W10884   6.878   8.970   1.668
 6821W        W10885   3.247   0.193  10.814
 6822W        W10886   4.478   8.080  10.693
 6823W        W10887   6.811   4.282  11.705
 6824W        W10888   9.850   4.797   2.371
 6825W        W10889   5.784   6.149   0.096
 6826W        W10890   5.110   1.393   1.818
 6827W        W10891   3.567   4.654  10.398
 6828W        W10892   5.743   8.426  11.381
 6829W        W10893   4.583   0.993   2.935
 6830W        W10894   0.536   3.297   2.859
 6831W        W10895   0.154   8.895   9.400
 6832W        W10896   4.969   1.690   0.041
 6833W        W10897  10.375   3.270   1.659
 6834W        W10898   8.982   0.975   8.930
 6835W        W10899   6.442   0.330  10.399
 6836W        W10900   3.322   9.599   0.112
 6837W        W10901   9.940   4.161   2.470
 6838W        W10902  10.317   2.251   2.481
 6839W        W10903   1.220   3.078   1.613
 6840W        W10904   2.980   1.737  11.488
 6841W        W10905   5.421   5.680   2.363
 6842W        W10906   8.885   3.691   9.451
 6843W        W10907   0.586   3.224   3.468
 6844W        W10908   3.959   8.930  11.966
 6845W        W10909   9.420   7.060   3.410
 6846W        W10910   6.542   5.441   1.991
 6847W        W10911   7.593   0.583   1.342
 6848W        W10912   5.592   6.984   2.308
 6849W        W10913   7.130   1.309   0.199
 6850W        W10914   5.431  10.396   0.295
 6851W        W10915   8.512  10.287   8.674
 6852W        W10916   8.881   7.177   0.193
 6853W        W10917   4.071   7.131  10.886
 6854W        W10918   8.834   5.097   9.832
 6855W        W10919   3.738   5.076   9.094
 6856W        W10920   0.379   2.244  11.924
 6857W        W10921   7.210   8.792   8.752
 6858W        W10922   0.122   9.425   3.475
 6859W        W10923   0.277   1.722  11.703
 6860W        W10924   1.767   2.114  11.611
 6861W        W10925   7.871   2.380   8.612
 6862W        W10926   4.258   4.022   3.114
 6863W        W10927   3.283  10.277  11.585
 6864W        W10928   7.605   1.648  10.213
 6865W        W10929   9.257   5.137   3.297
 6866W        W10930   9.598   9.999   0.755
 6867W        W10931   0.582   3.322  11.294
 6868W        W10932   1.756   2.623   8.999
 6869W        W10933   4.950   6.060   3.246
 6870W        W10934   9.921   6.786   2.245
 6871W        W10935   2.459   5.562   2.204
 6872W        W10936   5.019   1.705   3.134
 6873W        W10937   6.754   2.584   0.830
 6874W        W10938   5.442   2.193   9.590
 6875W        W10939   6.416   1.156   9.756
 6876W        W10940   7.956   2.285  11.874
 6877W        W10941   1.293   2.849   8.972
 6878W        W10942   1.266   7.353   0.331
 6879W        W10943   4.932   1.879   0.887
 6880W        W10944   0.838   4.261  10.829
 6881W        W10945   7.366   9.139  11.155
 6882W        W10946  10.040   5.239   9.340
 6883W        W10947   4.326   3.120  11.864
 6884W        W10948   3.391   1.301   0.250
 6885W        W10949   9.934   5.365   9.880
 6886W        W10950   7.400   4.145   3.876
 6887W        W10951   6.254   4.041   2.168
 6888W        W10952   2.112   1.909   1.973
 6889W        W10953   0.615   7.512   2.310
 6890W        W10954   6.437   3.337   9.016
 6891W        W10955   9.710   6.833   1.771
 6892W        W10956   5.691   8.871   2.998
 6893W        W10957  10.410   1.397   2.452
 6894W        W10958   0.337   4.207   2.037
 6895W        W10959   3.957   1.774  11.731
 6896W        W10960   0.363   1.770  10.319
 6897W        W10961   6.641   3.754   3.006
 6898W        W10962   8.608   5.546   0.825
 6899W        W10963   8.008   4.779   3.505
 6900W        W10964   7.144   9.426   0.000
 6901W        W10965   1.773   6.147  11.225
 6902W        W10966   2.609   7.944  11.983
 6903W        W10967   8.499   0.913  11.574
 6904W        W10968  10.097   5.499  10.493
 6905W        W10969   8.485   5.674   3.135
 6906W        W10970   3.691   0.235   9.548
 6907W        W10971   6.026   9.462   2.013
 6908W        W10972   0.838   0.629   8.449
 6909W        W10973   0.507  10.293   8.733
 6910W        W10974   9.006   9.290   8.774
 6911W        W10975   6.156   1.369  11.743
 6912W        W10976   0.052   8.508  10.400
 6913W        W10977   6.518   9.825  10.945
 6914W        W10978   2.670   2.627   8.895
 6915W        W10979   7.890   2.953  11.277
 6916W        W10980   0.870   3.533   9.188
 6917W        W10981   6.649   4.475  10.476
 6918W        W10982   2.595   5.138  11.009
 6919W        W10983   8.618   5.562  11.676
 6920W        W10984   4.419   1.321   0.237
 6921W        W10985   5.211   6.224   0.801
 6922W        W10986   6.415  10.044   8.212
 6923W        W10987   4.263   5.653   2.749
 6924W        W10988   9.960   7.989  10.121
 6925W        W10989   2.413   7.741   0.719
 6926W        W10990   9.003   3.630   1.187
 6927W        W10991   7.367   5.409  11.823
 6928W        W10992   8.326   3.667  11.840
 6929W        W10993   6.481   7.120   9.592
 6930W        W10994   9.949   7.080   0.097
 6931W        W10995   3.813   5.545   2.964
 6932W        W10996  10.479   0.902  11.895
 6933W        W10997   7.580  10.262   2.995
 6934W        W10998   5.108  10.442   3.355
 6935W        W10999   9.529   4.243   1.239
 6936W        W11000   7.537   4.681   3.196
 6937W        W11001   3.214  10.337   2.433
 6938W        W11002   6.916   3.120   3.687
 6939W        W11003   9.375   8.348  10.976
 6940W        W11004   7.998   7.122   3.235
 6941W        W11005   7.482   7.859   9.369
 6942W        W11006   8.423   3.354   2.856
 6943W        W11007   4.618   3.557   2.087
 6944W        W11008   6.436   4.922  10.445
 6945W        W11009   7.553   1.440   1.524
 6946W        W11010   6.045   4.583   0.563
 6947W        W11011   3.841   7.280   2.850
 6948W        W11012   8.570   0.677   1.719
 6949W        W11013   8.516   1.414  11.390
 6950W        W11014   1.247   4.706   1.356
 6951W        W11015   7.484   7.749  11.903
 6952W        W11016  10.324   2.701   9.142
 6953W        W11017   7.930   9.914   2.802
 6954W        W11018   4.498   6.612   2.199
 6955W        W11019   0.825   4.715   0.858
 6956W        W11020   7.061   4.732  11.545
 6957W        W11021   5.194   2.230  10.590
 6958W        W11022   1.696   4.709   0.448
 6959W        W11023   8.547  10.216   1.265
 6960W        W11024   0.124   8.022   0.998
 6961W        W11025   4.633   7.424  10.318
 6962W        W11026   8.437   9.024  11.528
 6963W        W11027   7.194   9.196   9.062
 6964W        W11028   6.281   6.097   9.962
 6965W        W11029   9.862  10.443   8.940
 6966W        W11030   5.947   1.907   0.610
 6967W        W11031   2.765   2.735   0.475
 6968W        W11032   0.284   5.117   2.157
 6969W        W11033   4.024   9.069   1.890
 6970W        W11034   1.876   5.099   1.659
 6971W        W11035   9.024   4.086   0.928
 6972W        W11036   0.407   5.606   0.517
 6973W        W11037   6.692   4.246   3.303
 6974W        W11038  10.458   7.886   3.501
 6975W        W11039   1.985   1.719  10.115
 6976W        W11040   7.575   0.697   3.151
 6977W        W11041   7.540   2.129   3.685
 6978W        W11042   1.217   8.638  11.691
 6979W        W11043   2.789   5.305  10.007
 6980W        W11044   2.378   2.735   3.550
 6981W        W11045  10.318   2.168   1.448
 6982W        W11046   6.017   1.721   8.659
 6983W        W11047   9.371   8.592   1.116
 6984W        W11048   0.760   3.721   0.799
 6985W        W11049   4.202   7.445   1.556
 6986W        W11050   6.325   4.665   0.138
 6987W        W11051   3.548   1.960   9.515
 6988W        W11052   3.162   6.412   3.987
 6989W        W11053   8.579   4.847   2.745
 6990W        W11054   9.334   0.165   9.017
 6991W        W11055   3.640   4.160   1.619
 6992W        W11056   1.601   4.211   0.778
 6993W        W11057   3.396   7.416   9.227
 6994W        W11058   9.889   9.065   9.447
 6995W        W11059   5.651   4.538   0.893
 6996W        W11060   2.239   4.695  10.348
 6997W        W11061  10.031   2.112  10.660
 6998W        W11062   9.244   9.851  11.800
 6999W        W11063   5.106  10.042   0.505
 7000W        W11064   1.197   0.311   2.539
 7001W        W11065   7.475   0.982  11.464
 7002W        W11066   9.969   2.281  11.172
 7003W        W11067   3.374   1.826  10.355
 7004W        W11068   7.995   4.794   9.982
 7005W        W11069   9.317   7.583   2.922
 7006W        W11070   6.420   0.355   2.928
 7007W        W11071   1.724   4.888   9.419
 7008W        W11072   3.721   1.514   9.358
 7009W        W11073   9.928   8.059   0.445
 7010W        W11074   8.835   1.004   0.389
 7011W        W11075   5.503   7.185  10.470
 7012W        W11076   2.391   9.437   0.682
 7013W        W11077   3.844   4.233  10.416
 7014W        W11078   4.797   4.263   2.268
 7015W        W11079   4.605   2.418   0.152
 7016W        W11080   8.427   5.562   0.142
 7017W        W11081   3.654  10.051  11.296
 7018W        W11082   9.067   4.784  11.336
 7019W        W11083   9.645   7.078   9.926
 7020W        W11084   4.638   8.641   8.975
 7021W        W11085   4.801   4.032  10.327
 7022W        W11086   1.952   0.788   9.004
 7023W        W11087   8.426  10.029   2.662
 7024W        W11088  10.051   5.630   3.650
 7025W        W11089   5.209   2.199   3.179
 7026W        W11090   6.916   5.544   0.034
 7027W        W11091   2.227   0.046   9.038
 7028W        W11092   8.158   5.167   2.572
 7029W        W11093   8.311   0.597  10.383
 7030W        W11094  10.005   5.234   8.823
 7031W        W11095   9.195   9.049  10.367
 7032W        W11096  10.052   4.580   2.790
 7033W        W11097   9.015   4.671  10.144
 7034W        W11098   5.778   4.809   1.300
 7035W        W11099   7.215   6.369   3.291
 7036W        W11100   1.681   3.591   9.805
 7037W        W11101   7.597   4.869   2.219
 7038W        W11102   3.726   1.840   8.971
 7039W        W11103   8.613   5.371   2.687
 7040W        W11104   4.070   9.971   3.149
 7041W        W11105   4.237   2.914   1.488
 7042W        W11106   7.127   4.494   3.454
 7043W        W11107   6.947   6.939  11.500
 7044W        W11108   9.788   4.505   0.241
 7045W        W11109   6.650   4.138   1.830
 7046W        W11110   2.634   6.814  10.859
 7047W        W11111   6.886   9.589   0.381
 7048W        W11112   1.658   3.484   8.507
 7049W        W11113  10.245   4.019   8.241
 7050W        W11114   5.465   9.500   8.963
 7051W        W11115   8.943   7.560   9.743
 7052W        W11116   1.305   3.830   0.074
 7053W        W11117   1.073   4.713   8.494
 7054W        W11118   4.548   3.596   9.075
 7055W        W11119   5.555   1.591   8.504
 7056W        W11120   0.868   7.936  10.094
 7057W        W11121  10.455  10.490  11.831
 7058W        W11122   1.441   2.267   1.384
 7059W        W11123   7.346   9.433   2.285
 7060W        W11124   5.537   6.705  11.955
 7061W        W11125   8.846   2.407   0.066
 7062W        W11126   6.451   3.079   8.542
 7063W        W11127   8.931   0.680  11.740
 7064W        W11128   0.302   4.488  11.477
 7065W        W11129   4.716   6.673   8.576
 7066W        W11130   6.710   6.765   9.302
 7067W        W11131   0.588   1.171   0.301
 7068W        W11132   9.256   2.414  11.785
 7069W        W11133   5.299   1.852  11.667
 7070W        W11134   1.179   1.795  11.863
 7071W        W11135  10.457   4.289   9.586
 7072W        W11136   1.027   3.286   2.416
 7073W        W11137   2.704   7.912   1.471
 7074W        W11138   3.276   6.042   9.060
 7075W        W11139   9.772   2.249   2.156
 7076W        W11140   4.255   2.208   1.486
 7077W        W11141   6.510   6.299   1.694
 7078W        W11142   3.089   6.562   2.003
 7079W        W11143   5.451   6.482   2.654
 7080W        W11144   0.830   9.831   3.113
 7081W        W11145   2.840   0.182   3.582
 7082W        W11146   7.889   2.050   0.957
 7083W        W11147   0.511   6.711   1.009
 7084W        W11148   2.188   1.271  10.479
 7085W        W11149   8.430   0.521   1.102
 7086W        W11150   7.902   1.858   1.707
 7087W        W11151   6.471   5.932   2.072
 7088W        W11152   6.662  10.363   2.888
 7089W        W11153   6.988   6.387   2.783
 7090W        W11154   4.288   2.146  11.873
 7091W        W11155   6.477   9.316   1.800
 7092W        W11156   6.102   2.721   2.727
 7093W        W11157   0.705   8.571  11.589
 7094W        W11158   2.285   7.213   1.445
 7095W        W11159   4.157  10.027  11.243
 7096W        W11160  10.299   6.432   2.310
 7097W        W11161  10.314   1.795  11.550
 7098W        W11162   9.279   4.209  10.075
 7099W        W11163   1.312   6.935  11.057
 7100W        W11164   3.738   7.490  10.524
 7101W        W11165   1.316   1.572  11.422
 7102W        W11166   9.576   0.037  11.221
 7103W        W11167   1.141   1.706  10.958
 7104W        W11168   0.381   3.276   1.786
 7105W        W11169   6.531   4.657   0.827
 7106W        W11170   0.030   9.102   0.166
 7107W        W11171   1.825   3.147   1.187
 7108W        W11172   9.879   7.480  10.845
 7109W        W11173   1.441   9.815   0.442
 7110W        W11174   1.605   4.317   1.909
 7111W        W11175   4.672   1.020   1.174
 7112W        W11176   6.879   6.649   1.306
 7113W        W11177   2.823   6.999  10.407
 7114W        W11178   3.549   6.994   9.606
 7115W        W11179   5.111   0.566   1.484
 7116W        W11180   1.990   4.274   0.439
 7117W        W11181   2.790   9.368   9.364
 7118W        W11182   9.112   8.758   3.531
 7119W        W11183   8.348   7.619   8.981
 7120W        W11184   4.057   7.007   9.573
 7121W        W11185   4.320   6.289   4.140
 7122W        W11186   0.820   0.385   1.857
 7123W        W11187   9.464   2.452   0.845
 7124W        W11188   9.856   5.043   1.532
 7125W        W11189   2.540   7.816   9.978
 7126W        W11190  10.208   0.528   3.081
 7127W        W11191   2.828   0.230   1.727
 7128W        W11192   3.349   4.751  11.028
 7129W        W11193   3.581   6.216   8.627
 7130W        W11194   9.545   2.505  11.013
 7131W        W11195   9.656   8.664   2.873
 7132W        W11196   5.513   9.369   9.483
 7133W        W11197   8.452   8.541   9.960
 7134W        W11198   7.863   5.412   8.871
 7135W        W11199   6.996   2.697   2.237
 7136W        W11200   2.607   1.864   2.666
 7137W        W11201   9.777   7.541  11.430
 7138W        W11202   6.920   3.527   9.223
 7139W        W11203   2.286   3.475  10.668
 7140W        W11204   9.191   9.139   0.457
 7141W        W11205   6.582  10.489   8.900
 7142W        W11206   9.025   2.048  10.858
 7143W        W11207   0.929   7.117  11.397
 7144W        W11208   1.428   5.622   3.264
 7145W        W11209   0.373   2.906   9.318
 7146W        W11210  10.306   5.998  10.480
 7147W        W11211   9.148   5.162   9.436
 7148W        W11212   0.529   3.258   2.329
 7149W        W11213   7.467   2.215  11.727
 7150W        W11214   0.172   1.363   3.500
 7151W        W11215  10.264   4.233  10.928
 7152W        W11216  10.384   2.910   9.623
 7153W        W11217   5.464   7.859   0.271
 7154W        W11218   4.767   7.355   1.293
 7155W        W11219   4.624   2.841   0.442
 7156W        W11220   2.382   7.418  11.228
 7157W        W11221   9.306  10.057   2.793
 7158W        W11222   6.600   5.219   3.601
 7159W        W11223   3.609   0.253   3.531
 7160W        W11224   6.206   5.729  10.374
 7161W        W11225   2.593   0.192   0.009
 7162W        W11226   1.452   4.898   1.820
 7163W        W11227   1.881   8.906   9.814
 7164W        W11228  10.249   1.096  10.983
 7165W        W11229   4.290   4.715   0.950
 7166W        W11230   1.804  10.387  11.155
 7167W        W11231   0.384   6.144   0.639
 7168W        W11232   6.782   1.667   0.917
 7169W        W11233   0.911   3.858  11.742
 7170W        W11234   6.183   3.331   8.094
 7171W        W11235   3.586   6.633   0.206
 7172W        W11236   6.991   5.022   9.378
 7173W        W11237   7.353   9.497  11.541
 7174W        W11238   4.644   9.621   1.041
 7175W        W11239   2.612   4.714  10.729
 7176W        W11240   5.444   7.030   3.977
 7177W        W11241   9.667   7.616   2.150
 7178W        W11242   9.720   3.001  11.342
 7179W        W11243   6.230   5.276   1.277
 7180W        W11244   0.331   3.168  10.311
 7181W        W11245   0.434   8.473   9.437
 7182W        W11246   3.808   8.446   2.355
 7183W        W11247   9.591   8.766   2.171
 7184W        W11248   8.352   2.292  11.489
 7185W        W11249   0.173   2.147  10.001
 7186W        W11250   4.971   0.388   9.152
 7187W        W11251   5.109   7.696   0.637
 7188W        W11252  10.045  10.279   0.801
 7189W        W11253   2.305   6.448  10.721
 7190W        W11254   4.987   5.338   1.630
 7191W        W11255   9.495   1.399   1.292
 7192W        W11256   1.900   4.429  11.474
 7193W        W11257   7.712   6.661  11.361
 7194W        W11258   6.680   5.271   3.109
 7195W        W11259   1.259   5.910   1.955
 7196W        W11260   7.107   4.031   3.057
 7197W        W11261   1.821   6.164   0.252
 7198W        W11262   7.571   7.309   2.352
 7199W        W11263   5.529   9.427  10.483
 7200W        W11264   2.692   6.399   2.298
 7201W        W11265   4.068   9.047   0.490
 7202W        W11266   6.103   2.380   0.745
 7203W        W11267   0.802   8.097   2.252
 7204W        W11268   3.195   6.510   8.826
 7205W        W11269   1.699   8.825   8.929
 7206W        W11270   1.321   5.207  10.426
 7207W        W11271   5.598   2.834   2.839
 7208W        W11272   3.223   1.855   0.495
 7209W        W11273   1.616   6.960   1.902
 7210W        W11274   6.210   3.034   9.361
 7211W        W11275   4.882   8.034   3.583
 7212W        W11276   7.523   9.553   9.253
 7213W        W11277   6.663   1.714   2.355
 7214W        W11278   2.794   2.841   9.873
 7215W        W11279  10.258   2.813  10.548
 7216W        W11280   1.784   6.914  11.255
 7217W        W11281   5.944   8.098  11.013
 7218W        W11282   4.145   5.753   2.126
 7219W        W11283   9.985   7.572   1.323
 7220W        W11284   0.811   9.415  10.044
 7221W        W11285   4.191   5.591  11.259
 7222W        W11286   1.342   8.161  11.558
 7223W        W11287   8.598   3.756   1.460
 7224W        W11288   6.886   0.909   0.395
 7225W        W11289   4.730   5.403  10.424
 7226W        W11290   9.847   8.045   2.331
 7227W        W11291   7.083  10.449   8.684
 7228W        W11292   8.126   8.199  11.324
 7229W        W11293   3.032   2.363  10.022
 7230W        W11294   7.588   6.870  10.895
 7231W        W11295   4.096   4.271   9.974
 7232W        W11296  10.291   6.225   0.484
 7233W        W11297   6.392   9.715   2.571
 7234W        W11298   5.045   9.577  11.754
 7235W        W11299   8.639   4.428   2.417
 7236W        W11300   1.619   7.252   2.731
 7237W        W11301   7.500   7.024   3.280
 7238W        W11302   9.399   5.184   1.262
 7239W        W11303   8.317   9.187   2.368
 7240W        W11304   0.323   8.173  11.587
 7241W        W11305   9.914   1.710   3.439
 7242W        W11306   8.433   8.320   2.283
 7243W        W11307   6.914   4.647   8.599
 7244W        W11308   0.593   7.199   1.047
 7245W        W11309   0.784  10.438  10.970
 7246W        W11310   4.199   9.330   2.299
 7247W        W11311   6.519   2.135   0.907
 7248W        W11312   0.792   6.988  10.274
 7249W        W11313   2.839   5.889   3.930
 7250W        W11314   4.077   6.628  11.426
 7251W        W11315   5.950   6.919  10.500
 7252W        W11316   8.393   8.568   9.448
 7253W        W11317   9.424   0.667   9.016
 7254W        W11318   8.102   5.174   0.328
 7255W        W11319   4.786   4.186   0.275
 7256W        W11320   9.879   0.864  10.294
 7257W        W11321   2.905   6.633   9.502
 7258W        W11322   6.854   5.921   0.371
 7259W        W11323  10.431   6.578   1.750
 7260W        W11324   7.381   4.474   9.853
 7261W        W11325   7.937   3.166   2.995
 7262W        W11326   1.387   4.699   0.029
 7263W        W11327   6.273   0.416   1.078
 7264W        W11328   3.124   0.850  10.179
 7265W        W11329   9.502   8.044   1.625
 7266W        W11330   2.109   4.994   0.611
 7267W        W11331   4.199   9.394  11.883
 7268W        W11332   2.807   6.968   0.937
 7269W        W11333   2.737   3.843  11.433
 7270W        W11334   1.702  10.333   9.719
 7271W        W11335   0.886   5.510   8.629
 7272W        W11336   5.965   6.875   3.328
 7273W        W11337   7.419   7.574   0.405
 7274W        W11338   5.217   0.543   2.287
 7275W        W11339   3.278   9.684  11.137
 7276W        W11340   9.245   7.068  10.344
 7277W        W11341   4.978   5.574   0.278
 7278W        W11342   1.776   1.397  11.255
 7279W        W11343   0.568   5.172   8.902
 7280W        W11344   5.743   9.412   0.928
 7281W        W11345   5.036   6.987  11.381
 7282W        W11346   0.880   9.893   1.689
 7283W        W11347   1.677   9.781   9.000
 7284W        W11348   8.979   6.620   9.544
 7285W        W11349   9.907   2.668  11.959
 7286W        W11350   8.004   8.385   8.608
 7287W        W11351   1.961   5.677   2.286
 7288W        W11352   7.839   7.507   9.211
 7289W        W11353   5.485   5.729   9.027
 7290W        W11354   0.308   3.559   9.975
 7291W        W11355  10.361   6.604  11.842
 7292W        W11356   3.335   3.064  11.993
 7293W        W11357   4.558   7.688   9.904
 7294W        W11358   8.417   2.113  11.974
 7295W        W11359   6.541   7.514  10.613
 7296W        W11360   2.837   2.368   2.900
 7297W        W11361   7.465   2.009   9.813
 7298W        W11362   3.636   5.016   9.599
 7299W        W11363   9.381   7.865   2.494
 7300W        W11364   5.943   8.656   0.327
 7301W        W11365   3.587   3.822   9.404
 7302W        W11366   0.266   6.539   2.140
 7303W        W11367   2.360   5.130   9.298
 7304W        W11368   9.790   8.061   1.208
 7305W        W11369   9.348  10.159   8.882
 7306W        W11370   7.369   1.767  11.967
 7307W        W11371   1.484   3.192   2.990
 7308W        W11372   0.778  10.304  10.086
 7309W        W11373   0.854   7.719   3.579
 7310W        W11374   1.279   1.291   9.056
 7311W        W11375   8.063   0.297   9.059
 7312W        W11376   5.088   0.762   0.996
 7313ION    NA+11377   6.455   4.851   8.719
 7314ION    NA+11378   1.842  10.058   2.198
 7315ION    NA+11379   7.770   7.063  11.706
 7316ION    NA+11380   9.061   5.972   1.336
 7317ION    NA+11381   5.499   3.584   9.492
 7318ION    NA+11382   7.897   4.749   0.137
 7319ION    NA+11383   5.521   4.063   0.965
 7320ION    NA+11384   6.216   1.435  10.726
 7321ION    NA+11385   2.608   8.326   9.844
 7322ION    NA+11386   2.744   4.606  10.250
 7323ION    NA+11387   1.499   2.355  10.627
 7324ION    NA+11388  10.110   4.991  11.449
 7325ION    NA+11389   2.668   0.352  10.292
 7326ION    NA+11390   0.620   9.097   9.429
 7327ION    NA+11391   5.147   4.604   2.628
 7328ION    NA+11392   4.197   8.553   0.232
 7329ION    NA+11393   7.477   4.366   2.327
 7330ION    NA+11394   1.128   7.634   2.299
 7331ION    NA+11395   8.845   0.612   9.619
 7332ION    NA+11396   3.712   2.632  10.072
 7333ION    NA+11397   7.344   1.289   1.965
 7334ION    NA+11398   4.999   3.258   0.662
 7335ION    NA+11399   4.216   5.406   0.511
 7336ION    NA+11400   0.626   8.410  11.105
 7337ION    NA+11401   0.661   2.731   1.088
 7338ION    NA+11402   8.293   1.530   1.760
 7339ION    NA+11403   0.802   2.710   9.768
 7340ION    NA+11404   1.514   2.728   0.017
 7341ION    NA+11405   7.095   9.072   9.880
 7342ION    NA+11406   8.447   6.208   3.075
 7343ION    NA+11407   2.937   9.503   2.714
 7344ION    NA+11408   8.895   9.120   2.644
 7345ION    NA+11409   2.394   2.137  11.019
 7346ION    NA+11410   0.929   5.164  11.984
 7347ION    NA+11411   9.659   2.105  11.846
 7348ION    NA+11412   7.062   7.192   0.371
 7349ION    NA+11413   2.325   1.246   9.949
 7350ION    NA+11414   4.986   4.087  11.776
 7351ION    NA+11415   6.543   7.774   9.051
 7352ION    NA+11416   8.637   8.247  11.405
 7353ION    NA+11417   2.703   6.477   0.336
 7354ION    NA+11418   1.664   5.179   2.683
 7355ION    NA+11419   5.152   8.238   0.947
 7356ION    NA+11420   5.645   6.085  11.208
 7357ION    NA+11421   3.065   7.114   9.505
 7358ION    NA+11422   6.708   9.171   3.235
 7359ION    NA+11423   1.698   7.129  10.788
 7360ION    NA+11424   0.022   1.639   9.177
 7361ION    NA+11425   1.413   8.295   0.563
 7362ION    NA+11426   7.895   8.740   9.381
 7363ION    NA+11427   8.363   9.045  10.868
 7364ION    NA+11428   4.404   1.507  11.414
 7365ION    NA+11429   3.125   2.882  11.287
 7366ION    NA+11430   3.812   3.876   0.660
 7367ION    NA+11431   7.675   7.861   1.461
 7368ION    NA+11432   9.040   5.112   2.795
 7369ION    NA+11433   6.792   1.675   3.153
 7370ION    NA+11434   3.454   8.387  11.449
 7371ION    NA+11435   9.864   9.523   1.250
 7372ION    NA+11436   7.032   3.130   2.547
 7373ION    NA+11437   6.200   2.549   1.234
 7374ION    NA+11438   3.994   2.266   0.933
 7375ION    NA+11439   5.980   9.648   9.615
 7376ION    NA+11440   9.957   9.829  11.387
 7377ION    NA+11441   9.024  10.327  10.427
 7378ION    NA+11442   1.186   9.116   0.756
 7379ION    NA+11443   8.554   7.012   2.987
 7380ION    NA+11444   3.740   1.669   3.023
 7381ION    NA+11445   5.999   7.003   8.721
 7382ION    NA+11446   6.580   0.716   0.782
 7383ION    NA+11447   8.463   6.862   0.221
 7384ION    NA+11448   7.086   6.449  11.701
 7385ION    NA+11449   1.405   4.476   8.929
 7386ION    NA+11450   1.651   0.367  10.340
 7387ION    NA+11451   2.981   3.945   0.315
 7388ION    NA+11452   2.082   0.190  11.632
 7389ION    NA+11453   3.865  10.131   0.456
 7390ION    CL-11454   5.832   5.588   2.665
 7391ION    CL-11455   8.191   9.860   1.349
 7392ION    CL-11456   6.205   0.548   0.600
 7393ION    CL-11457   6.574   1.699  10.780
 7394ION    CL-11458   7.502   7.272   9.529
 7395ION    CL-11459  10.170   8.334   0.956
 7396ION    CL-11460   4.075   5.275   9.428
 7397ION    CL-11461   1.570   7.675   2.359
 7398ION    CL-11462   1.920   5.503  10.029
 7399ION    CL-11463   9.432   7.645   3.451
 7400ION    CL-11464   5.538   2.623  11.363
 7401ION    CL-11465   2.840   9.886   8.351
 7402ION    CL-11466   4.109   6.395  10.084
 7403ION    CL-11467   2.454   4.122   3.051
 7404ION    CL-11468   1.191   8.694   0.586
 7405ION    CL-11469  10.465   5.182   9.595
 7406ION    CL-11470   9.145   9.483   2.559
 7407ION    CL-11471   2.121   8.425   3.408
 7408ION    CL-11472  10.231   7.897   0.059
 7409ION    CL-11473   0.288   1.598   0.217
 7410ION    CL-11474   7.806   7.424   1.448
 7411ION    CL-11475   7.675   8.350   9.352
 7412ION    CL-11476   2.905   2.917  11.675
 7413ION    CL-11477   4.245   5.259   0.088
 7414ION    CL-11478   0.615   8.808   9.090
 7415ION    CL-11479   1.957   6.477   1.608
 7416ION    CL-11480   7.876   6.396   9.121
 7417ION    CL-11481   7.374   6.796  11.774
 7418ION    CL-11482   5.485   7.383  11.340
 7419ION    CL-11483   2.727   2.380   3.416
 7420ION    CL-11484   0.981   4.788  11.749
 7421ION    CL-11485   0.289   3.937   0.872
 7422ION    CL-11486   8.678   6.575   2.932
 7423ION    CL-11487   1.064   8.483  11.212
 7424ION    CL-11488  10.200  10.008  11.731
 7425ION    CL-11489   7.247   6.268   1.329
 7426ION    CL-11490   9.693   6.170   3.670
 7427ION    CL-11491   3.902   1.911   1.189
 7428ION    CL-11492   2.948   3.260   2.938
 7429ION    CL-11493   6.231   4.731   9.086
 7430ION    CL-11494   4.481   1.669  11.822
 7431ION    CL-11495   1.910   0.594  11.728
 7432ION    CL-11496   7.845   2.163  10.989
 7433ION    CL-11497   9.840   8.004   9.531
 7434ION    CL-11498   9.709   9.601  11.078
 7435ION    CL-11499   6.514   9.287   2.841
 7436ION    CL-11500  10.068   2.212  11.705
 7437ION    CL-11501   3.413   3.869   0.439
 7438ION    CL-11502   2.134   3.751   2.129
 7439ION    CL-11503   8.863   7.927  11.621
 7440ION    CL-11504   3.695   1.455   2.629
 7441ION    CL-11505  10.372   3.746  10.817
 7442ION    CL-11506   7.356   8.158   1.327
 7443ION    CL-11507   6.761   1.286   9.416
 7444ION    CL-11508   4.144   4.803   1.781
 7445ION    CL-11509   9.312   5.908   1.697
 7446ION    CL-11510   0.243   8.163  11.087
 7447ION    CL-11511   6.314   6.626   1.284
 7448ION    CL-11512   8.646   0.919   9.874
 7449ION    CL-11513   8.807   3.100  11.492
 7450ION    CL-11514   9.366   0.789  11.417
 7451ION    CL-11515   4.797   8.412   9.427
 7452ION    CL-11516   0.037   0.346   0.197
 7453ION    CL-11517   5.091   4.487  11.976
 7454ION    CL-11518   3.801  10.040   9.135
 7455ION    CL-11519   1.302   4.269   2.353
 7456ION    CL-11520   8.161   7.083  11.962
 7457ION    CL-11521   9.080   1.776   3.380
 7458ION    CL-11522   3.252   7.579  10.743
 7459ION    CL-11523   9.570   6.683  10.257
 7460ION    CL-11524   4.456   8.908   0.154
 7461ION    CL-11525   7.700   5.964   2.167
 7462ION    CL-11526   1.496   4.193  10.515
 7463ION    CL-11527   0.709   6.565   2.440
 7464ION    CL-11528   8.361   5.552   8.896
 7465ION    CL-11529  10.190   4.151   8.718
 7466ION    CL-11530   5.074   3.722  11.516
  10.50000  10.50000  12.00000
