Protein in INSANE! Membrane UpperLeaflet>POPC=1.0 LowerLeaflet>POPC=1.0
11530
    1AU     AUC    1   5.256   5.279   6.003
    1AU     AUC    2   5.556   5.319   5.833
    1AU     AUC    3   5.535   5.300   6.170
    1AU     AUC    4   4.965   5.262   5.839
    1AU     AUC    5   4.970   5.259   6.190
    1AU     AUC    6   5.063   5.524   6.023
    1AU     AUC    7   5.406   5.557   6.004
    1AU     AUC    8   5.099   4.994   6.004
    1AU     AUC    9   5.460   5.043   5.994
    1AU     AUC   10   5.294   5.109   6.273
    1AU     AUC   11   5.238   5.438   6.283
    1AU     AUC   12   5.273   5.122   5.725
    1AU     AUC   13   5.269   5.456   5.731
    1AU     AUC   14   5.863   5.348   5.678
    1AU     AUC   15   5.902   5.344   5.998
    1AU     AUC   16   5.840   5.309   6.365
    1AU     AUC   17   4.663   5.240   5.668
    1AU     AUC   18   4.631   5.278   6.036
    1AU     AUC   19   4.690   5.244   6.372
    1AU     AUC   20   4.890   5.824   6.009
    1AU     AUC   21   5.234   5.888   5.991
    1AU     AUC   22   5.549   5.874   6.010
    1AU     AUC   23   4.927   4.675   6.005
    1AU     AUC   24   5.274   4.716   5.999
    1AU     AUC   25   5.667   4.765   5.967
    1AU     AUC   26   5.313   4.886   6.556
    1AU     AUC   27   5.260   5.211   6.599
    1AU     AUC   28   5.249   5.592   6.569
    1AU     AUC   29   5.272   4.931   5.434
    1AU     AUC   30   5.264   5.275   5.420
    1AU     AUC   31   5.280   5.630   5.434
    1AU     AUC   32   5.594   5.062   6.466
    1AU     AUC   33   5.559   5.429   6.509
    1AU     AUC   34   5.567   5.135   5.519
    1AU     AUC   35   5.586   5.496   5.508
    1AU     AUC   36   4.970   5.046   6.488
    1AU     AUC   37   4.963   5.411   6.500
    1AU     AUC   38   4.929   5.068   5.553
    1AU     AUC   39   4.933   5.439   5.530
    1AU     AUC   40   5.756   5.616   5.853
    1AU     AUC   41   5.702   5.589   6.210
    1AU     AUC   42   4.772   5.547   5.816
    1AU     AUC   43   4.756   5.563   6.206
    1AU     AUC   44   5.775   5.037   5.809
    1AU     AUC   45   5.788   5.015   6.134
    1AU     AUC   46   4.739   4.973   5.856
    1AU     AUC   47   4.778   4.970   6.187
    1AU     AUC   48   5.054   5.754   6.296
    1AU     AUC   49   5.393   5.759   6.306
    1AU     AUC   50   5.083   4.766   6.275
    1AU     AUC   51   5.496   4.791   6.295
    1AU     AUC   52   5.058   5.718   5.682
    1AU     AUC   53   5.454   5.759   5.676
    1AU     AUC   54   5.061   4.795   5.722
    1AU     AUC   55   5.453   4.826   5.674
    1AU    AUSL   56   5.848   5.211   6.723
    1AU    AUSL   57   5.705   4.734   6.588
    1AU     AUL   58   5.955   4.839   6.797
    1AU       S   59   6.128   4.471   6.586
    1AU     LIG   60   6.020   4.204   6.890
    1AU     LIG   61   6.114   3.778   7.030
    1AU       S   62   6.104   5.266   6.905
    1AU     LIG   63   6.052   5.392   7.333
    1AU     LIG   64   6.089   5.095   7.691
    1AU    AUSL   65   5.460   5.018   6.805
    1AU    AUSL   66   5.117   5.340   6.875
    1AU     AUL   67   5.318   5.194   7.131
    1AU       S   68   5.754   5.032   7.155
    1AU     LIG   69   5.582   5.098   7.565
    1AU     LIG   70   5.671   5.020   8.013
    1AU       S   71   4.579   5.121   7.203
    1AU     LIG   72   4.743   5.434   7.511
    1AU     LIG   73   4.677   5.480   7.972
    1AU    AUSL   74   5.463   5.436   6.673
    1AU    AUSL   75   5.868   5.631   6.637
    1AU     AUL   76   5.688   5.460   6.960
    1AU       S   77   5.290   5.689   7.112
    1AU     LIG   78   5.583   5.597   7.427
    1AU     LIG   79   5.809   5.506   7.812
    1AU       S   80   5.992   5.796   6.843
    1AU     LIG   81   6.411   5.769   6.893
    1AU     LIG   82   6.831   5.955   6.978
    1AU    AUSL   83   5.817   5.378   5.266
    1AU    AUSL   84   5.699   5.820   5.327
    1AU     AUL   85   5.833   5.646   4.993
    1AU       S   86   5.717   5.224   4.808
    1AU     LIG   87   6.056   5.224   4.493
    1AU     LIG   88   6.219   5.127   4.046
    1AU       S   89   6.046   5.930   5.283
    1AU     LIG   90   5.887   6.167   4.978
    1AU     LIG   91   6.054   6.586   4.833
    1AU    AUSL   92   5.473   5.127   5.240
    1AU    AUSL   93   5.808   5.059   5.557
    1AU     AUL   94   5.909   5.073   5.192
    1AU       S   95   6.131   4.503   5.208
    1AU     LIG   96   6.382   4.187   4.965
    1AU     LIG   97   6.549   4.143   4.517
    1AU       S   98   5.540   4.939   4.922
    1AU     LIG   99   5.820   4.664   4.670
    1AU     LIG  100   5.822   4.837   4.228
    1AU    AUSL  101   5.409   5.554   5.164
    1AU    AUSL  102   5.088   5.016   5.124
    1AU     AUL  103   5.269   5.317   4.936
    1AU       S  104   4.897   5.049   4.819
    1AU     LIG  105   5.016   5.034   4.392
    1AU     LIG  106   4.643   4.986   4.101
    1AU       S  107   5.519   5.046   4.628
    1AU     LIG  108   5.594   5.350   4.308
    1AU     LIG  109   5.925   5.554   4.040
    1AU    AUSL  110   4.748   5.211   6.695
    1AU    AUSL  111   4.987   5.685   6.671
    1AU     AUL  112   4.848   5.514   6.971
    1AU       S  113   4.515   5.196   6.903
    1AU     LIG  114   4.364   5.572   7.178
    1AU     LIG  115   4.247   5.513   7.647
    1AU       S  116   4.607   5.884   6.807
    1AU     LIG  117   4.445   6.184   7.070
    1AU     LIG  118   4.265   6.407   7.446
    1AU    AUSL  119   5.047   4.912   6.850
    1AU    AUSL  120   4.641   4.818   6.558
    1AU     AUL  121   4.729   4.789   6.850
    1AU       S  122   4.479   4.436   6.665
    1AU     LIG  123   4.027   4.539   6.779
    1AU     LIG  124   3.736   4.366   7.132
    1AU       S  125   4.847   5.080   7.171
    1AU     LIG  126   5.044   5.019   7.549
    1AU     LIG  127   4.797   4.975   7.930
    1AU    AUSL  128   4.710   5.166   5.269
    1AU    AUSL  129   4.978   4.859   5.505
    1AU     AUL  130   4.826   4.781   5.187
    1AU       S  131   4.529   5.092   4.982
    1AU     LIG  132   4.192   5.159   4.643
    1AU     LIG  133   4.169   5.256   4.177
    1AU       S  134   4.371   4.627   5.163
    1AU     LIG  135   4.559   4.229   5.023
    1AU     LIG  136   4.343   3.803   4.965
    1AU    AUSL  137   5.060   5.412   5.337
    1AU    AUSL  138   4.618   5.544   5.434
    1AU     AUL  139   4.803   5.458   5.065
    1AU       S  140   4.431   5.696   5.237
    1AU     LIG  141   4.140   6.048   5.110
    1AU     LIG  142   4.058   6.266   4.684
    1AU       S  143   4.639   4.941   4.745
    1AU     LIG  144   4.636   5.356   4.498
    1AU     LIG  145   4.610   5.496   4.042
    1AU    AUSL  146   5.932   5.905   6.046
    1AU    AUSL  147   5.931   5.602   5.611
    1AU     AUL  148   6.089   5.991   5.747
    1AU       S  149   6.182   5.645   5.424
    1AU     LIG  150   6.324   5.589   4.986
    1AU     LIG  151   6.357   6.030   4.821
    1AU       S  152   6.464   5.890   6.392
    1AU     LIG  153   6.647   6.224   6.101
    1AU     LIG  154   6.925   6.295   5.741
    1AU    AUSL  155   6.204   5.571   5.924
    1AU    AUSL  156   6.219   5.186   6.173
    1AU     AUL  157   6.522   5.383   6.035
    1AU       S  158   6.374   5.800   6.145
    1AU     LIG  159   6.625   5.826   5.775
    1AU     LIG  160   7.064   5.720   5.665
    1AU       S  161   6.487   4.909   6.031
    1AU     LIG  162   6.725   4.826   6.407
    1AU     LIG  163   7.121   4.549   6.470
    1AU    AUSL  164   5.948   5.503   6.251
    1AU    AUSL  165   5.623   5.805   6.316
    1AU     AUL  166   5.973   5.909   6.391
    1AU       S  167   5.950   6.096   6.856
    1AU     LIG  168   6.339   6.257   6.719
    1AU     LIG  169   6.702   6.446   6.947
    1AU       S  170   6.308   5.585   6.421
    1AU     LIG  171   6.827   5.555   6.412
    1AU     LIG  172   7.326   5.640   6.403
    1AU    AUSL  173   4.592   5.772   6.048
    1AU    AUSL  174   4.624   5.550   6.465
    1AU     AUL  175   4.332   5.887   6.322
    1AU       S  176   4.485   5.629   6.675
    1AU     LIG  177   4.108   5.858   6.814
    1AU     LIG  178   3.975   6.018   7.227
    1AU       S  179   4.543   6.179   6.023
    1AU     LIG  180   4.121   6.109   5.894
    1AU     LIG  181   3.842   6.366   5.634
    1AU    AUSL  182   4.517   5.410   5.812
    1AU    AUSL  183   4.671   5.916   5.661
    1AU     AUL  184   4.371   5.733   5.714
    1AU       S  185   4.217   5.300   5.468
    1AU     LIG  186   3.913   5.715   5.525
    1AU     LIG  187   3.511   5.993   5.441
    1AU       S  188   4.491   6.126   5.478
    1AU     LIG  189   4.378   6.492   5.269
    1AU     LIG  190   3.981   6.594   5.079
    1AU    AUSL  191   4.314   5.458   6.192
    1AU    AUSL  192   4.303   5.067   5.924
    1AU     AUL  193   4.121   5.386   5.911
    1AU       S  194   4.064   5.005   6.189
    1AU     LIG  195   3.799   4.950   5.814
    1AU     LIG  196   3.487   4.621   5.617
    1AU       S  197   4.081   5.495   6.392
    1AU     LIG  198   3.808   5.853   6.395
    1AU     LIG  199   3.366   6.034   6.377
    1AU    AUSL  200   5.992   4.893   5.953
    1AU    AUSL  201   5.854   5.043   6.340
    1AU     AUL  202   6.179   4.919   6.379
    1AU       S  203   6.289   4.751   5.956
    1AU     LIG  204   6.334   4.380   5.813
    1AU     LIG  205   6.720   4.136   5.681
    1AU       S  206   6.375   4.457   6.375
    1AU     LIG  207   6.549   4.357   6.803
    1AU     LIG  208   6.441   4.167   7.220
    1AU    AUSL  209   6.168   5.204   5.711
    1AU    AUSL  210   5.876   4.609   5.667
    1AU     AUL  211   6.113   4.863   5.550
    1AU       S  212   6.479   4.999   5.778
    1AU     LIG  213   6.712   4.664   5.610
    1AU     LIG  214   7.145   4.485   5.699
    1AU       S  215   6.004   4.424   5.438
    1AU     LIG  216   6.053   4.017   5.515
    1AU     LIG  217   6.137   3.738   5.160
    1AU    AUSL  218   4.667   4.832   6.007
    1AU    AUSL  219   4.555   4.965   5.599
    1AU     AUL  220   4.302   4.745   5.837
    1AU       S  221   4.388   4.821   5.387
    1AU     LIG  222   3.970   4.623   5.455
    1AU     LIG  223   3.718   4.328   5.176
    1AU       S  224   3.972   4.797   6.282
    1AU     LIG  225   3.884   4.466   5.963
    1AU     LIG  226   3.766   4.173   5.647
    1AU    AUSL  227   4.519   5.113   6.299
    1AU    AUSL  228   4.745   4.517   6.264
    1AU     AUL  229   4.435   4.697   6.280
    1AU       S  230   4.597   4.260   6.344
    1AU     LIG  231   4.129   4.272   6.358
    1AU     LIG  232   3.969   4.018   6.744
    1AU       S  233   4.175   5.033   6.441
    1AU     LIG  234   3.720   5.035   6.621
    1AU     LIG  235   3.301   4.890   6.443
    1AU    AUSL  236   5.222   5.964   6.444
    1AU    AUSL  237   4.791   5.941   6.382
    1AU     AUL  238   5.044   6.033   6.729
    1AU       S  239   4.647   6.155   6.533
    1AU     LIG  240   4.222   6.318   6.601
    1AU     LIG  241   4.031   6.488   6.989
    1AU       S  242   5.198   6.412   6.466
    1AU     LIG  243   5.383   6.789   6.705
    1AU     LIG  244   5.396   7.260   6.792
    1AU    AUSL  245   5.024   6.163   6.108
    1AU    AUSL  246   5.366   6.206   5.760
    1AU     AUL  247   5.056   6.429   5.877
    1AU       S  248   5.296   6.656   6.232
    1AU     LIG  249   5.207   7.098   6.315
    1AU     LIG  250   4.880   7.181   6.616
    1AU       S  251   5.313   6.427   5.479
    1AU     LIG  252   5.535   6.764   5.670
    1AU     LIG  253   5.777   7.189   5.549
    1AU    AUSL  254   5.485   6.163   6.160
    1AU    AUSL  255   5.497   5.845   6.737
    1AU     AUL  256   5.571   6.128   6.531
    1AU       S  257   5.695   5.947   6.967
    1AU     LIG  258   6.004   5.913   7.323
    1AU     LIG  259   6.393   6.156   7.247
    1AU       S  260   5.444   6.422   6.186
    1AU     LIG  261   5.781   6.621   6.384
    1AU     LIG  262   5.745   7.086   6.441
    1AU    AUSL  263   5.336   4.530   6.607
    1AU    AUSL  264   5.885   4.579   6.212
    1AU     AUL  265   5.671   4.362   6.508
    1AU       S  266   5.034   3.968   6.575
    1AU     LIG  267   5.004   3.563   6.766
    1AU     LIG  268   5.157   3.170   6.935
    1AU       S  269   6.104   4.411   6.281
    1AU     LIG  270   6.293   3.983   6.513
    1AU     LIG  271   6.592   3.837   6.859
    1AU    AUSL  272   5.138   4.383   6.242
    1AU    AUSL  273   5.058   4.792   6.449
    1AU     AUL  274   4.975   4.450   6.592
    1AU       S  275   5.063   4.072   6.317
    1AU     LIG  276   4.947   3.595   6.258
    1AU     LIG  277   4.748   3.208   6.476
    1AU       S  278   4.558   4.168   6.619
    1AU     LIG  279   4.413   3.951   6.996
    1AU     LIG  280   4.111   4.041   7.347
    1AU    AUSL  281   5.478   4.627   6.182
    1AU    AUSL  282   5.097   4.479   5.835
    1AU     AUL  283   5.418   4.275   6.037
    1AU       S  284   4.977   4.158   5.848
    1AU     LIG  285   4.718   3.800   5.853
    1AU     LIG  286   4.864   3.476   5.545
    1AU       S  287   5.307   3.950   6.419
    1AU     LIG  288   5.435   3.512   6.425
    1AU     LIG  289   5.637   3.328   6.791
    1AU    AUSL  290   5.311   5.930   5.439
    1AU    AUSL  291   5.625   5.869   5.764
    1AU     AUL  292   5.673   6.140   5.528
    1AU       S  293   5.329   6.156   5.209
    1AU     LIG  294   5.659   6.561   5.179
    1AU     LIG  295   5.454   6.975   5.207
    1AU       S  296   6.344   5.924   5.343
    1AU     LIG  297   6.267   6.387   5.275
    1AU     LIG  298   6.524   6.703   5.043
    1AU    AUSL  299   5.063   5.893   5.796
    1AU    AUSL  300   4.931   5.817   5.322
    1AU     AUL  301   4.954   6.127   5.515
    1AU       S  302   5.163   6.445   5.210
    1AU     LIG  303   5.007   6.819   5.479
    1AU     LIG  304   5.168   7.251   5.593
    1AU       S  305   4.660   5.950   5.176
    1AU     LIG  306   4.555   6.250   4.852
    1AU     LIG  307   4.379   6.680   4.755
    1AU    AUSL  308   5.239   4.546   5.418
    1AU    AUSL  309   4.709   4.560   5.687
    1AU     AUL  310   4.944   4.426   5.466
    1AU       S  311   4.476   4.513   5.449
    1AU     LIG  312   4.191   4.167   5.363
    1AU     LIG  313   3.919   3.793   5.267
    1AU       S  314   5.174   4.024   5.654
    1AU     LIG  315   4.821   3.945   5.365
    1AU     LIG  316   4.806   3.603   5.040
    1AU    AUSL  317   5.479   4.656   5.768
    1AU    AUSL  318   5.604   4.741   5.346
    1AU     AUL  319   5.553   4.385   5.545
    1AU       S  320   5.203   3.864   5.881
    1AU     LIG  321   5.390   3.553   5.582
    1AU     LIG  322   5.278   3.202   5.287
    1AU       S  323   5.816   4.585   5.186
    1AU     LIG  324   5.867   4.172   4.936
    1AU     LIG  325   6.119   3.870   4.642
    2POPC   NC3  326   3.407   8.787   8.024
    2POPC   PO4  327   3.957   8.405   8.095
    2POPC   GL1  328   3.837   8.798   7.714
    2POPC   GL2  329   3.459   8.892   7.555
    2POPC   C1A  330   3.793   8.793   7.221
    2POPC   D2A  331   3.752   8.457   6.937
    2POPC   C3A  332   3.509   8.435   6.562
    2POPC   C4A  333   3.566   8.591   6.199
    2POPC   C1B  334   3.236   8.700   7.241
    2POPC   C2B  335   3.316   8.763   6.884
    2POPC   C3B  336   3.162   8.789   6.510
    2POPC   C4B  337   3.178   8.926   6.104
    3POPC   NC3  338   1.152   5.052   8.111
    3POPC   PO4  339   0.533   4.699   8.166
    3POPC   GL1  340   0.858   4.845   7.735
    3POPC   GL2  341   1.035   5.148   7.650
    3POPC   C1A  342   1.110   4.729   7.353
    3POPC   D2A  343   0.950   4.826   6.939
    3POPC   C3A  344   1.074   4.617   6.554
    3POPC   C4A  345   1.134   4.796   6.139
    3POPC   C1B  346   1.354   5.187   7.347
    3POPC   C2B  347   1.475   5.069   6.954
    3POPC   C3B  348   1.291   5.059   6.582
    3POPC   C4B  349   1.404   5.205   6.202
    4POPC   NC3  350   9.331   1.880   8.088
    4POPC   PO4  351   8.838   2.284   7.854
    4POPC   GL1  352   9.136   2.006   7.584
    4POPC   GL2  353   9.472   1.861   7.589
    4POPC   C1A  354   9.187   2.002   7.142
    4POPC   D2A  355   9.280   1.751   6.775
    4POPC   C3A  356   9.456   2.025   6.491
    4POPC   C4A  357   9.627   2.247   6.150
    4POPC   C1B  358   9.514   1.613   7.222
    4POPC   C2B  359   9.766   1.670   6.877
    4POPC   C3B  360   9.777   1.613   6.447
    4POPC   C4B  361   9.987   1.369   6.168
    5POPC   NC3  362   0.458   7.950   8.226
    5POPC   PO4  363   0.105   7.368   8.106
    5POPC   GL1  364   0.270   7.539   7.709
    5POPC   GL2  365   0.369   7.843   7.703
    5POPC   C1A  366   0.405   7.621   7.243
    5POPC   D2A  367   0.586   7.785   6.845
    5POPC   C3A  368   0.548   7.664   6.367
    5POPC   C4A  369   0.223   7.725   5.997
    5POPC   C1B  370   0.311   8.145   7.338
    5POPC   C2B  371   0.416   8.271   6.925
    5POPC   C3B  372   0.269   8.063   6.558
    5POPC   C4B  373   0.386   8.156   6.168
    6POPC   NC3  374   2.989   1.475   8.147
    6POPC   PO4  375   3.611   1.736   8.260
    6POPC   GL1  376   3.644   1.489   7.891
    6POPC   GL2  377   3.604   1.120   7.885
    6POPC   C1A  378   3.517   1.499   7.480
    6POPC   D2A  379   3.526   1.677   7.069
    6POPC   C3A  380   3.674   1.525   6.663
    6POPC   C4A  381   3.500   1.486   6.245
    6POPC   C1B  382   3.416   1.001   7.449
    6POPC   C2B  383   3.531   1.169   7.026
    6POPC   C3B  384   3.388   1.081   6.582
    6POPC   C4B  385   3.556   1.000   6.170
    7POPC   NC3  386   8.506   9.269   8.128
    7POPC   PO4  387   9.003   9.684   8.388
    7POPC   GL1  388   9.018   9.710   7.808
    7POPC   GL2  389   8.693   9.515   7.699
    7POPC   C1A  390   8.934   9.726   7.324
    7POPC   D2A  391   8.638   9.644   6.982
    7POPC   C3A  392   8.711   9.401   6.617
    7POPC   C4A  393   8.678   9.598   6.226
    7POPC   C1B  394   8.544   9.238   7.345
    7POPC   C2B  395   8.397   9.089   6.940
    7POPC   C3B  396   8.222   9.180   6.554
    7POPC   C4B  397   8.292   9.307   6.122
    8POPC   NC3  398   6.191   0.388   8.186
    8POPC   PO4  399   6.728  10.476   8.043
    8POPC   GL1  400   6.629   0.198   7.648
    8POPC   GL2  401   6.381   0.433   7.717
    8POPC   C1A  402   6.524   0.448   7.226
    8POPC   D2A  403   6.379   0.748   6.908
    8POPC   C3A  404   6.492   0.702   6.484
    8POPC   C4A  405   6.738   0.554   6.126
    8POPC   C1B  406   6.214   0.075   7.429
    8POPC   C2B  407   6.324  10.456   7.011
    8POPC   C3B  408   6.406   0.215   6.649
    8POPC   C4B  409   6.290   0.290   6.224
    9POPC   NC3  410   8.949   4.706   8.134
    9POPC   PO4  411   8.537   5.206   7.960
    9POPC   GL1  412   8.883   5.059   7.736
    9POPC   GL2  413   8.754   4.738   7.666
    9POPC   C1A  414   8.926   5.144   7.303
    9POPC   D2A  415   8.709   5.085   6.914
    9POPC   C3A  416   8.742   4.880   6.544
    9POPC   C4A  417   8.839   4.962   6.119
    9POPC   C1B  418   8.556   4.777   7.281
    9POPC   C2B  419   8.330   4.741   6.883
    9POPC   C3B  420   8.364   4.548   6.469
    9POPC   C4B  421   8.407   4.634   5.997
   10POPC   NC3  422   4.280   9.584   7.942
   10POPC   PO4  423   3.694   9.287   8.128
   10POPC   GL1  424   3.855   9.502   7.696
   10POPC   GL2  425   4.088   9.259   7.536
   10POPC   C1A  426   3.992   9.649   7.238
   10POPC   D2A  427   4.087   9.476   6.826
   10POPC   C3A  428   3.782   9.506   6.491
   10POPC   C4A  429   3.930   9.489   6.035
   10POPC   C1B  430   4.417   9.301   7.180
   10POPC   C2B  431   4.611   9.061   6.831
   10POPC   C3B  432   4.468   8.869   6.450
   10POPC   C4B  433   4.195   9.226   6.388
   11POPC   NC3  434  10.137   5.931   8.389
   11POPC   PO4  435   9.911   5.460   7.953
   11POPC   GL1  436   9.995   5.434   7.568
   11POPC   GL2  437  10.374   5.437   7.677
   11POPC   C1A  438   9.806   5.210   7.195
   11POPC   D2A  439   9.681   5.460   6.844
   11POPC   C3A  440   9.642   5.409   6.410
   11POPC   C4A  441   9.828   5.661   6.072
   11POPC   C1B  442  10.326   5.672   7.276
   11POPC   C2B  443  10.041   5.833   6.955
   11POPC   C3B  444  10.069   5.734   6.536
   11POPC   C4B  445  10.318   5.806   6.156
   12POPC   NC3  446   6.310   1.568   8.308
   12POPC   PO4  447   5.987   2.132   8.288
   12POPC   GL1  448   6.325   1.882   7.909
   12POPC   GL2  449   6.511   2.113   7.688
   12POPC   C1A  450   6.247   1.688   7.437
   12POPC   D2A  451   6.446   1.663   6.985
   12POPC   C3A  452   6.229   1.572   6.569
   12POPC   C4A  453   6.267   1.659   6.132
   12POPC   C1B  454   6.365   2.141   7.242
   12POPC   C2B  455   6.624   2.151   6.870
   12POPC   C3B  456   6.569   1.943   6.501
   12POPC   C4B  457   6.616   2.009   6.074
   13POPC   NC3  458   1.393   0.908   8.077
   13POPC   PO4  459   2.064   0.859   8.071
   13POPC   GL1  460   1.923   1.072   7.679
   13POPC   GL2  461   2.269   1.161   7.667
   13POPC   C1A  462   1.774   1.078   7.266
   13POPC   D2A  463   1.695   0.890   6.843
   13POPC   C3A  464   1.934   0.850   6.456
   13POPC   C4A  465   1.691   0.796   6.048
   13POPC   C1B  466   2.181   1.407   7.306
   13POPC   C2B  467   1.993   1.348   6.888
   13POPC   C3B  468   1.770   1.325   6.500
   13POPC   C4B  469   1.986   1.200   6.100
   14POPC   NC3  470   7.159   2.035   8.131
   14POPC   PO4  471   6.733   1.472   8.198
   14POPC   GL1  472   6.832   1.702   7.774
   14POPC   GL2  473   7.174   1.834   7.667
   14POPC   C1A  474   6.813   1.887   7.318
   14POPC   D2A  475   6.957   1.745   6.909
   14POPC   C3A  476   7.057   2.047   6.586
   14POPC   C4A  477   7.045   1.834   6.255
   14POPC   C1B  478   7.354   1.671   7.270
   14POPC   C2B  479   7.573   1.522   6.893
   14POPC   C3B  480   7.488   1.758   6.520
   14POPC   C4B  481   7.501   2.081   6.202
   15POPC   NC3  482   6.392   9.152   8.052
   15POPC   PO4  483   6.847   9.580   8.129
   15POPC   GL1  484   6.581   9.605   7.730
   15POPC   GL2  485   6.329   9.378   7.603
   15POPC   C1A  486   6.494   9.765   7.302
   15POPC   D2A  487   6.585   9.611   6.873
   15POPC   C3A  488   6.515   9.819   6.484
   15POPC   C4A  489   6.461   9.758   6.027
   15POPC   C1B  490   6.292   9.295   7.163
   15POPC   C2B  491   6.096   9.423   6.775
   15POPC   C3B  492   6.260   9.339   6.377
   15POPC   C4B  493   6.164   9.324   5.938
   16POPC   NC3  494   9.568   3.249   8.180
   16POPC   PO4  495   9.880   3.903   8.083
   16POPC   GL1  496   9.742   3.554   7.805
   16POPC   GL2  497   9.383   3.555   7.726
   16POPC   C1A  498   9.702   3.329   7.387
   16POPC   D2A  499   9.573   3.522   6.939
   16POPC   C3A  500   9.774   3.524   6.539
   16POPC   C4A  501   9.596   3.535   6.116
   16POPC   C1B  502   9.225   3.425   7.301
   16POPC   C2B  503   9.061   3.494   6.892
   16POPC   C3B  504   9.259   3.459   6.503
   16POPC   C4B  505   9.200   3.201   6.127
   17POPC   NC3  506   0.552   5.741   8.335
   17POPC   PO4  507  10.451   5.604   8.193
   17POPC   GL1  508   0.285   5.692   7.837
   17POPC   GL2  509   0.656   5.763   7.821
   17POPC   C1A  510   0.317   5.511   7.381
   17POPC   D2A  511   0.169   5.497   6.939
   17POPC   C3A  512   0.139   5.752   6.561
   17POPC   C4A  513   0.218   5.472   6.191
   17POPC   C1B  514   0.638   5.912   7.396
   17POPC   C2B  515   0.646   5.690   6.986
   17POPC   C3B  516   0.605   5.556   6.546
   17POPC   C4B  517   0.605   5.787   6.144
   18POPC   NC3  518  10.209   0.494   8.210
   18POPC   PO4  519   9.590   0.214   8.170
   18POPC   GL1  520   9.955   0.191   7.843
   18POPC   GL2  521  10.222   0.414   7.692
   18POPC   C1A  522   9.886   0.239   7.366
   18POPC   D2A  523  10.063   0.482   7.051
   18POPC   C3A  524  10.078   0.514   6.614
   18POPC   C4A  525  10.221   0.380   6.209
   18POPC   C1B  526   0.005   0.455   7.306
   18POPC   C2B  527   0.082   0.587   6.861
   18POPC   C3B  528  10.493   0.792   6.454
   18POPC   C4B  529  10.461   0.735   5.946
   19POPC   NC3  530   1.460  10.411   8.090
   19POPC   PO4  531   2.174  10.299   8.041
   19POPC   GL1  532   1.820  10.274   7.711
   19POPC   GL2  533   1.730   9.940   7.573
   19POPC   C1A  534   1.634  10.376   7.291
   19POPC   D2A  535   1.526  10.256   6.885
   19POPC   C3A  536   1.775  10.444   6.574
   19POPC   C4A  537   1.642  10.450   6.145
   19POPC   C1B  538   1.999  10.023   7.275
   19POPC   C2B  539   1.879   9.913   6.878
   19POPC   C3B  540   1.643   9.983   6.460
   19POPC   C4B  541   1.979   9.949   6.147
   20POPC   NC3  542   0.342   6.539   8.152
   20POPC   PO4  543   0.834   6.093   8.199
   20POPC   GL1  544   0.662   6.303   7.795
   20POPC   GL2  545   0.284   6.278   7.690
   20POPC   C1A  546   0.644   6.424   7.344
   20POPC   D2A  547   0.448   6.539   6.948
   20POPC   C3A  548   0.637   6.530   6.546
   20POPC   C4A  549   0.465   6.270   6.224
   20POPC   C1B  550   0.066   6.521   7.305
   20POPC   C2B  551   0.045   6.851   6.981
   20POPC   C3B  552   0.107   6.712   6.581
   20POPC   C4B  553   0.321   6.781   6.203
   21POPC   NC3  554   2.471   2.066   8.035
   21POPC   PO4  555   2.510   1.395   8.078
   21POPC   GL1  556   2.705   1.652   7.749
   21POPC   GL2  557   2.774   2.002   7.630
   21POPC   C1A  558   2.656   1.615   7.327
   21POPC   D2A  559   2.772   1.831   6.984
   21POPC   C3A  560   2.624   1.703   6.601
   21POPC   C4A  561   2.548   1.531   6.219
   21POPC   C1B  562   2.438   2.077   7.331
   21POPC   C2B  563   2.325   2.090   6.893
   21POPC   C3B  564   2.431   2.160   6.461
   21POPC   C4B  565   2.844   2.079   6.297
   22POPC   NC3  566   9.137   0.032   8.160
   22POPC   PO4  567   9.446   9.977   7.979
   22POPC   GL1  568   9.439  10.371   7.731
   22POPC   GL2  569   9.763  10.301   7.576
   22POPC   C1A  570   9.427   0.029   7.286
   22POPC   D2A  571   9.537  10.403   6.848
   22POPC   C3A  572   9.170  10.399   6.553
   22POPC   C4A  573   9.014   0.076   6.164
   22POPC   C1B  574   9.564  10.008   7.315
   22POPC   C2B  575   9.637   9.844   6.899
   22POPC   C3B  576   9.503  10.001   6.537
   22POPC   C4B  577   9.747  10.323   6.287
   23POPC   NC3  578   9.637   8.572   8.010
   23POPC   PO4  579   9.103   8.293   7.776
   23POPC   GL1  580   9.381   8.572   7.571
   23POPC   GL2  581   9.353   8.899   7.727
   23POPC   C1A  582   9.758   8.494   7.319
   23POPC   D2A  583   9.586   8.460   6.916
   23POPC   C3A  584   9.809   8.456   6.566
   23POPC   C4A  585   9.683   8.357   6.174
   23POPC   C1B  586   9.638   8.991   7.374
   23POPC   C2B  587   9.489   8.964   6.965
   23POPC   C3B  588   9.652   8.945   6.547
   23POPC   C4B  589   9.383   8.805   6.226
   24POPC   NC3  590   5.501   2.120   8.266
   24POPC   PO4  591   6.029   2.276   7.780
   24POPC   GL1  592   5.697   2.418   7.547
   24POPC   GL2  593   5.630   2.771   7.595
   24POPC   C1A  594   5.713   2.501   7.115
   24POPC   D2A  595   5.710   2.309   6.751
   24POPC   C3A  596   5.744   2.514   6.386
   24POPC   C4A  597   5.555   2.726   6.008
   24POPC   C1B  598   5.596   2.989   7.182
   24POPC   C2B  599   5.502   2.825   6.752
   24POPC   C3B  600   5.714   3.033   6.390
   24POPC   C4B  601   5.983   3.104   6.046
   25POPC   NC3  602   7.372   4.238   8.207
   25POPC   PO4  603   6.913   3.845   7.926
   25POPC   GL1  604   7.265   3.889   7.619
   25POPC   GL2  605   7.245   4.226   7.686
   25POPC   C1A  606   7.478   4.151   7.258
   25POPC   D2A  607   7.492   4.367   6.841
   25POPC   C3A  608   7.396   4.109   6.472
   25POPC   C4A  609   7.197   4.097   6.036
   25POPC   C1B  610   6.968   4.097   7.268
   25POPC   C2B  611   7.010   4.153   6.809
   25POPC   C3B  612   6.806   4.134   6.393
   25POPC   C4B  613   6.782   4.451   6.072
   26POPC   NC3  614   2.621   9.964   7.991
   26POPC   PO4  615   3.143  10.490   8.199
   26POPC   GL1  616   3.013  10.365   7.815
   26POPC   GL2  617   2.656  10.439   7.800
   26POPC   C1A  618   2.975  10.276   7.379
   26POPC   D2A  619   3.121  10.182   6.974
   26POPC   C3A  620   2.806  10.192   6.685
   26POPC   C4A  621   2.627  10.373   6.346
   26POPC   C1B  622   2.436  10.278   7.410
   26POPC   C2B  623   2.401  10.104   6.980
   26POPC   C3B  624   2.250  10.084   6.574
   26POPC   C4B  625   2.453   9.826   6.302
   27POPC   NC3  626   0.986   0.210   8.098
   27POPC   PO4  627   0.923   0.904   7.992
   27POPC   GL1  628   1.162   0.594   7.711
   27POPC   GL2  629   1.230   0.268   7.674
   27POPC   C1A  630   1.000   0.465   7.274
   27POPC   D2A  631   1.065   0.546   6.810
   27POPC   C3A  632   0.905   0.295   6.447
   27POPC   C4A  633   0.825   0.502   6.045
   27POPC   C1B  634   1.505   0.374   7.338
   27POPC   C2B  635   1.462   0.247   6.942
   27POPC   C3B  636   1.415   0.303   6.518
   27POPC   C4B  637   1.360   0.390   6.097
   28POPC   NC3  638   4.395  10.345   8.118
   28POPC   PO4  639   3.895   9.906   8.019
   28POPC   GL1  640   4.008  10.017   7.602
   28POPC   GL2  641   4.144  10.336   7.665
   28POPC   C1A  642   3.973  10.170   7.146
   28POPC   D2A  643   3.894   9.949   6.739
   28POPC   C3A  644   4.185   9.856   6.375
   28POPC   C4A  645   4.170   9.914   5.894
   28POPC   C1B  646   4.443  10.214   7.351
   28POPC   C2B  647   4.520  10.307   6.921
   28POPC   C3B  648   4.219  10.370   6.589
   28POPC   C4B  649   4.230  10.356   6.156
   29POPC   NC3  650   8.445   2.018   7.818
   29POPC   PO4  651   8.933   1.652   8.014
   29POPC   GL1  652   8.759   1.701   7.568
   29POPC   GL2  653   8.967   1.403   7.551
   29POPC   C1A  654   8.498   1.972   7.206
   29POPC   D2A  655   8.354   2.239   6.858
   29POPC   C3A  656   8.444   2.040   6.459
   29POPC   C4A  657   8.518   1.989   6.000
   29POPC   C1B  658   8.976   1.526   7.135
   29POPC   C2B  659   8.763   1.767   6.828
   29POPC   C3B  660   8.902   1.812   6.441
   29POPC   C4B  661   9.021   2.164   6.258
   30POPC   NC3  662   3.360   4.191   7.964
   30POPC   PO4  663   3.770   3.684   8.134
   30POPC   GL1  664   3.690   3.860   7.653
   30POPC   GL2  665   3.381   4.028   7.474
   30POPC   C1A  666   3.697   3.827   7.156
   30POPC   D2A  667   3.423   4.095   6.849
   30POPC   C3A  668   3.615   4.188   6.430
   30POPC   C4A  669   3.751   3.954   6.091
   30POPC   C1B  670   3.184   4.396   7.293
   30POPC   C2B  671   3.178   4.607   6.886
   30POPC   C3B  672   3.163   4.396   6.495
   30POPC   C4B  673   3.369   4.496   6.094
   31POPC   NC3  674   3.671   1.283   8.409
   31POPC   PO4  675   4.289   1.425   8.166
   31POPC   GL1  676   4.139   1.313   7.782
   31POPC   GL2  677   4.285   0.971   7.773
   31POPC   C1A  678   3.901   1.119   7.441
   31POPC   D2A  679   3.920   0.820   7.075
   31POPC   C3A  680   3.891   1.009   6.647
   31POPC   C4A  681   3.959   1.291   6.290
   31POPC   C1B  682   4.404   1.136   7.354
   31POPC   C2B  683   4.489   1.005   6.933
   31POPC   C3B  684   4.388   1.104   6.535
   31POPC   C4B  685   4.240   0.871   6.237
   32POPC   NC3  686   1.983   9.220   8.189
   32POPC   PO4  687   2.215   8.598   8.198
   32POPC   GL1  688   1.895   8.708   7.836
   32POPC   GL2  689   1.606   8.959   7.898
   32POPC   C1A  690   1.816   8.555   7.390
   32POPC   D2A  691   2.002   8.322   7.036
   32POPC   C3A  692   1.995   8.558   6.657
   32POPC   C4A  693   2.295   8.817   6.418
   32POPC   C1B  694   1.570   9.009   7.451
   32POPC   C2B  695   1.639   8.882   7.011
   32POPC   C3B  696   1.508   8.761   6.595
   32POPC   C4B  697   1.745   8.677   6.222
   33POPC   NC3  698   0.155   5.129   8.091
   33POPC   PO4  699   0.792   5.377   8.142
   33POPC   GL1  700   0.537   5.235   7.752
   33POPC   GL2  701   0.351   4.885   7.693
   33POPC   C1A  702   0.685   5.130   7.306
   33POPC   D2A  703   0.553   5.161   6.880
   33POPC   C3A  704   0.780   5.062   6.504
   33POPC   C4A  705   0.651   4.996   6.073
   33POPC   C1B  706   0.240   4.897   7.260
   33POPC   C2B  707   0.096   4.969   6.847
   33POPC   C3B  708   0.239   4.979   6.399
   33POPC   C4B  709   0.280   4.629   6.077
   34POPC   NC3  710   9.896   5.008   8.076
   34POPC   PO4  711   0.008   4.693   8.055
   34POPC   GL1  712  10.324   4.696   7.700
   34POPC   GL2  713  10.178   4.966   7.659
   34POPC   C1A  714  10.312   4.611   7.282
   34POPC   D2A  715  10.112   4.819   6.949
   34POPC   C3A  716  10.242   4.794   6.528
   34POPC   C4A  717  10.320   4.879   6.101
   34POPC   C1B  718  10.314   5.152   7.275
   34POPC   C2B  719  10.197   5.333   6.896
   34POPC   C3B  720  10.373   5.315   6.539
   34POPC   C4B  721  10.110   5.294   6.274
   35POPC   NC3  722   7.831   0.781   8.071
   35POPC   PO4  723   8.141   0.304   7.906
   35POPC   GL1  724   8.141   0.515   7.533
   35POPC   GL2  725   7.787   0.611   7.547
   35POPC   C1A  726   8.044   0.511   7.082
   35POPC   D2A  727   8.218   0.739   6.747
   35POPC   C3A  728   8.092   0.664   6.306
   35POPC   C4A  729   8.269   0.516   5.882
   35POPC   C1B  730   7.780   0.175   7.368
   35POPC   C2B  731   7.738  10.437   6.987
   35POPC   C3B  732   7.695  10.461   6.563
   35POPC   C4B  733   7.760   0.251   6.190
   36POPC   NC3  734   8.109   5.800   8.608
   36POPC   PO4  735   7.984   5.386   8.132
   36POPC   GL1  736   8.058   5.465   7.703
   36POPC   GL2  737   8.071   5.819   7.729
   36POPC   C1A  738   7.935   5.506   7.258
   36POPC   D2A  739   7.657   5.294   6.940
   36POPC   C3A  740   7.796   5.343   6.528
   36POPC   C4A  741   8.147   5.612   6.433
   36POPC   C1B  742   8.034   6.006   7.342
   36POPC   C2B  743   7.789   5.934   6.980
   36POPC   C3B  744   7.886   6.024   6.565
   36POPC   C4B  745   7.745   5.978   6.154
   37POPC   NC3  746   8.555   0.434   8.091
   37POPC   PO4  747   8.947   0.890   7.811
   37POPC   GL1  748   8.661   0.611   7.620
   37POPC   GL2  749   8.726   0.251   7.630
   37POPC   C1A  750   8.553   0.563   7.205
   37POPC   D2A  751   8.677   0.309   6.859
   37POPC   C3A  752   8.585   0.484   6.455
   37POPC   C4A  753   8.806   0.559   6.088
   37POPC   C1B  754   8.440   0.079   7.333
   37POPC   C2B  755   8.257   0.011   6.958
   37POPC   C3B  756   8.127   0.240   6.626
   37POPC   C4B  757   8.250   0.176   6.232
   38POPC   NC3  758   3.270   7.200   8.074
   38POPC   PO4  759   2.645   7.046   8.119
   38POPC   GL1  760   2.878   7.048   7.727
   38POPC   GL2  761   2.940   7.401   7.736
   38POPC   C1A  762   2.819   6.901   7.278
   38POPC   D2A  763   2.641   6.854   6.853
   38POPC   C3A  764   2.840   6.896   6.455
   38POPC   C4A  765   2.873   7.200   6.129
   38POPC   C1B  766   2.721   7.407   7.335
   38POPC   C2B  767   2.593   7.467   6.918
   38POPC   C3B  768   2.479   7.265   6.541
   38POPC   C4B  769   2.483   7.517   6.194
   39POPC   NC3  770   4.756   8.712   7.896
   39POPC   PO4  771   5.428   8.708   7.895
   39POPC   GL1  772   5.232   8.854   7.550
   39POPC   GL2  773   5.119   8.547   7.468
   39POPC   C1A  774   4.900   8.955   7.250
   39POPC   D2A  775   4.991   8.721   6.909
   39POPC   C3A  776   5.018   8.946   6.538
   39POPC   C4A  777   5.210   9.083   6.149
   39POPC   C1B  778   4.700   8.499   7.258
   39POPC   C2B  779   4.525   8.533   6.831
   39POPC   C3B  780   4.805   8.450   6.523
   39POPC   C4B  781   4.882   8.440   6.144
   40POPC   NC3  782   5.833   1.896   7.912
   40POPC   PO4  783   5.232   1.756   8.131
   40POPC   GL1  784   5.370   2.058   7.771
   40POPC   GL2  785   5.497   1.804   7.552
   40POPC   C1A  786   5.336   2.170   7.282
   40POPC   D2A  787   5.430   1.884   6.924
   40POPC   C3A  788   5.412   2.014   6.479
   40POPC   C4A  789   5.500   1.733   6.158
   40POPC   C1B  790   5.842   2.001   7.224
   40POPC   C2B  791   6.116   2.029   6.800
   40POPC   C3B  792   5.933   1.974   6.368
   40POPC   C4B  793   5.698   2.168   6.018
   41POPC   NC3  794   0.351   2.069   8.072
   41POPC   PO4  795   0.836   1.562   8.150
   41POPC   GL1  796   0.592   1.716   7.725
   41POPC   GL2  797   0.608   2.089   7.631
   41POPC   C1A  798   0.500   1.798   7.247
   41POPC   D2A  799   0.717   2.027   6.961
   41POPC   C3A  800   0.565   2.064   6.585
   41POPC   C4A  801   0.687   1.826   6.245
   41POPC   C1B  802   0.211   2.227   7.398
   41POPC   C2B  803   0.122   2.423   6.993
   41POPC   C3B  804   0.049   2.325   6.559
   41POPC   C4B  805   0.202   2.056   6.232
   42POPC   NC3  806   6.033   1.006   7.966
   42POPC   PO4  807   6.559   0.677   8.140
   42POPC   GL1  808   6.503   0.951   7.782
   42POPC   GL2  809   6.412   1.334   7.803
   42POPC   C1A  810   6.357   0.972   7.366
   42POPC   D2A  811   6.188   1.228   7.053
   42POPC   C3A  812   6.102   1.087   6.621
   42POPC   C4A  813   6.313   1.127   6.224
   42POPC   C1B  814   6.652   1.391   7.404
   42POPC   C2B  815   6.776   1.201   7.047
   42POPC   C3B  816   6.594   1.215   6.681
   42POPC   C4B  817   6.688   1.475   6.337
   43POPC   NC3  818   1.186   1.932   8.169
   43POPC   PO4  819   1.455   2.573   8.218
   43POPC   GL1  820   1.375   2.380   7.790
   43POPC   GL2  821   1.145   2.093   7.702
   43POPC   C1A  822   1.427   2.259   7.323
   43POPC   D2A  823   1.473   2.004   6.945
   43POPC   C3A  824   1.463   2.206   6.517
   43POPC   C4A  825   1.465   2.150   6.044
   43POPC   C1B  826   1.003   1.831   7.379
   43POPC   C2B  827   1.103   1.660   7.001
   43POPC   C3B  828   1.070   1.868   6.606
   43POPC   C4B  829   1.303   1.722   6.267
   44POPC   NC3  830   2.600   4.017   8.048
   44POPC   PO4  831   3.186   3.782   7.858
   44POPC   GL1  832   2.877   3.839   7.602
   44POPC   GL2  833   2.809   4.181   7.596
   44POPC   C1A  834   2.972   3.903   7.191
   44POPC   D2A  835   2.869   4.209   6.927
   44POPC   C3A  836   2.784   4.068   6.556
   44POPC   C4A  837   2.851   4.172   6.132
   44POPC   C1B  838   2.483   4.049   7.252
   44POPC   C2B  839   2.356   4.257   6.830
   44POPC   C3B  840   2.369   4.287   6.354
   44POPC   C4B  841   2.487   4.485   5.963
   45POPC   NC3  842   8.456   8.009   8.144
   45POPC   PO4  843   9.056   8.296   8.312
   45POPC   GL1  844   8.851   7.896   7.891
   45POPC   GL2  845   8.580   7.960   7.660
   45POPC   C1A  846   9.006   7.738   7.445
   45POPC   D2A  847   9.031   7.941   7.025
   45POPC   C3A  848   8.982   7.825   6.586
   45POPC   C4A  849   9.004   7.541   6.209
   45POPC   C1B  850   8.630   8.180   7.279
   45POPC   C2B  851   8.560   8.053   6.872
   45POPC   C3B  852   8.581   8.187   6.480
   45POPC   C4B  853   8.699   7.956   6.163
   46POPC   NC3  854   9.819  10.243   8.067
   46POPC   PO4  855  10.437   0.108   8.086
   46POPC   GL1  856   0.006  10.450   7.729
   46POPC   GL2  857  10.290  10.156   7.798
   46POPC   C1A  858  10.311  10.471   7.350
   46POPC   D2A  859  10.379   0.109   6.923
   46POPC   C3A  860  10.221  10.496   6.528
   46POPC   C4A  861  10.310  10.343   6.107
   46POPC   C1B  862  10.112   9.985   7.420
   46POPC   C2B  863   9.968  10.210   7.057
   46POPC   C3B  864  10.018  10.057   6.645
   46POPC   C4B  865  10.100   9.926   6.255
   47POPC   NC3  866   0.933   4.502   8.066
   47POPC   PO4  867   1.441   4.419   8.477
   47POPC   GL1  868   1.274   4.157   7.928
   47POPC   GL2  869   1.020   3.922   7.766
   47POPC   C1A  870   1.395   4.274   7.426
   47POPC   D2A  871   1.408   4.504   6.977
   47POPC   C3A  872   1.407   4.228   6.576
   47POPC   C4A  873   1.502   4.256   6.104
   47POPC   C1B  874   0.912   4.142   7.371
   47POPC   C2B  875   0.931   4.316   6.970
   47POPC   C3B  876   0.883   4.152   6.561
   47POPC   C4B  877   1.047   4.051   6.176
   48POPC   NC3  878   2.138   0.369   8.083
   48POPC   PO4  879   1.429   0.375   8.129
   48POPC   GL1  880   1.725   0.281   7.793
   48POPC   GL2  881   1.698   0.627   7.727
   48POPC   C1A  882   2.036   0.155   7.438
   48POPC   D2A  883   2.051  10.469   7.015
   48POPC   C3A  884   2.275   0.089   6.650
   48POPC   C4A  885   2.156  10.479   6.212
   48POPC   C1B  886   2.077   0.662   7.433
   48POPC   C2B  887   2.218   0.472   7.046
   48POPC   C3B  888   1.903   0.418   6.737
   48POPC   C4B  889   1.866   0.383   6.301
   49POPC   NC3  890   6.907   0.405   8.009
   49POPC   PO4  891   7.399   0.926   8.029
   49POPC   GL1  892   7.286   0.741   7.659
   49POPC   GL2  893   7.325   0.370   7.664
   49POPC   C1A  894   7.367   0.634   7.224
   49POPC   D2A  895   7.328   0.306   6.915
   49POPC   C3A  896   7.555   0.463   6.590
   49POPC   C4A  897   7.584   0.777   6.243
   49POPC   C1B  898   6.996   0.316   7.341
   49POPC   C2B  899   6.827   0.146   6.960
   49POPC   C3B  900   6.900   0.352   6.584
   49POPC   C4B  901   7.201   0.362   6.228
   50POPC   NC3  902   6.891   2.936   8.163
   50POPC   PO4  903   7.609   3.141   8.070
   50POPC   GL1  904   7.524   2.880   7.723
   50POPC   GL2  905   7.322   2.589   7.834
   50POPC   C1A  906   7.526   2.669   7.315
   50POPC   D2A  907   7.145   2.662   7.059
   50POPC   C3A  908   7.115   2.766   6.640
   50POPC   C4A  909   6.920   2.924   6.279
   50POPC   C1B  910   7.173   2.313   7.487
   50POPC   C2B  911   7.221   2.170   7.047
   50POPC   C3B  912   7.442   2.373   6.651
   50POPC   C4B  913   7.294   2.548   6.236
   51POPC   NC3  914   6.880   9.942   8.423
   51POPC   PO4  915   7.341   9.951   7.899
   51POPC   GL1  916   7.169  10.057   7.536
   51POPC   GL2  917   7.077  10.403   7.664
   51POPC   C1A  918   7.013   9.804   7.231
   51POPC   D2A  919   7.135   9.648   6.868
   51POPC   C3A  920   7.051   9.935   6.582
   51POPC   C4A  921   6.914  10.047   6.200
   51POPC   C1B  922   7.330  10.451   7.303
   51POPC   C2B  923   7.189  10.292   6.944
   51POPC   C3B  924   7.180  10.428   6.531
   51POPC   C4B  925   7.398  10.215   6.228
   52POPC   NC3  926  10.180   1.358   8.174
   52POPC   PO4  927   9.872   0.804   8.127
   52POPC   GL1  928  10.156   0.921   7.809
   52POPC   GL2  929  10.282   1.263   7.694
   52POPC   C1A  930  10.120   0.859   7.374
   52POPC   D2A  931  10.228   0.950   6.926
   52POPC   C3A  932   9.955   1.057   6.592
   52POPC   C4A  933  10.056   0.871   6.224
   52POPC   C1B  934  10.244   1.357   7.278
   52POPC   C2B  935  10.202   1.452   6.864
   52POPC   C3B  936  10.398   1.288   6.536
   52POPC   C4B  937  10.494   1.228   6.132
   53POPC   NC3  938   8.741   7.031   8.112
   53POPC   PO4  939   9.152   7.527   8.168
   53POPC   GL1  940   8.759   7.418   7.784
   53POPC   GL2  941   8.553   7.092   7.656
   53POPC   C1A  942   8.553   7.519   7.353
   53POPC   D2A  943   8.761   7.506   6.937
   53POPC   C3A  944   8.525   7.622   6.548
   53POPC   C4A  945   8.511   7.459   6.124
   53POPC   C1B  946   8.373   7.044   7.253
   53POPC   C2B  947   8.325   7.248   6.859
   53POPC   C3B  948   8.476   7.097   6.507
   53POPC   C4B  949   8.709   6.976   6.200
   54POPC   NC3  950   8.871   3.963   8.119
   54POPC   PO4  951   8.493   4.527   8.085
   54POPC   GL1  952   8.531   4.251   7.703
   54POPC   GL2  953   8.846   4.223   7.689
   54POPC   C1A  954   8.529   3.940   7.354
   54POPC   D2A  955   8.425   3.775   6.952
   54POPC   C3A  956   8.486   4.055   6.630
   54POPC   C4A  957   8.492   3.800   6.268
   54POPC   C1B  958   8.909   4.403   7.309
   54POPC   C2B  959   8.766   4.492   6.910
   54POPC   C3B  960   8.897   4.401   6.537
   54POPC   C4B  961   8.713   4.248   6.209
   55POPC   NC3  962   9.445   7.178   8.259
   55POPC   PO4  963   9.061   6.690   8.289
   55POPC   GL1  964   9.169   7.090   7.849
   55POPC   GL2  965   9.464   7.295   7.756
   55POPC   C1A  966   9.036   7.204   7.374
   55POPC   D2A  967   8.891   6.993   6.962
   55POPC   C3A  968   9.025   7.179   6.570
   55POPC   C4A  969   9.215   7.085   6.155
   55POPC   C1B  970   9.619   7.071   7.374
   55POPC   C2B  971   9.456   6.970   6.967
   55POPC   C3B  972   9.539   7.083   6.564
   55POPC   C4B  973   9.798   7.002   6.238
   56POPC   NC3  974  10.192   7.589   8.113
   56POPC   PO4  975  10.476   8.166   8.268
   56POPC   GL1  976  10.382   7.996   7.824
   56POPC   GL2  977  10.058   7.853   7.714
   56POPC   C1A  978  10.436   7.770   7.403
   56POPC   D2A  979   0.047   7.884   6.995
   56POPC   C3A  980  10.284   7.763   6.719
   56POPC   C4A  981  10.344   7.781   6.314
   56POPC   C1B  982   9.911   7.953   7.313
   56POPC   C2B  983   9.981   8.120   6.927
   56POPC   C3B  984   9.863   7.954   6.512
   56POPC   C4B  985   9.810   7.869   6.100
   57POPC   NC3  986   1.580   2.981   8.409
   57POPC   PO4  987   0.919   3.141   8.125
   57POPC   GL1  988   0.978   3.391   7.757
   57POPC   GL2  989   1.342   3.481   7.719
   57POPC   C1A  990   1.040   3.297   7.332
   57POPC   D2A  991   1.250   3.250   6.961
   57POPC   C3A  992   1.023   3.288   6.599
   57POPC   C4A  993   1.163   3.371   6.194
   57POPC   C1B  994   1.278   3.756   7.346
   57POPC   C2B  995   1.074   3.807   6.948
   57POPC   C3B  996   1.223   3.749   6.540
   57POPC   C4B  997   1.528   3.755   6.200
   58POPC   NC3  998  10.278   3.648   8.055
   58POPC   PO4  999   9.990   3.136   8.312
   58POPC   GL1 1000  10.001   3.121   7.804
   58POPC   GL2 1001  10.187   3.371   7.616
   58POPC   C1A 1002  10.031   2.953   7.352
   58POPC   D2A 1003   9.911   3.153   6.943
   58POPC   C3A 1004  10.119   3.132   6.555
   58POPC   C4A 1005  10.003   3.217   6.135
   58POPC   C1B 1006  10.109   3.586   7.221
   58POPC   C2B 1007  10.255   3.569   6.806
   58POPC   C3B 1008  10.233   3.637   6.362
   58POPC   C4B 1009  10.048   3.698   5.977
   59POPC   NC3 1010   7.220   7.838   8.428
   59POPC   PO4 1011   7.226   7.939   7.879
   59POPC   GL1 1012   7.117   7.998   7.547
   59POPC   GL2 1013   7.002   8.337   7.514
   59POPC   C1A 1014   7.162   7.758   7.216
   59POPC   D2A 1015   7.335   7.582   6.880
   59POPC   C3A 1016   7.170   7.675   6.482
   59POPC   C4A 1017   7.341   7.669   6.031
   59POPC   C1B 1018   7.329   8.266   7.205
   59POPC   C2B 1019   7.127   8.112   6.857
   59POPC   C3B 1020   7.195   8.179   6.488
   59POPC   C4B 1021   7.034   8.037   6.128
   60POPC   NC3 1022   2.838   6.627   8.143
   60POPC   PO4 1023   2.999   5.920   7.970
   60POPC   GL1 1024   2.797   6.215   7.655
   60POPC   GL2 1025   2.662   6.557   7.661
   60POPC   C1A 1026   2.891   6.375   7.207
   60POPC   D2A 1027   3.160   6.256   6.820
   60POPC   C3A 1028   3.019   6.403   6.401
   60POPC   C4A 1029   3.031   6.148   5.986
   60POPC   C1B 1030   2.363   6.336   7.368
   60POPC   C2B 1031   2.257   6.223   6.938
   60POPC   C3B 1032   2.441   6.402   6.536
   60POPC   C4B 1033   2.573   6.360   6.103
   61POPC   NC3 1034   8.117   4.231   7.994
   61POPC   PO4 1035   7.647   3.855   8.286
   61POPC   GL1 1036   7.734   3.764   7.830
   61POPC   GL2 1037   7.765   4.062   7.664
   61POPC   C1A 1038   7.754   3.689   7.348
   61POPC   D2A 1039   7.719   3.902   6.910
   61POPC   C3A 1040   8.006   3.896   6.569
   61POPC   C4A 1041   8.155   4.150   6.222
   61POPC   C1B 1042   8.027   4.148   7.275
   61POPC   C2B 1043   8.043   4.321   6.830
   61POPC   C3B 1044   7.805   4.425   6.443
   61POPC   C4B 1045   7.512   4.510   6.098
   62POPC   NC3 1046   0.168   0.478   7.930
   62POPC   PO4 1047   0.577   0.005   8.025
   62POPC   GL1 1048   0.493   0.180   7.635
   62POPC   GL2 1049   0.663   0.499   7.761
   62POPC   C1A 1050   0.326   0.052   7.203
   62POPC   D2A 1051   0.340   0.145   6.721
   62POPC   C3A 1052   0.257  10.448   6.321
   62POPC   C4A 1053   0.544   0.083   6.016
   62POPC   C1B 1054   0.507   0.647   7.380
   62POPC   C2B 1055   0.582   0.509   6.981
   62POPC   C3B 1056   0.528   0.616   6.565
   62POPC   C4B 1057   0.276   0.434   6.256
   63POPC   NC3 1058   0.170   4.486   8.435
   63POPC   PO4 1059   0.378   3.960   8.058
   63POPC   GL1 1060   0.538   4.079   7.697
   63POPC   GL2 1061   0.589   4.407   7.717
   63POPC   C1A 1062   0.399   4.105   7.283
   63POPC   D2A 1063   0.548   3.989   6.912
   63POPC   C3A 1064   0.377   4.109   6.518
   63POPC   C4A 1065   0.534   4.033   6.121
   63POPC   C1B 1066   0.626   4.577   7.327
   63POPC   C2B 1067   0.441   4.520   6.932
   63POPC   C3B 1068   0.559   4.595   6.527
   63POPC   C4B 1069   0.758   4.474   6.158
   64POPC   NC3 1070   3.906   0.698   8.060
   64POPC   PO4 1071   3.919   0.056   8.110
   64POPC   GL1 1072   3.915   0.287   7.751
   64POPC   GL2 1073   4.258   0.432   7.795
   64POPC   C1A 1074   3.883   0.158   7.335
   64POPC   D2A 1075   3.708   0.327   6.970
   64POPC   C3A 1076   3.834   0.249   6.551
   64POPC   C4A 1077   3.817   0.604   6.304
   64POPC   C1B 1078   4.363   0.232   7.408
   64POPC   C2B 1079   4.226   0.244   6.975
   64POPC   C3B 1080   4.193   0.579   6.685
   64POPC   C4B 1081   4.307   0.360   6.316
   65POPC   NC3 1082   4.902   9.489   8.224
   65POPC   PO4 1083   4.611   8.932   8.273
   65POPC   GL1 1084   5.034   9.182   7.875
   65POPC   GL2 1085   4.977   9.629   7.764
   65POPC   C1A 1086   5.137   9.357   7.405
   65POPC   D2A 1087   4.903   9.458   7.025
   65POPC   C3A 1088   5.127   9.451   6.651
   65POPC   C4A 1089   5.100   9.573   6.260
   65POPC   C1B 1090   4.652   9.707   7.420
   65POPC   C2B 1091   4.472   9.795   7.006
   65POPC   C3B 1092   4.574   9.596   6.608
   65POPC   C4B 1093   4.710   9.283   6.328
   66POPC   NC3 1094   2.743   5.005   8.102
   66POPC   PO4 1095   2.993   4.448   8.060
   66POPC   GL1 1096   2.830   4.692   7.705
   66POPC   GL2 1097   2.463   4.742   7.748
   66POPC   C1A 1098   2.731   5.014   7.375
   66POPC   D2A 1099   2.780   5.353   7.080
   66POPC   C3A 1100   2.880   5.122   6.706
   66POPC   C4A 1101   2.904   5.178   6.273
   66POPC   C1B 1102   2.528   4.540   7.331
   66POPC   C2B 1103   2.651   4.689   6.939
   66POPC   C3B 1104   2.604   4.737   6.501
   66POPC   C4B 1105   2.890   4.680   6.184
   67POPC   NC3 1106   8.904   8.632   8.029
   67POPC   PO4 1107   8.980   9.254   8.024
   67POPC   GL1 1108   8.857   8.988   7.647
   67POPC   GL2 1109   8.741   8.603   7.574
   67POPC   C1A 1110   9.069   8.847   7.277
   67POPC   D2A 1111   9.084   8.460   7.072
   67POPC   C3A 1112   9.125   8.564   6.637
   67POPC   C4A 1113   9.012   8.379   6.248
   67POPC   C1B 1114   8.565   8.714   7.236
   67POPC   C2B 1115   8.618   8.587   6.826
   67POPC   C3B 1116   8.640   8.694   6.390
   67POPC   C4B 1117   8.508   8.426   6.017
   68POPC   NC3 1118   5.269   0.383   7.797
   68POPC   PO4 1119   4.860   0.031   8.175
   68POPC   GL1 1120   4.723   0.197   7.776
   68POPC   GL2 1121   4.777   0.557   7.739
   68POPC   C1A 1122   4.842   0.184   7.311
   68POPC   D2A 1123   5.126   0.427   7.077
   68POPC   C3A 1124   5.107   0.416   6.645
   68POPC   C4A 1125   5.037   0.374   6.229
   68POPC   C1B 1126   4.650   0.668   7.327
   68POPC   C2B 1127   4.657   0.501   6.912
   68POPC   C3B 1128   4.668   0.667   6.520
   68POPC   C4B 1129   4.684   0.702   6.104
   69POPC   NC3 1130   9.318   5.487   8.025
   69POPC   PO4 1131   9.742   6.028   8.149
   69POPC   GL1 1132   9.650   5.853   7.746
   69POPC   GL2 1133   9.320   5.826   7.639
   69POPC   C1A 1134   9.681   5.996   7.324
   69POPC   D2A 1135   9.400   5.883   7.001
   69POPC   C3A 1136   9.593   5.926   6.628
   69POPC   C4A 1137   9.452   5.947   6.244
   69POPC   C1B 1138   9.379   5.476   7.338
   69POPC   C2B 1139   9.186   5.376   6.929
   69POPC   C3B 1140   9.179   5.576   6.548
   69POPC   C4B 1141   9.193   5.357   6.159
   70POPC   NC3 1142   4.301   2.773   7.871
   70POPC   PO4 1143   3.877   2.330   8.060
   70POPC   GL1 1144   3.952   2.495   7.618
   70POPC   GL2 1145   3.840   2.836   7.575
   70POPC   C1A 1146   4.284   2.494   7.248
   70POPC   D2A 1147   4.424   2.746   6.857
   70POPC   C3A 1148   4.247   2.763   6.447
   70POPC   C4A 1149   4.149   2.544   6.075
   70POPC   C1B 1150   3.824   2.695   7.165
   70POPC   C2B 1151   3.830   2.697   6.734
   70POPC   C3B 1152   3.757   2.876   6.346
   70POPC   C4B 1153   3.713   2.733   5.914
   71POPC   NC3 1154   6.990   6.901   8.471
   71POPC   PO4 1155   7.514   6.806   8.096
   71POPC   GL1 1156   7.557   6.687   7.695
   71POPC   GL2 1157   7.332   6.433   7.649
   71POPC   C1A 1158   7.363   6.827   7.296
   71POPC   D2A 1159   7.101   6.796   6.938
   71POPC   C3A 1160   7.210   6.788   6.524
   71POPC   C4A 1161   7.095   6.501   6.204
   71POPC   C1B 1162   7.179   6.352   7.203
   71POPC   C2B 1163   7.144   6.308   6.749
   71POPC   C3B 1164   6.995   6.053   6.435
   71POPC   C4B 1165   7.229   6.013   6.050
   72POPC   NC3 1166   1.103   5.715   8.104
   72POPC   PO4 1167   1.535   6.196   8.062
   72POPC   GL1 1168   1.526   5.864   7.748
   72POPC   GL2 1169   1.323   5.559   7.700
   72POPC   C1A 1170   1.599   5.720   7.336
   72POPC   D2A 1171   1.453   5.596   6.975
   72POPC   C3A 1172   1.479   5.890   6.604
   72POPC   C4A 1173   1.351   5.775   6.192
   72POPC   C1B 1174   1.023   5.572   7.357
   72POPC   C2B 1175   1.021   5.345   6.961
   72POPC   C3B 1176   1.110   5.524   6.570
   72POPC   C4B 1177   0.948   5.414   6.165
   73POPC   NC3 1178   3.567  10.259   8.131
   73POPC   PO4 1179   3.060   9.847   7.933
   73POPC   GL1 1180   3.419  10.013   7.666
   73POPC   GL2 1181   3.609  10.343   7.646
   73POPC   C1A 1182   3.532   9.889   7.251
   73POPC   D2A 1183   3.450   9.682   6.861
   73POPC   C3A 1184   3.304   9.975   6.538
   73POPC   C4A 1185   2.950   9.986   6.246
   73POPC   C1B 1186   3.471  10.405   7.249
   73POPC   C2B 1187   3.592  10.358   6.819
   73POPC   C3B 1188   3.713  10.289   6.387
   73POPC   C4B 1189   3.723   9.919   6.204
   74POPC   NC3 1190   0.130   8.472   7.944
   74POPC   PO4 1191   0.809   8.699   8.118
   74POPC   GL1 1192   0.670   8.713   7.691
   74POPC   GL2 1193   0.342   8.812   7.638
   74POPC   C1A 1194   0.706   8.512   7.301
   74POPC   D2A 1195   0.641   8.750   6.937
   74POPC   C3A 1196   0.759   8.571   6.579
   74POPC   C4A 1197   0.618   8.599   6.193
   74POPC   C1B 1198   0.210   8.658   7.268
   74POPC   C2B 1199   0.149   8.817   6.879
   74POPC   C3B 1200   0.227   8.579   6.536
   74POPC   C4B 1201   0.066   8.542   6.149
   75POPC   NC3 1202   1.126   6.452   8.059
   75POPC   PO4 1203   1.032   7.057   8.021
   75POPC   GL1 1204   1.282   6.818   7.713
   75POPC   GL2 1205   1.090   6.545   7.564
   75POPC   C1A 1206   1.442   6.722   7.262
   75POPC   D2A 1207   1.215   6.526   6.916
   75POPC   C3A 1208   1.415   6.550   6.491
   75POPC   C4A 1209   1.310   6.501   6.035
   75POPC   C1B 1210   1.141   6.104   7.429
   75POPC   C2B 1211   1.100   5.963   6.996
   75POPC   C3B 1212   1.031   6.153   6.580
   75POPC   C4B 1213   0.987   6.134   6.143
   76POPC   NC3 1214   0.115   4.298   7.859
   76POPC   PO4 1215  10.053   4.505   8.211
   76POPC   GL1 1216  10.099   4.249   7.778
   76POPC   GL2 1217  10.129   3.895   7.643
   76POPC   C1A 1218   9.934   4.253   7.342
   76POPC   D2A 1219  10.111   4.289   6.936
   76POPC   C3A 1220   9.898   4.400   6.584
   76POPC   C4A 1221  10.067   4.438   6.188
   76POPC   C1B 1222  10.390   4.019   7.310
   76POPC   C2B 1223   0.033   4.003   6.888
   76POPC   C3B 1224  10.361   4.124   6.477
   76POPC   C4B 1225  10.446   4.025   6.031
   77POPC   NC3 1226   1.882   5.873   8.135
   77POPC   PO4 1227   1.499   5.363   8.149
   77POPC   GL1 1228   1.811   5.419   7.784
   77POPC   GL2 1229   2.068   5.672   7.712
   77POPC   C1A 1230   1.844   5.285   7.356
   77POPC   D2A 1231   1.926   5.359   6.930
   77POPC   C3A 1232   1.680   5.399   6.577
   77POPC   C4A 1233   1.867   5.408   6.186
   77POPC   C1B 1234   2.078   5.906   7.330
   77POPC   C2B 1235   1.865   5.901   6.933
   77POPC   C3B 1236   1.997   5.791   6.526
   77POPC   C4B 1237   2.257   5.977   6.255
   78POPC   NC3 1238   8.493   3.323   7.912
   78POPC   PO4 1239   9.142   3.197   8.032
   78POPC   GL1 1240   8.920   3.312   7.665
   78POPC   GL2 1241   8.871   3.679   7.694
   78POPC   C1A 1242   8.712   3.448   7.276
   78POPC   D2A 1243   8.551   3.253   6.928
   78POPC   C3A 1244   8.712   3.392   6.523
   78POPC   C4A 1245   8.488   3.320   6.128
   78POPC   C1B 1246   9.056   3.897   7.342
   78POPC   C2B 1247   8.895   3.981   6.939
   78POPC   C3B 1248   8.965   3.887   6.504
   78POPC   C4B 1249   8.947   3.630   6.137
   79POPC   NC3 1250   9.870   4.155   8.476
   79POPC   PO4 1251   9.226   4.297   8.168
   79POPC   GL1 1252   9.316   4.076   7.758
   79POPC   GL2 1253   9.622   4.018   7.673
   79POPC   C1A 1254   9.410   4.292   7.330
   79POPC   D2A 1255   9.250   4.329   6.923
   79POPC   C3A 1256   9.402   4.488   6.549
   79POPC   C4A 1257   9.254   4.231   6.205
   79POPC   C1B 1258   9.632   3.828   7.335
   79POPC   C2B 1259   9.665   4.027   6.951
   79POPC   C3B 1260   9.485   3.960   6.577
   79POPC   C4B 1261   9.762   4.024   6.245
   80POPC   NC3 1262   6.304   6.691   7.774
   80POPC   PO4 1263   6.715   7.120   8.142
   80POPC   GL1 1264   6.689   7.130   7.678
   80POPC   GL2 1265   6.384   7.312   7.640
   80POPC   C1A 1266   6.703   6.888   7.256
   80POPC   D2A 1267   6.620   6.913   6.789
   80POPC   C3A 1268   6.630   6.597   6.453
   80POPC   C4A 1269   6.295   6.607   6.120
   80POPC   C1B 1270   6.574   7.396   7.234
   80POPC   C2B 1271   6.426   7.371   6.820
   80POPC   C3B 1272   6.267   7.180   6.441
   80POPC   C4B 1273   6.028   7.391   6.114
   81POPC   NC3 1274   0.649   1.139   8.288
   81POPC   PO4 1275   0.035   0.842   8.168
   81POPC   GL1 1276   0.171   0.934   7.717
   81POPC   GL2 1277   0.478   1.114   7.718
   81POPC   C1A 1278   0.113   0.955   7.261
   81POPC   D2A 1279   0.428   0.995   6.952
   81POPC   C3A 1280   0.401   1.108   6.539
   81POPC   C4A 1281   0.397   0.899   6.148
   81POPC   C1B 1282   0.250   1.404   7.423
   81POPC   C2B 1283   0.203   1.479   6.929
   81POPC   C3B 1284   0.301   1.581   6.441
   81POPC   C4B 1285   0.550   1.358   6.095
   82POPC   NC3 1286   9.276   6.255   8.148
   82POPC   PO4 1287   8.878   6.705   7.807
   82POPC   GL1 1288   9.001   6.276   7.715
   82POPC   GL2 1289   9.377   6.330   7.660
   82POPC   C1A 1290   9.064   6.147   7.299
   82POPC   D2A 1291   8.984   6.393   6.916
   82POPC   C3A 1292   9.141   6.249   6.539
   82POPC   C4A 1293   9.199   6.656   6.397
   82POPC   C1B 1294   9.345   6.570   7.276
   82POPC   C2B 1295   9.508   6.442   6.863
   82POPC   C3B 1296   9.644   6.406   6.426
   82POPC   C4B 1297   9.982   6.164   6.281
   83POPC   NC3 1298   9.396   0.937   7.890
   83POPC   PO4 1299   9.047   0.472   8.297
   83POPC   GL1 1300   9.171   0.429   7.826
   83POPC   GL2 1301   9.507   0.411   7.693
   83POPC   C1A 1302   9.114   0.465   7.337
   83POPC   D2A 1303   9.314   0.371   6.920
   83POPC   C3A 1304   9.098   0.451   6.548
   83POPC   C4A 1305   9.068   0.853   6.421
   83POPC   C1B 1306   9.610   0.680   7.312
   83POPC   C2B 1307   9.671   0.754   6.873
   83POPC   C3B 1308   9.598   0.676   6.442
   83POPC   C4B 1309   9.485   0.270   6.253
   84POPC   NC3 1310   7.166   7.056   7.904
   84POPC   PO4 1311   7.550   7.482   8.298
   84POPC   GL1 1312   7.417   7.476   7.782
   84POPC   GL2 1313   7.097   7.458   7.608
   84POPC   C1A 1314   7.525   7.362   7.334
   84POPC   D2A 1315   7.554   7.118   6.921
   84POPC   C3A 1316   7.548   7.307   6.506
   84POPC   C4A 1317   7.238   7.217   6.240
   84POPC   C1B 1318   7.057   7.254   7.168
   84POPC   C2B 1319   6.984   7.250   6.699
   84POPC   C3B 1320   6.774   7.056   6.315
   84POPC   C4B 1321   6.757   6.752   5.934
   85POPC   NC3 1322   7.860   1.777   8.157
   85POPC   PO4 1323   8.210   2.342   8.057
   85POPC   GL1 1324   7.982   1.991   7.680
   85POPC   GL2 1325   7.686   1.777   7.667
   85POPC   C1A 1326   8.011   1.767   7.244
   85POPC   D2A 1327   8.200   1.751   6.814
   85POPC   C3A 1328   7.985   1.638   6.429
   85POPC   C4A 1329   8.113   1.628   5.958
   85POPC   C1B 1330   7.625   2.104   7.348
   85POPC   C2B 1331   7.702   2.024   6.924
   85POPC   C3B 1332   7.906   2.130   6.570
   85POPC   C4B 1333   8.026   2.075   6.176
   86POPC   NC3 1334   7.113   9.160   8.162
   86POPC   PO4 1335   7.286   9.740   8.425
   86POPC   GL1 1336   7.369   9.458   7.882
   86POPC   GL2 1337   7.088   9.545   7.676
   86POPC   C1A 1338   7.377   9.200   7.441
   86POPC   D2A 1339   7.354   8.967   7.015
   86POPC   C3A 1340   7.333   9.176   6.623
   86POPC   C4A 1341   7.471   9.049   6.195
   86POPC   C1B 1342   6.823   9.313   7.364
   86POPC   C2B 1343   6.870   9.200   6.917
   86POPC   C3B 1344   6.906   9.428   6.482
   86POPC   C4B 1345   7.328   9.602   6.314
   87POPC   NC3 1346   6.999   1.101   8.208
   87POPC   PO4 1347   7.439   1.595   8.128
   87POPC   GL1 1348   7.245   1.346   7.764
   87POPC   GL2 1349   6.952   1.171   7.724
   87POPC   C1A 1350   7.271   1.168   7.342
   87POPC   D2A 1351   7.278   1.090   6.928
   87POPC   C3A 1352   7.122   1.363   6.603
   87POPC   C4A 1353   7.168   1.357   6.146
   87POPC   C1B 1354   6.859   0.832   7.402
   87POPC   C2B 1355   6.928   0.691   6.963
   87POPC   C3B 1356   7.137   0.792   6.551
   87POPC   C4B 1357   6.864   1.003   6.314
   88POPC   NC3 1358   2.518   0.918   8.123
   88POPC   PO4 1359   3.154   0.988   8.134
   88POPC   GL1 1360   3.104   1.248   7.730
   88POPC   GL2 1361   2.784   1.150   7.717
   88POPC   C1A 1362   3.083   1.360   7.275
   88POPC   D2A 1363   3.020   1.099   6.943
   88POPC   C3A 1364   2.868   1.240   6.557
   88POPC   C4A 1365   3.018   1.105   6.201
   88POPC   C1B 1366   2.627   1.102   7.309
   88POPC   C2B 1367   2.519   1.304   6.924
   88POPC   C3B 1368   2.335   1.184   6.530
   88POPC   C4B 1369   2.460   1.051   6.125
   89POPC   NC3 1370   0.493   9.055   8.056
   89POPC   PO4 1371   0.401   9.730   7.970
   89POPC   GL1 1372   0.622   9.405   7.688
   89POPC   GL2 1373   0.341   9.317   7.591
   89POPC   C1A 1374   0.674   9.156   7.263
   89POPC   D2A 1375   0.429   9.251   6.863
   89POPC   C3A 1376   0.489   9.019   6.482
   89POPC   C4A 1377   0.518   9.050   5.999
   89POPC   C1B 1378   0.445   9.661   7.304
   89POPC   C2B 1379   0.292   9.746   6.926
   89POPC   C3B 1380   0.478   9.776   6.552
   89POPC   C4B 1381   0.343   9.465   6.265
   90POPC   NC3 1382   5.705   9.051   8.011
   90POPC   PO4 1383   5.365   9.668   8.134
   90POPC   GL1 1384   5.504   9.470   7.741
   90POPC   GL2 1385   5.843   9.489   7.750
   90POPC   C1A 1386   5.603   9.167   7.368
   90POPC   D2A 1387   5.328   9.105   6.977
   90POPC   C3A 1388   5.524   9.119   6.565
   90POPC   C4A 1389   5.738   9.342   6.230
   90POPC   C1B 1390   5.905   9.599   7.336
   90POPC   C2B 1391   5.612   9.540   7.006
   90POPC   C3B 1392   5.642   9.650   6.620
   90POPC   C4B 1393   6.011   9.781   6.351
   91POPC   NC3 1394   3.762   2.786   8.182
   91POPC   PO4 1395   3.110   2.942   8.252
   91POPC   GL1 1396   3.334   2.914   7.836
   91POPC   GL2 1397   3.474   2.567   7.805
   91POPC   C1A 1398   3.254   2.987   7.385
   91POPC   D2A 1399   3.048   2.792   7.026
   91POPC   C3A 1400   3.180   2.895   6.586
   91POPC   C4A 1401   3.313   3.046   6.203
   91POPC   C1B 1402   3.329   2.471   7.390
   91POPC   C2B 1403   3.424   2.477   6.951
   91POPC   C3B 1404   3.446   2.456   6.518
   91POPC   C4B 1405   3.292   2.531   6.131
   92POPC   NC3 1406   1.915   8.226   8.100
   92POPC   PO4 1407   1.824   7.610   8.184
   92POPC   GL1 1408   1.667   7.808   7.791
   92POPC   GL2 1409   1.713   8.120   7.632
   92POPC   C1A 1410   1.717   7.656   7.345
   92POPC   D2A 1411   1.706   7.889   6.955
   92POPC   C3A 1412   1.669   7.761   6.522
   92POPC   C4A 1413   1.681   8.172   6.288
   92POPC   C1B 1414   2.094   7.974   7.408
   92POPC   C2B 1415   2.190   7.790   6.989
   92POPC   C3B 1416   2.101   8.023   6.615
   92POPC   C4B 1417   2.085   7.832   6.227
   93POPC   NC3 1418   7.737   7.807   7.962
   93POPC   PO4 1419   8.107   8.304   8.178
   93POPC   GL1 1420   8.078   8.114   7.746
   93POPC   GL2 1421   7.749   8.169   7.588
   93POPC   C1A 1422   8.174   7.912   7.335
   93POPC   D2A 1423   8.069   8.132   6.960
   93POPC   C3A 1424   8.120   7.983   6.569
   93POPC   C4A 1425   8.089   8.192   6.190
   93POPC   C1B 1426   7.666   7.866   7.260
   93POPC   C2B 1427   7.609   7.995   6.845
   93POPC   C3B 1428   7.636   7.845   6.470
   93POPC   C4B 1429   7.574   8.108   6.174
   94POPC   NC3 1430   0.648   7.327   7.984
   94POPC   PO4 1431   0.269   6.816   7.813
   94POPC   GL1 1432   0.690   6.872   7.642
   94POPC   GL2 1433   0.600   7.201   7.499
   94POPC   C1A 1434   0.817   6.883   7.193
   94POPC   D2A 1435   0.506   7.148   6.991
   94POPC   C3A 1436   0.496   7.044   6.604
   94POPC   C4A 1437   0.715   7.153   6.249
   94POPC   C1B 1438   0.140   7.205   7.347
   94POPC   C2B 1439  10.433   7.375   7.030
   94POPC   C3B 1440   0.189   7.469   6.671
   94POPC   C4B 1441   0.213   7.293   6.253
   95POPC   NC3 1442   2.271   7.449   8.100
   95POPC   PO4 1443   1.712   6.971   8.031
   95POPC   GL1 1444   1.681   7.136   7.626
   95POPC   GL2 1445   1.903   7.371   7.724
   95POPC   C1A 1446   1.699   7.181   7.177
   95POPC   D2A 1447   1.700   6.918   6.841
   95POPC   C3A 1448   1.603   7.057   6.468
   95POPC   C4A 1449   1.682   6.834   6.118
   95POPC   C1B 1450   2.199   7.439   7.398
   95POPC   C2B 1451   2.194   7.194   7.036
   95POPC   C3B 1452   1.980   7.351   6.694
   95POPC   C4B 1453   2.016   7.302   6.258
   96POPC   NC3 1454   4.245   3.491   8.073
   96POPC   PO4 1455   4.644   3.955   7.826
   96POPC   GL1 1456   4.319   3.648   7.602
   96POPC   GL2 1457   4.352   3.260   7.623
   96POPC   C1A 1458   4.172   3.527   7.198
   96POPC   D2A 1459   4.499   3.383   6.900
   96POPC   C3A 1460   4.531   3.672   6.554
   96POPC   C4A 1461   4.188   3.784   6.313
   96POPC   C1B 1462   4.232   3.020   7.255
   96POPC   C2B 1463   4.056   3.126   6.843
   96POPC   C3B 1464   4.200   3.282   6.451
   96POPC   C4B 1465   4.472   3.406   6.085
   97POPC   NC3 1466   5.098   2.893   8.142
   97POPC   PO4 1467   4.529   3.087   8.106
   97POPC   GL1 1468   4.763   2.932   7.693
   97POPC   GL2 1469   5.110   2.798   7.626
   97POPC   C1A 1470   4.760   2.897   7.211
   97POPC   D2A 1471   4.929   2.757   6.773
   97POPC   C3A 1472   4.740   2.710   6.374
   97POPC   C4A 1473   4.549   2.845   5.977
   97POPC   C1B 1474   5.224   2.652   7.194
   97POPC   C2B 1475   5.208   2.350   6.823
   97POPC   C3B 1476   5.242   2.538   6.400
   97POPC   C4B 1477   5.202   3.004   6.359
   98POPC   NC3 1478   1.842   6.546   8.119
   98POPC   PO4 1479   2.252   6.129   8.046
   98POPC   GL1 1480   1.913   6.217   7.706
   98POPC   GL2 1481   1.735   6.569   7.642
   98POPC   C1A 1482   1.659   6.218   7.305
   98POPC   D2A 1483   1.722   6.420   6.923
   98POPC   C3A 1484   1.914   6.307   6.552
   98POPC   C4A 1485   1.697   6.202   6.192
   98POPC   C1B 1486   1.967   6.727   7.282
   98POPC   C2B 1487   2.156   6.710   6.872
   98POPC   C3B 1488   2.093   6.818   6.456
   98POPC   C4B 1489   2.093   6.532   6.101
   99POPC   NC3 1490   1.283   2.899   7.933
   99POPC   PO4 1491   0.811   2.297   8.054
   99POPC   GL1 1492   0.905   2.542   7.686
   99POPC   GL2 1493   0.836   2.888   7.650
   99POPC   C1A 1494   0.919   2.334   7.298
   99POPC   D2A 1495   1.126   2.343   6.907
   99POPC   C3A 1496   0.984   2.393   6.494
   99POPC   C4A 1497   1.110   2.492   6.052
   99POPC   C1B 1498   1.099   2.796   7.260
   99POPC   C2B 1499   1.044   2.817   6.801
   99POPC   C3B 1500   1.241   2.858   6.438
   99POPC   C4B 1501   0.873   2.915   6.230
  100POPC   NC3 1502   8.188  10.364   7.891
  100POPC   PO4 1503   8.211   9.792   8.049
  100POPC   GL1 1504   7.961   9.933   7.687
  100POPC   GL2 1505   7.701  10.219   7.649
  100POPC   C1A 1506   8.062  10.164   7.295
  100POPC   D2A 1507   8.063  10.023   6.892
  100POPC   C3A 1508   8.172  10.222   6.522
  100POPC   C4A 1509   7.934  10.281   6.157
  100POPC   C1B 1510   7.584   9.992   7.248
  100POPC   C2B 1511   7.551   9.972   6.797
  100POPC   C3B 1512   7.761   9.905   6.444
  100POPC   C4B 1513   7.676   9.863   6.010
  101POPC   NC3 1514   1.999   1.359   8.063
  101POPC   PO4 1515   1.991   2.043   8.056
  101POPC   GL1 1516   1.725   1.945   7.684
  101POPC   GL2 1517   1.843   2.275   7.630
  101POPC   C1A 1518   1.746   1.688   7.251
  101POPC   D2A 1519   1.912   1.844   6.803
  101POPC   C3A 1520   2.118   1.680   6.452
  101POPC   C4A 1521   1.815   1.667   6.096
  101POPC   C1B 1522   1.924   2.159   7.234
  101POPC   C2B 1523   1.842   2.385   6.899
  101POPC   C3B 1524   1.955   2.369   6.518
  101POPC   C4B 1525   1.908   2.113   6.274
  102POPC   NC3 1526   0.631   3.551   8.123
  102POPC   PO4 1527   0.067   3.307   7.954
  102POPC   GL1 1528   0.131   3.667   7.665
  102POPC   GL2 1529   0.467   3.584   7.652
  102POPC   C1A 1530   0.193   3.609   7.208
  102POPC   D2A 1531   0.195   3.235   6.951
  102POPC   C3A 1532   0.121   3.326   6.518
  102POPC   C4A 1533   0.231   3.663   6.280
  102POPC   C1B 1534   0.704   3.672   7.316
  102POPC   C2B 1535   0.662   3.507   6.907
  102POPC   C3B 1536   0.698   3.674   6.505
  102POPC   C4B 1537   0.655   3.380   6.209
  103POPC   NC3 1538   0.269  10.171   8.091
  103POPC   PO4 1539   1.033  10.213   8.139
  103POPC   GL1 1540   0.823  10.257   7.674
  103POPC   GL2 1541   0.504  10.136   7.647
  103POPC   C1A 1542   0.789  10.061   7.233
  103POPC   D2A 1543   0.530  10.189   6.888
  103POPC   C3A 1544   0.702  10.312   6.502
  103POPC   C4A 1545   0.635  10.095   6.164
  103POPC   C1B 1546   0.148  10.072   7.409
  103POPC   C2B 1547  10.465  10.110   7.030
  103POPC   C3B 1548   0.053  10.117   6.632
  103POPC   C4B 1549   0.123   9.948   6.235
  104POPC   NC3 1550   7.729   1.324   7.890
  104POPC   PO4 1551   8.224   0.981   8.177
  104POPC   GL1 1552   8.077   1.009   7.681
  104POPC   GL2 1553   7.908   1.299   7.435
  104POPC   C1A 1554   8.235   0.986   7.219
  104POPC   D2A 1555   8.043   1.275   6.915
  104POPC   C3A 1556   8.118   1.163   6.497
  104POPC   C4A 1557   7.980   1.145   6.102
  104POPC   C1B 1558   7.732   0.975   7.184
  104POPC   C2B 1559   7.717   0.923   6.733
  104POPC   C3B 1560   7.599   1.251   6.434
  104POPC   C4B 1561   7.631   1.544   6.079
  105POPC   NC3 1562   6.855   9.994   7.907
  105POPC   PO4 1563   6.196   9.630   8.071
  105POPC   GL1 1564   6.173   9.926   7.726
  105POPC   GL2 1565   6.428  10.196   7.703
  105POPC   C1A 1566   6.082  10.083   7.311
  105POPC   D2A 1567   6.148   9.925   6.895
  105POPC   C3A 1568   6.132  10.243   6.579
  105POPC   C4A 1569   6.333  10.241   6.209
  105POPC   C1B 1570   6.691  10.276   7.337
  105POPC   C2B 1571   6.701  10.103   6.945
  105POPC   C3B 1572   6.679  10.296   6.590
  105POPC   C4B 1573   6.737   0.039   6.242
  106POPC   NC3 1574   4.837   1.938   7.998
  106POPC   PO4 1575   5.155   2.441   8.107
  106POPC   GL1 1576   4.940   2.315   7.666
  106POPC   GL2 1577   4.953   1.953   7.512
  106POPC   C1A 1578   4.808   2.369   7.236
  106POPC   D2A 1579   4.649   2.269   6.847
  106POPC   C3A 1580   4.855   2.224   6.458
  106POPC   C4A 1581   4.687   2.324   6.026
  106POPC   C1B 1582   4.790   1.851   7.129
  106POPC   C2B 1583   4.944   1.810   6.747
  106POPC   C3B 1584   5.020   1.721   6.360
  106POPC   C4B 1585   5.072   2.000   6.066
  107POPC   NC3 1586  10.177   8.518   8.268
  107POPC   PO4 1587   9.724   9.020   8.067
  107POPC   GL1 1588   9.993   8.818   7.725
  107POPC   GL2 1589  10.143   8.481   7.738
  107POPC   C1A 1590  10.203   8.751   7.317
  107POPC   D2A 1591   9.993   8.811   6.945
  107POPC   C3A 1592  10.232   8.731   6.606
  107POPC   C4A 1593  10.065   8.744   6.221
  107POPC   C1B 1594  10.309   8.266   7.367
  107POPC   C2B 1595  10.413   8.374   6.942
  107POPC   C3B 1596  10.301   8.247   6.530
  107POPC   C4B 1597  10.169   8.226   6.129
  108POPC   NC3 1598   1.931   9.893   8.031
  108POPC   PO4 1599   1.544   9.362   8.258
  108POPC   GL1 1600   1.756   9.461   7.803
  108POPC   GL2 1601   2.004   9.205   7.696
  108POPC   C1A 1602   1.941   9.525   7.334
  108POPC   D2A 1603   1.764   9.406   6.946
  108POPC   C3A 1604   1.892   9.560   6.519
  108POPC   C4A 1605   1.637   9.567   6.160
  108POPC   C1B 1606   2.084   9.008   7.315
  108POPC   C2B 1607   2.146   9.057   6.889
  108POPC   C3B 1608   1.883   9.071   6.563
  108POPC   C4B 1609   1.937   9.140   6.163
  109POPC   NC3 1610   0.842   9.817   7.928
  109POPC   PO4 1611   1.482   9.960   8.022
  109POPC   GL1 1612   1.245   9.961   7.680
  109POPC   GL2 1613   1.311  10.275   7.640
  109POPC   C1A 1614   1.302   9.968   7.247
  109POPC   D2A 1615   1.325   9.758   6.894
  109POPC   C3A 1616   1.015   9.914   6.630
  109POPC   C4A 1617   1.158   9.806   6.258
  109POPC   C1B 1618   1.125  10.461   7.283
  109POPC   C2B 1619   1.047  10.403   6.856
  109POPC   C3B 1620   1.221  10.335   6.426
  109POPC   C4B 1621   1.043  10.491   6.028
  110POPC   NC3 1622   7.669   9.728   8.161
  110POPC   PO4 1623   8.067   9.216   8.278
  110POPC   GL1 1624   7.891   9.253   7.858
  110POPC   GL2 1625   8.198   9.385   7.729
  110POPC   C1A 1626   7.794   9.492   7.447
  110POPC   D2A 1627   7.577   9.508   7.052
  110POPC   C3A 1628   7.763   9.447   6.654
  110POPC   C4A 1629   7.821   9.420   6.241
  110POPC   C1B 1630   8.271   9.665   7.373
  110POPC   C2B 1631   8.141   9.533   6.979
  110POPC   C3B 1632   8.256   9.682   6.559
  110POPC   C4B 1633   8.187   9.819   6.156
  111POPC   NC3 1634   9.282   7.967   8.080
  111POPC   PO4 1635   9.909   8.196   8.069
  111POPC   GL1 1636   9.626   8.143   7.712
  111POPC   GL2 1637   9.547   7.797   7.688
  111POPC   C1A 1638   9.434   8.106   7.282
  111POPC   D2A 1639   9.518   7.936   6.905
  111POPC   C3A 1640   9.386   8.135   6.549
  111POPC   C4A 1641   9.283   7.960   6.167
  111POPC   C1B 1642   9.484   7.578   7.307
  111POPC   C2B 1643   9.291   7.467   6.927
  111POPC   C3B 1644   9.430   7.596   6.530
  111POPC   C4B 1645   9.552   7.452   6.166
  112POPC   NC3 1646   8.715   1.230   8.028
  112POPC   PO4 1647   8.141   1.549   7.861
  112POPC   GL1 1648   8.384   1.393   7.573
  112POPC   GL2 1649   8.555   1.111   7.571
  112POPC   C1A 1650   8.458   1.471   7.178
  112POPC   D2A 1651   8.526   1.323   6.793
  112POPC   C3A 1652   8.483   1.522   6.385
  112POPC   C4A 1653   8.555   1.421   5.951
  112POPC   C1B 1654   8.769   1.051   7.190
  112POPC   C2B 1655   8.710   0.847   6.805
  112POPC   C3B 1656   8.590   0.998   6.418
  112POPC   C4B 1657   8.447   0.942   6.055
  113POPC   NC3 1658   5.207   0.319   8.300
  113POPC   PO4 1659   5.766   0.688   8.168
  113POPC   GL1 1660   5.695   0.654   7.718
  113POPC   GL2 1661   5.837   0.332   7.709
  113POPC   C1A 1662   5.587   0.493   7.249
  113POPC   D2A 1663   5.532   0.649   6.802
  113POPC   C3A 1664   5.516   0.540   6.332
  113POPC   C4A 1665   5.444   0.775   5.940
  113POPC   C1B 1666   6.056   0.556   7.367
  113POPC   C2B 1667   6.025   0.374   6.980
  113POPC   C3B 1668   5.925   0.377   6.579
  113POPC   C4B 1669   5.999   0.715   6.295
  114POPC   NC3 1670   2.011   3.572   8.062
  114POPC   PO4 1671   2.059   2.973   8.333
  114POPC   GL1 1672   2.136   3.154   7.825
  114POPC   GL2 1673   1.915   3.398   7.612
  114POPC   C1A 1674   2.204   3.067   7.385
  114POPC   D2A 1675   2.014   2.943   7.004
  114POPC   C3A 1676   2.180   3.084   6.641
  114POPC   C4A 1677   2.133   3.429   6.374
  114POPC   C1B 1678   1.643   3.386   7.278
  114POPC   C2B 1679   1.580   3.632   6.905
  114POPC   C3B 1680   1.582   3.373   6.551
  114POPC   C4B 1681   1.652   3.169   6.189
  115POPC   NC3 1682   7.838   2.738   8.113
  115POPC   PO4 1683   7.601   2.139   8.030
  115POPC   GL1 1684   7.812   2.448   7.696
  115POPC   GL2 1685   8.026   2.755   7.666
  115POPC   C1A 1686   8.057   2.386   7.305
  115POPC   D2A 1687   7.875   2.518   6.941
  115POPC   C3A 1688   8.085   2.606   6.577
  115POPC   C4A 1689   7.808   2.549   6.230
  115POPC   C1B 1690   8.210   2.913   7.335
  115POPC   C2B 1691   8.082   2.996   6.944
  115POPC   C3B 1692   7.808   3.051   6.622
  115POPC   C4B 1693   8.027   3.026   6.240
  116POPC   NC3 1694   2.944   9.490   8.245
  116POPC   PO4 1695   2.285   9.592   8.075
  116POPC   GL1 1696   2.483   9.396   7.715
  116POPC   GL2 1697   2.712   9.617   7.632
  116POPC   C1A 1698   2.438   9.407   7.246
  116POPC   D2A 1699   2.317   9.600   6.843
  116POPC   C3A 1700   2.338   9.339   6.471
  116POPC   C4A 1701   2.419   9.235   6.047
  116POPC   C1B 1702   2.734   9.844   7.271
  116POPC   C2B 1703   2.917   9.729   6.906
  116POPC   C3B 1704   2.797   9.560   6.589
  116POPC   C4B 1705   2.828   9.493   6.196
  117POPC   NC3 1706   9.343   2.795   7.917
  117POPC   PO4 1707   9.530   2.270   8.268
  117POPC   GL1 1708   9.467   2.317   7.790
  117POPC   GL2 1709   9.201   2.509   7.536
  117POPC   C1A 1710   9.608   2.322   7.339
  117POPC   D2A 1711   9.359   2.461   6.967
  117POPC   C3A 1712   9.526   2.545   6.560
  117POPC   C4A 1713   9.294   2.639   6.175
  117POPC   C1B 1714   9.504   2.828   7.300
  117POPC   C2B 1715   9.366   3.049   6.962
  117POPC   C3B 1716   9.195   2.957   6.582
  117POPC   C4B 1717   9.598   3.052   6.403
  118POPC   NC3 1718   5.653   8.300   7.936
  118POPC   PO4 1719   6.095   8.788   8.131
  118POPC   GL1 1720   6.021   8.659   7.718
  118POPC   GL2 1721   5.721   8.569   7.514
  118POPC   C1A 1722   6.072   8.858   7.317
  118POPC   D2A 1723   5.859   9.002   6.950
  118POPC   C3A 1724   5.883   8.745   6.575
  118POPC   C4A 1725   6.012   8.896   6.177
  118POPC   C1B 1726   5.519   8.674   7.153
  118POPC   C2B 1727   5.419   8.526   6.750
  118POPC   C3B 1728   5.339   8.617   6.345
  118POPC   C4B 1729   5.659   8.537   6.101
  119POPC   NC3 1730   1.175   8.977   8.174
  119POPC   PO4 1731   1.519   8.463   8.077
  119POPC   GL1 1732   1.399   8.521   7.691
  119POPC   GL2 1733   1.170   8.708   7.741
  119POPC   C1A 1734   1.310   8.370   7.294
  119POPC   D2A 1735   1.506   8.346   6.899
  119POPC   C3A 1736   1.256   8.321   6.546
  119POPC   C4A 1737   1.210   8.569   6.229
  119POPC   C1B 1738   1.092   8.836   7.341
  119POPC   C2B 1739   1.142   8.713   6.948
  119POPC   C3B 1740   1.046   8.974   6.651
  119POPC   C4B 1741   0.939   8.987   6.259
  120POPC   NC3 1742   2.768  10.309   8.384
  120POPC   PO4 1743   2.597   0.450   8.212
  120POPC   GL1 1744   2.780   0.440   7.804
  120POPC   GL2 1745   3.010   0.695   7.706
  120POPC   C1A 1746   2.587   0.289   7.411
  120POPC   D2A 1747   2.650   0.056   7.031
  120POPC   C3A 1748   2.754   0.283   6.671
  120POPC   C4A 1749   2.876   0.296   6.254
  120POPC   C1B 1750   2.905   0.675   7.260
  120POPC   C2B 1751   2.640   0.772   6.899
  120POPC   C3B 1752   2.696   0.756   6.470
  120POPC   C4B 1753   2.383   0.479   6.325
  121POPC   NC3 1754   4.056   7.821   8.084
  121POPC   PO4 1755   4.560   7.351   8.093
  121POPC   GL1 1756   4.301   7.430   7.730
  121POPC   GL2 1757   4.040   7.171   7.710
  121POPC   C1A 1758   4.229   7.355   7.261
  121POPC   D2A 1759   4.463   7.390   6.852
  121POPC   C3A 1760   4.383   7.209   6.441
  121POPC   C4A 1761   4.640   6.924   6.172
  121POPC   C1B 1762   4.062   6.881   7.321
  121POPC   C2B 1763   4.106   6.971   6.845
  121POPC   C3B 1764   4.030   6.848   6.377
  121POPC   C4B 1765   4.188   7.096   5.972
  122POPC   NC3 1766   7.933   3.411   8.259
  122POPC   PO4 1767   8.449   3.777   7.989
  122POPC   GL1 1768   8.187   3.635   7.655
  122POPC   GL2 1769   7.976   3.299   7.726
  122POPC   C1A 1770   8.203   3.429   7.281
  122POPC   D2A 1771   8.011   3.488   6.927
  122POPC   C3A 1772   8.200   3.404   6.578
  122POPC   C4A 1773   8.052   3.536   6.224
  122POPC   C1B 1774   7.743   3.169   7.336
  122POPC   C2B 1775   7.525   3.405   6.992
  122POPC   C3B 1776   7.638   3.539   6.572
  122POPC   C4B 1777   7.606   3.314   6.213
  123POPC   NC3 1778   2.574   8.465   8.472
  123POPC   PO4 1779   2.330   7.990   8.024
  123POPC   GL1 1780   2.635   7.889   7.729
  123POPC   GL2 1781   2.979   7.893   7.884
  123POPC   C1A 1782   2.582   7.903   7.283
  123POPC   D2A 1783   2.574   8.147   6.929
  123POPC   C3A 1784   2.590   7.899   6.584
  123POPC   C4A 1785   2.591   8.026   6.182
  123POPC   C1B 1786   3.038   7.808   7.433
  123POPC   C2B 1787   2.997   7.774   6.964
  123POPC   C3B 1788   2.945   7.549   6.545
  123POPC   C4B 1789   2.986   7.691   6.132
  124POPC   NC3 1790   2.494   8.402   7.892
  124POPC   PO4 1791   2.999   8.314   8.367
  124POPC   GL1 1792   3.014   8.397   7.850
  124POPC   GL2 1793   2.976   8.744   7.692
  124POPC   C1A 1794   2.906   8.325   7.358
  124POPC   D2A 1795   2.755   8.637   6.993
  124POPC   C3A 1796   2.712   8.493   6.526
  124POPC   C4A 1797   3.004   8.439   6.168
  124POPC   C1B 1798   2.836   9.045   7.327
  124POPC   C2B 1799   2.658   9.137   6.876
  124POPC   C3B 1800   2.755   9.057   6.447
  124POPC   C4B 1801   2.686   8.825   6.083
  125POPC   NC3 1802   7.803   6.435   8.122
  125POPC   PO4 1803   8.318   6.849   8.204
  125POPC   GL1 1804   8.099   6.722   7.764
  125POPC   GL2 1805   7.984   6.359   7.681
  125POPC   C1A 1806   8.177   6.570   7.293
  125POPC   D2A 1807   8.062   6.355   6.932
  125POPC   C3A 1808   8.040   6.513   6.510
  125POPC   C4A 1809   8.276   6.690   6.174
  125POPC   C1B 1810   7.698   6.413   7.290
  125POPC   C2B 1811   7.582   6.563   6.860
  125POPC   C3B 1812   7.540   6.385   6.426
  125POPC   C4B 1813   7.555   6.424   5.963
  126POPC   NC3 1814   2.553   5.813   7.916
  126POPC   PO4 1815   2.322   5.190   8.061
  126POPC   GL1 1816   2.412   5.283   7.666
  126POPC   GL2 1817   2.721   5.486   7.579
  126POPC   C1A 1818   2.312   5.457   7.281
  126POPC   D2A 1819   2.326   5.686   6.919
  126POPC   C3A 1820   2.577   5.536   6.628
  126POPC   C4A 1821   2.504   5.494   6.231
  126POPC   C1B 1822   2.646   5.866   7.275
  126POPC   C2B 1823   2.706   6.027   6.843
  126POPC   C3B 1824   2.750   5.971   6.408
  126POPC   C4B 1825   2.994   5.676   6.210
  127POPC   NC3 1826   9.357   9.524   8.137
  127POPC   PO4 1827  10.001   9.807   8.090
  127POPC   GL1 1828   9.763   9.689   7.691
  127POPC   GL2 1829   9.511   9.393   7.688
  127POPC   C1A 1830   9.730   9.523   7.261
  127POPC   D2A 1831   9.822   9.327   6.861
  127POPC   C3A 1832   9.819   9.573   6.490
  127POPC   C4A 1833   9.640   9.772   6.125
  127POPC   C1B 1834   9.254   9.330   7.304
  127POPC   C2B 1835   9.296   9.471   6.855
  127POPC   C3B 1836   9.307   9.471   6.388
  127POPC   C4B 1837   9.044   9.241   6.100
  128POPC   NC3 1838   4.685   1.300   7.953
  128POPC   PO4 1839   5.152   0.762   8.065
  128POPC   GL1 1840   5.196   0.868   7.629
  128POPC   GL2 1841   4.912   1.077   7.540
  128POPC   C1A 1842   5.286   0.918   7.185
  128POPC   D2A 1843   5.024   0.886   6.826
  128POPC   C3A 1844   5.111   0.857   6.359
  128POPC   C4A 1845   5.015   1.032   5.916
  128POPC   C1B 1846   5.167   1.412   7.292
  128POPC   C2B 1847   5.238   1.383   6.828
  128POPC   C3B 1848   4.865   1.283   6.554
  128POPC   C4B 1849   4.664   1.348   6.152
  129POPC   NC3 1850   8.664   9.823   8.129
  129POPC   PO4 1851   8.627  10.473   8.049
  129POPC   GL1 1852   8.811  10.206   7.764
  129POPC   GL2 1853   8.525  10.007   7.665
  129POPC   C1A 1854   9.032  10.221   7.373
  129POPC   D2A 1855   9.179  10.038   6.973
  129POPC   C3A 1856   8.996   9.848   6.617
  129POPC   C4A 1857   8.853  10.061   6.273
  129POPC   C1B 1858   8.556  10.087   7.223
  129POPC   C2B 1859   8.705  10.233   6.832
  129POPC   C3B 1860   8.623  10.457   6.467
  129POPC   C4B 1861   8.436  10.246   6.055
  130POPC   NC3 1862   3.400   3.418   8.044
  130POPC   PO4 1863   3.991   3.109   7.959
  130POPC   GL1 1864   3.803   3.361   7.652
  130POPC   GL2 1865   3.418   3.438   7.546
  130POPC   C1A 1866   3.747   3.220   7.241
  130POPC   D2A 1867   3.506   3.039   6.937
  130POPC   C3A 1868   3.454   3.335   6.611
  130POPC   C4A 1869   3.736   3.482   6.297
  130POPC   C1B 1870   3.321   3.504   7.107
  130POPC   C2B 1871   3.114   3.721   6.747
  130POPC   C3B 1872   3.224   3.838   6.348
  130POPC   C4B 1873   3.298   3.543   6.022
  131POPC   NC3 1874   5.203  10.106   8.021
  131POPC   PO4 1875   4.628   9.875   8.079
  131POPC   GL1 1876   4.800  10.152   7.702
  131POPC   GL2 1877   5.107  10.394   7.636
  131POPC   C1A 1878   4.929  10.080   7.231
  131POPC   D2A 1879   5.211   9.905   6.894
  131POPC   C3A 1880   5.096  10.037   6.489
  131POPC   C4A 1881   4.641  10.090   6.390
  131POPC   C1B 1882   5.276  10.438   7.234
  131POPC   C2B 1883   5.025  10.449   6.853
  131POPC   C3B 1884   4.749   0.067   6.506
  131POPC   C4B 1885   4.976  10.382   6.131
  132POPC   NC3 1886   6.476   7.636   8.052
  132POPC   PO4 1887   6.782   8.096   8.351
  132POPC   GL1 1888   6.668   8.054   7.801
  132POPC   GL2 1889   6.681   7.737   7.617
  132POPC   C1A 1890   6.711   8.050   7.242
  132POPC   D2A 1891   6.784   7.730   6.887
  132POPC   C3A 1892   6.724   7.969   6.535
  132POPC   C4A 1893   6.537   8.029   6.138
  132POPC   C1B 1894   6.298   7.800   7.368
  132POPC   C2B 1895   6.281   7.868   6.913
  132POPC   C3B 1896   6.288   7.710   6.470
  132POPC   C4B 1897   6.054   7.890   6.160
  133POPC   NC3 1898   5.452   1.057   8.260
  133POPC   PO4 1899   5.929   1.450   8.071
  133POPC   GL1 1900   5.865   1.403   7.663
  133POPC   GL2 1901   5.601   1.171   7.712
  133POPC   C1A 1902   5.704   1.477   7.259
  133POPC   D2A 1903   5.877   1.603   6.923
  133POPC   C3A 1904   5.687   1.540   6.581
  133POPC   C4A 1905   5.859   1.372   6.218
  133POPC   C1B 1906   5.785   0.986   7.328
  133POPC   C2B 1907   5.691   1.110   6.907
  133POPC   C3B 1908   5.586   1.037   6.480
  133POPC   C4B 1909   5.303   1.303   6.295
  134POPC   NC3 1910   4.748   7.712   7.895
  134POPC   PO4 1911   5.361   7.936   7.959
  134POPC   GL1 1912   5.119   7.987   7.608
  134POPC   GL2 1913   4.824   8.180   7.643
  134POPC   C1A 1914   5.177   7.718   7.250
  134POPC   D2A 1915   4.928   7.611   6.898
  134POPC   C3A 1916   5.153   7.616   6.527
  134POPC   C4A 1917   5.212   7.700   6.109
  134POPC   C1B 1918   4.756   8.006   7.221
  134POPC   C2B 1919   4.635   8.022   6.784
  134POPC   C3B 1920   4.797   7.944   6.386
  134POPC   C4B 1921   4.655   8.000   6.007
  135POPC   NC3 1922   1.095   8.280   8.068
  135POPC   PO4 1923   0.526   8.270   7.915
  135POPC   GL1 1924   0.829   8.068   7.674
  135POPC   GL2 1925   1.197   8.022   7.657
  135POPC   C1A 1926   0.793   7.994   7.266
  135POPC   D2A 1927   0.938   8.217   6.924
  135POPC   C3A 1928   0.800   8.087   6.491
  135POPC   C4A 1929   0.878   8.185   6.061
  135POPC   C1B 1930   1.274   7.858   7.259
  135POPC   C2B 1931   1.347   7.544   6.968
  135POPC   C3B 1932   1.190   7.825   6.689
  135POPC   C4B 1933   1.246   7.887   6.246
  136POPC   NC3 1934   8.667   6.490   8.148
  136POPC   PO4 1935   8.121   6.074   8.203
  136POPC   GL1 1936   8.469   6.112   7.840
  136POPC   GL2 1937   8.497   6.426   7.663
  136POPC   C1A 1938   8.558   6.053   7.354
  136POPC   D2A 1939   8.365   5.929   6.971
  136POPC   C3A 1940   8.412   6.172   6.619
  136POPC   C4A 1941   8.309   6.087   6.209
  136POPC   C1B 1942   8.661   6.593   7.241
  136POPC   C2B 1943   8.477   6.681   6.847
  136POPC   C3B 1944   8.696   6.575   6.495
  136POPC   C4B 1945   8.778   6.296   6.166
  137POPC   NC3 1946   5.648   7.598   8.027
  137POPC   PO4 1947   6.178   7.989   8.029
  137POPC   GL1 1948   5.887   7.889   7.653
  137POPC   GL2 1949   5.616   8.063   7.502
  137POPC   C1A 1950   5.815   7.737   7.176
  137POPC   D2A 1951   5.900   7.507   6.757
  137POPC   C3A 1952   5.643   7.588   6.377
  137POPC   C4A 1953   5.540   7.335   5.980
  137POPC   C1B 1954   5.337   8.197   7.184
  137POPC   C2B 1955   5.133   8.089   6.812
  137POPC   C3B 1956   5.270   8.121   6.394
  137POPC   C4B 1957   5.590   8.029   6.095
  138POPC   NC3 1958   8.376   5.618   8.087
  138POPC   PO4 1959   9.012   5.873   8.098
  138POPC   GL1 1960   8.828   5.760   7.693
  138POPC   GL2 1961   8.541   5.609   7.614
  138POPC   C1A 1962   8.907   5.669   7.245
  138POPC   D2A 1963   8.899   5.905   6.870
  138POPC   C3A 1964   8.777   5.878   6.456
  138POPC   C4A 1965   8.977   5.814   6.090
  138POPC   C1B 1966   8.458   5.452   7.220
  138POPC   C2B 1967   8.574   5.526   6.770
  138POPC   C3B 1968   8.715   5.377   6.393
  138POPC   C4B 1969   8.515   5.603   6.107
  139POPC   NC3 1970   3.906   8.237   7.670
  139POPC   PO4 1971   4.418   8.030   7.886
  139POPC   GL1 1972   4.275   7.906   7.512
  139POPC   GL2 1973   3.944   7.732   7.518
  139POPC   C1A 1974   4.300   7.812   7.095
  139POPC   D2A 1975   4.052   7.670   6.754
  139POPC   C3A 1976   4.346   7.715   6.444
  139POPC   C4A 1977   4.365   7.575   6.037
  139POPC   C1B 1978   3.828   7.969   7.113
  139POPC   C2B 1979   3.651   7.995   6.716
  139POPC   C3B 1980   3.841   8.120   6.333
  139POPC   C4B 1981   3.901   7.731   6.201
  140POPC   NC3 1982   3.350   8.026   8.248
  140POPC   PO4 1983   3.509   8.423   7.749
  140POPC   GL1 1984   3.405   8.133   7.531
  140POPC   GL2 1985   3.486   7.872   7.739
  140POPC   C1A 1986   3.342   8.146   7.112
  140POPC   D2A 1987   3.079   8.290   6.831
  140POPC   C3A 1988   3.089   8.049   6.496
  140POPC   C4A 1989   3.362   8.069   6.160
  140POPC   C1B 1990   3.483   7.676   7.297
  140POPC   C2B 1991   3.457   7.546   6.862
  140POPC   C3B 1992   3.441   7.634   6.404
  140POPC   C4B 1993   3.456   7.587   5.935
  141POPC   NC3 1994   3.486   9.691   8.064
  141POPC   PO4 1995   3.060   9.077   8.101
  141POPC   GL1 1996   3.078   9.291   7.740
  141POPC   GL2 1997   3.377   9.355   7.718
  141POPC   C1A 1998   3.115   9.492   7.313
  141POPC   D2A 1999   3.147   9.239   6.939
  141POPC   C3A 2000   3.252   9.318   6.519
  141POPC   C4A 2001   3.327   9.607   6.186
  141POPC   C1B 2002   3.593   9.316   7.311
  141POPC   C2B 2003   3.659   9.192   6.909
  141POPC   C3B 2004   3.660   8.968   6.560
  141POPC   C4B 2005   3.614   9.134   6.201
  142POPC   NC3 2006   3.438   6.035   7.980
  142POPC   PO4 2007   3.370   6.741   8.151
  142POPC   GL1 2008   3.179   6.628   7.719
  142POPC   GL2 2009   3.292   6.325   7.553
  142POPC   C1A 2010   3.300   6.747   7.255
  142POPC   D2A 2011   3.178   6.751   6.808
  142POPC   C3A 2012   3.465   6.684   6.433
  142POPC   C4A 2013   3.397   6.480   6.011
  142POPC   C1B 2014   3.557   6.324   7.147
  142POPC   C2B 2015   3.688   6.292   6.689
  142POPC   C3B 2016   3.820   6.337   6.244
  142POPC   C4B 2017   3.621   6.012   5.937
  143POPC   NC3 2018   1.967   2.531   8.138
  143POPC   PO4 2019   1.660   3.164   7.994
  143POPC   GL1 2020   1.775   2.793   7.747
  143POPC   GL2 2021   2.152   2.670   7.683
  143POPC   C1A 2022   1.732   2.670   7.330
  143POPC   D2A 2023   1.519   2.782   6.949
  143POPC   C3A 2024   1.742   2.824   6.567
  143POPC   C4A 2025   1.627   2.613   6.193
  143POPC   C1B 2026   2.246   2.544   7.249
  143POPC   C2B 2027   2.317   2.577   6.786
  143POPC   C3B 2028   2.336   2.666   6.348
  143POPC   C4B 2029   2.105   2.971   6.125
  144POPC   NC3 2030   2.485   3.028   8.145
  144POPC   PO4 2031   2.397   3.681   8.298
  144POPC   GL1 2032   2.508   3.532   7.861
  144POPC   GL2 2033   2.850   3.351   7.801
  144POPC   C1A 2034   2.388   3.562   7.422
  144POPC   D2A 2035   2.425   3.363   7.009
  144POPC   C3A 2036   2.572   3.582   6.653
  144POPC   C4A 2037   2.495   3.785   6.266
  144POPC   C1B 2038   2.874   3.406   7.320
  144POPC   C2B 2039   2.938   3.272   6.874
  144POPC   C3B 2040   2.976   3.369   6.396
  144POPC   C4B 2041   2.911   3.206   5.931
  145POPC   NC3 2042   0.683   2.734   8.134
  145POPC   PO4 2043   0.088   2.489   8.136
  145POPC   GL1 2044   0.277   2.835   7.823
  145POPC   GL2 2045   0.406   2.554   7.724
  145POPC   C1A 2046   0.424   3.114   7.437
  145POPC   D2A 2047   0.682   3.038   7.067
  145POPC   C3A 2048   0.556   3.056   6.622
  145POPC   C4A 2049   0.343   2.985   6.201
  145POPC   C1B 2050   0.515   2.626   7.311
  145POPC   C2B 2051   0.622   2.540   6.886
  145POPC   C3B 2052   0.496   2.570   6.468
  145POPC   C4B 2053   0.640   2.362   6.132
  146POPC   NC3 2054   7.926   8.762   8.191
  146POPC   PO4 2055   8.493   8.835   7.981
  146POPC   GL1 2056   8.257   8.582   7.756
  146POPC   GL2 2057   7.920   8.666   7.713
  146POPC   C1A 2058   8.165   8.429   7.352
  146POPC   D2A 2059   8.109   8.649   6.977
  146POPC   C3A 2060   8.160   8.519   6.575
  146POPC   C4A 2061   8.179   8.794   6.227
  146POPC   C1B 2062   8.070   8.974   7.403
  146POPC   C2B 2063   7.868   9.088   7.006
  146POPC   C3B 2064   7.790   8.917   6.578
  146POPC   C4B 2065   7.730   8.588   6.244
  147POPC   NC3 2066   1.198   9.758   8.318
  147POPC   PO4 2067   0.863   9.317   8.106
  147POPC   GL1 2068   1.228   9.469   7.855
  147POPC   GL2 2069   1.123   9.220   7.655
  147POPC   C1A 2070   1.447   9.506   7.409
  147POPC   D2A 2071   1.263   9.257   7.041
  147POPC   C3A 2072   1.397   9.340   6.585
  147POPC   C4A 2073   1.422   9.096   6.204
  147POPC   C1B 2074   0.963   9.568   7.353
  147POPC   C2B 2075   0.813   9.585   6.950
  147POPC   C3B 2076   0.847   9.425   6.533
  147POPC   C4B 2077   0.822   9.458   6.094
  148POPC   NC3 2078   9.668   4.345   8.030
  148POPC   PO4 2079   9.409   5.000   8.075
  148POPC   GL1 2080   9.553   4.764   7.761
  148POPC   GL2 2081   9.250   4.582   7.723
  148POPC   C1A 2082   9.799   4.732   7.402
  148POPC   D2A 2083   9.664   4.604   7.000
  148POPC   C3A 2084   9.699   4.924   6.678
  148POPC   C4A 2085   9.811   4.877   6.256
  148POPC   C1B 2086   9.282   4.787   7.324
  148POPC   C2B 2087   9.164   4.838   6.909
  148POPC   C3B 2088   9.225   5.024   6.530
  148POPC   C4B 2089   9.322   4.812   6.163
  149POPC   NC3 2090   0.943   1.316   7.782
  149POPC   PO4 2091   1.514   1.356   7.997
  149POPC   GL1 2092   1.338   1.056   7.593
  149POPC   GL2 2093   0.917   0.959   7.450
  149POPC   C1A 2094   1.311   0.862   7.177
  149POPC   D2A 2095   1.105   1.059   6.809
  149POPC   C3A 2096   1.370   0.999   6.431
  149POPC   C4A 2097   1.480   1.270   6.075
  149POPC   C1B 2098   0.724   1.332   7.184
  149POPC   C2B 2099   0.680   1.536   6.773
  149POPC   C3B 2100   0.915   1.387   6.445
  149POPC   C4B 2101   0.867   0.955   6.325
  150POPC   NC3 2102   7.925   7.151   8.256
  150POPC   PO4 2103   8.186   7.673   7.967
  150POPC   GL1 2104   7.972   7.435   7.655
  150POPC   GL2 2105   7.790   7.139   7.757
  150POPC   C1A 2106   8.017   7.423   7.222
  150POPC   D2A 2107   7.866   7.554   6.842
  150POPC   C3A 2108   8.037   7.505   6.430
  150POPC   C4A 2109   7.862   7.667   6.042
  150POPC   C1B 2110   7.852   6.949   7.350
  150POPC   C2B 2111   7.998   6.872   6.926
  150POPC   C3B 2112   7.967   7.009   6.513
  150POPC   C4B 2113   7.653   6.862   6.236
  151POPC   NC3 2114   5.812   9.894   8.137
  151POPC   PO4 2115   5.461  10.498   8.011
  151POPC   GL1 2116   5.645  10.344   7.633
  151POPC   GL2 2117   5.649   9.981   7.671
  151POPC   C1A 2118   5.771  10.492   7.211
  151POPC   D2A 2119   5.518   0.150   6.844
  151POPC   C3A 2120   5.394   0.052   6.424
  151POPC   C4A 2121   5.775   0.085   6.187
  151POPC   C1B 2122   5.556   9.994   7.259
  151POPC   C2B 2123   5.676  10.139   6.862
  151POPC   C3B 2124   5.638  10.128   6.450
  151POPC   C4B 2125   5.505   9.842   6.174
  152POPC   NC3 2126   6.296   2.536   8.057
  152POPC   PO4 2127   6.928   2.453   8.182
  152POPC   GL1 2128   6.761   2.578   7.737
  152POPC   GL2 2129   6.381   2.611   7.575
  152POPC   C1A 2130   6.738   2.472   7.280
  152POPC   D2A 2131   6.407   2.598   6.986
  152POPC   C3A 2132   6.616   2.677   6.626
  152POPC   C4A 2133   6.806   2.422   6.310
  152POPC   C1B 2134   6.078   2.819   7.311
  152POPC   C2B 2135   6.000   2.907   6.849
  152POPC   C3B 2136   6.165   2.786   6.439
  152POPC   C4B 2137   6.294   2.346   6.346
  153POPC   NC3 2138  10.155   5.853   7.893
  153POPC   PO4 2139  10.405   6.391   8.181
  153POPC   GL1 2140  10.257   6.359   7.743
  153POPC   GL2 2141   9.899   6.302   7.722
  153POPC   C1A 2142  10.214   6.165   7.320
  153POPC   D2A 2143   0.022   6.067   6.992
  153POPC   C3A 2144  10.380   6.205   6.596
  153POPC   C4A 2145  10.465   6.408   6.206
  153POPC   C1B 2146   9.862   6.532   7.317
  153POPC   C2B 2147  10.127   6.542   6.937
  153POPC   C3B 2148  10.091   6.644   6.494
  153POPC   C4B 2149  10.008   6.609   6.016
  154POPC   NC3 2150   8.156   4.961   8.050
  154POPC   PO4 2151   7.708   4.449   7.988
  154POPC   GL1 2152   7.895   4.558   7.602
  154POPC   GL2 2153   8.220   4.664   7.633
  154POPC   C1A 2154   7.806   4.626   7.165
  154POPC   D2A 2155   7.853   4.838   6.762
  154POPC   C3A 2156   7.530   4.890   6.457
  154POPC   C4A 2157   7.488   5.048   6.025
  154POPC   C1B 2158   8.116   5.024   7.311
  154POPC   C2B 2159   8.170   5.229   6.882
  154POPC   C3B 2160   8.277   5.109   6.486
  154POPC   C4B 2161   8.014   4.856   6.270
  155POPC   NC3 2162   6.382   8.355   8.250
  155POPC   PO4 2163   6.790   8.826   8.033
  155POPC   GL1 2164   6.569   8.882   7.633
  155POPC   GL2 2165   6.535   8.533   7.663
  155POPC   C1A 2166   6.555   8.837   7.153
  155POPC   D2A 2167   6.340   8.954   6.745
  155POPC   C3A 2168   6.488   8.875   6.302
  155POPC   C4A 2169   6.420   8.923   5.824
  155POPC   C1B 2170   6.257   8.345   7.372
  155POPC   C2B 2171   6.173   8.477   6.942
  155POPC   C3B 2172   6.398   8.421   6.542
  155POPC   C4B 2173   6.784   8.444   6.297
  156POPC   NC3 2174   9.479   0.648   8.321
  156POPC   PO4 2175   9.538   1.322   8.108
  156POPC   GL1 2176   9.475   1.363   7.659
  156POPC   GL2 2177   9.768   1.189   7.564
  156POPC   C1A 2178   9.314   1.128   7.276
  156POPC   D2A 2179   9.189   0.905   6.928
  156POPC   C3A 2180   9.013   1.275   6.680
  156POPC   C4A 2181   8.964   1.328   6.241
  156POPC   C1B 2182   9.794   1.188   7.108
  156POPC   C2B 2183   9.515   1.254   6.763
  156POPC   C3B 2184   9.472   1.182   6.323
  156POPC   C4B 2185   9.679   1.034   5.953
  157POPC   NC3 2186   1.692   4.303   8.120
  157POPC   PO4 2187   2.146   3.997   7.907
  157POPC   GL1 2188   1.805   4.069   7.668
  157POPC   GL2 2189   1.821   4.443   7.656
  157POPC   C1A 2190   1.824   3.882   7.281
  157POPC   D2A 2191   2.127   3.788   6.960
  157POPC   C3A 2192   1.922   3.842   6.579
  157POPC   C4A 2193   2.010   3.929   6.196
  157POPC   C1B 2194   2.034   4.361   7.267
  157POPC   C2B 2195   1.844   4.244   6.880
  157POPC   C3B 2196   1.878   4.372   6.444
  157POPC   C4B 2197   1.978   4.381   5.965
  158POPC   NC3 2198   4.025   1.829   8.067
  158POPC   PO4 2199   4.572   1.688   7.734
  158POPC   GL1 2200   4.431   2.011   7.482
  158POPC   GL2 2201   4.102   2.017   7.595
  158POPC   C1A 2202   4.223   2.003   7.075
  158POPC   D2A 2203   4.142   2.316   6.775
  158POPC   C3A 2204   4.352   2.237   6.424
  158POPC   C4A 2205   4.531   1.833   6.313
  158POPC   C1B 2206   3.990   1.636   7.383
  158POPC   C2B 2207   4.046   1.374   7.012
  158POPC   C3B 2208   4.204   1.576   6.648
  158POPC   C4B 2209   4.000   1.854   6.376
  159POPC   NC3 2210   2.838   2.776   8.564
  159POPC   PO4 2211   2.446   2.553   8.089
  159POPC   GL1 2212   2.794   2.729   7.865
  159POPC   GL2 2213   2.988   2.429   7.838
  159POPC   C1A 2214   2.735   2.956   7.482
  159POPC   D2A 2215   2.565   2.889   7.082
  159POPC   C3A 2216   2.671   2.917   6.661
  159POPC   C4A 2217   2.553   3.136   6.299
  159POPC   C1B 2218   2.790   2.461   7.411
  159POPC   C2B 2219   2.752   2.362   6.989
  159POPC   C3B 2220   2.923   2.461   6.607
  159POPC   C4B 2221   2.842   2.714   6.226
  160POPC   NC3 2222   7.310   3.642   8.060
  160POPC   PO4 2223   6.782   3.355   8.309
  160POPC   GL1 2224   6.990   3.352   7.791
  160POPC   GL2 2225   7.376   3.375   7.649
  160POPC   C1A 2226   6.997   3.546   7.303
  160POPC   D2A 2227   7.080   3.658   6.829
  160POPC   C3A 2228   6.764   3.621   6.436
  160POPC   C4A 2229   6.830   3.725   5.981
  160POPC   C1B 2230   7.187   3.076   7.376
  160POPC   C2B 2231   7.103   3.155   6.947
  160POPC   C3B 2232   7.192   3.275   6.521
  160POPC   C4B 2233   7.237   3.661   6.292
  161POPC   NC3 2234   6.549   3.574   7.990
  161POPC   PO4 2235   6.465   2.952   7.976
  161POPC   GL1 2236   6.615   3.069   7.593
  161POPC   GL2 2237   6.538   3.406   7.493
  161POPC   C1A 2238   6.677   2.999   7.168
  161POPC   D2A 2239   6.644   3.310   6.830
  161POPC   C3A 2240   6.507   3.174   6.422
  161POPC   C4A 2241   6.410   3.418   6.061
  161POPC   C1B 2242   6.239   3.284   7.146
  161POPC   C2B 2243   6.138   3.382   6.694
  161POPC   C3B 2244   5.971   3.597   6.329
  161POPC   C4B 2245   5.844   4.012   6.115
  162POPC   NC3 2246   3.460   2.164   8.142
  162POPC   PO4 2247   2.926   1.961   8.121
  162POPC   GL1 2248   3.236   1.831   7.778
  162POPC   GL2 2249   3.585   1.996   7.681
  162POPC   C1A 2250   3.190   1.967   7.322
  162POPC   D2A 2251   3.205   2.043   6.856
  162POPC   C3A 2252   3.162   1.660   6.638
  162POPC   C4A 2253   3.031   1.615   6.214
  162POPC   C1B 2254   3.725   2.142   7.250
  162POPC   C2B 2255   3.714   2.050   6.790
  162POPC   C3B 2256   3.504   1.974   6.397
  162POPC   C4B 2257   3.711   2.245   6.104
  163POPC   NC3 2258   3.793   6.891   8.278
  163POPC   PO4 2259   3.582   7.549   8.150
  163POPC   GL1 2260   3.575   7.374   7.700
  163POPC   GL2 2261   3.504   7.019   7.659
  163POPC   C1A 2262   3.723   7.247   7.265
  163POPC   D2A 2263   3.593   7.042   6.902
  163POPC   C3A 2264   3.786   7.268   6.568
  163POPC   C4A 2265   3.752   7.252   6.159
  163POPC   C1B 2266   3.215   7.242   7.345
  163POPC   C2B 2267   3.059   7.226   6.921
  163POPC   C3B 2268   3.275   7.163   6.494
  163POPC   C4B 2269   3.323   7.013   6.056
  164POPC   NC3 2270   1.873   5.079   8.162
  164POPC   PO4 2271   1.386   4.643   7.996
  164POPC   GL1 2272   1.601   4.926   7.714
  164POPC   GL2 2273   1.988   4.935   7.696
  164POPC   C1A 2274   1.723   4.783   7.286
  164POPC   D2A 2275   1.985   4.750   6.901
  164POPC   C3A 2276   1.771   4.892   6.557
  164POPC   C4A 2277   1.645   4.744   6.168
  164POPC   C1B 2278   2.227   4.948   7.305
  164POPC   C2B 2279   2.371   5.117   6.896
  164POPC   C3B 2280   2.230   5.136   6.483
  164POPC   C4B 2281   2.155   4.762   6.248
  165POPC   NC3 2282   6.992   8.392   8.015
  165POPC   PO4 2283   7.476   8.870   8.144
  165POPC   GL1 2284   7.241   8.826   7.777
  165POPC   GL2 2285   7.420   8.562   7.661
  165POPC   C1A 2286   7.025   8.823   7.382
  165POPC   D2A 2287   6.978   8.573   7.014
  165POPC   C3A 2288   6.825   8.765   6.676
  165POPC   C4A 2289   6.981   8.946   6.304
  165POPC   C1B 2290   7.672   8.640   7.275
  165POPC   C2B 2291   7.619   8.517   6.847
  165POPC   C3B 2292   7.324   8.660   6.552
  165POPC   C4B 2293   7.245   8.535   6.113
  166POPC   NC3 2294   3.098   0.484   8.228
  166POPC   PO4 2295   3.643   0.833   8.395
  166POPC   GL1 2296   3.460   0.619   7.906
  166POPC   GL2 2297   3.381   0.267   7.842
  166POPC   C1A 2298   3.551   0.527   7.432
  166POPC   D2A 2299   3.362   0.694   7.027
  166POPC   C3A 2300   3.384   0.518   6.607
  166POPC   C4A 2301   3.226   0.636   6.219
  166POPC   C1B 2302   3.127   0.250   7.448
  166POPC   C2B 2303   3.160   0.205   6.975
  166POPC   C3B 2304   3.202   0.014   6.531
  166POPC   C4B 2305   3.413   0.122   6.124
  167POPC   NC3 2306   4.168   8.810   8.183
  167POPC   PO4 2307   4.550   9.179   7.815
  167POPC   GL1 2308   4.342   8.830   7.631
  167POPC   GL2 2309   4.355   8.470   7.625
  167POPC   C1A 2310   4.300   8.809   7.208
  167POPC   D2A 2311   4.106   8.921   6.828
  167POPC   C3A 2312   4.023   8.618   6.496
  167POPC   C4A 2313   4.012   8.855   6.109
  167POPC   C1B 2314   4.237   8.309   7.168
  167POPC   C2B 2315   4.146   8.177   6.757
  167POPC   C3B 2316   4.353   8.218   6.395
  167POPC   C4B 2317   4.381   8.488   6.103
  168POPC   NC3 2318   9.987   2.342   8.148
  168POPC   PO4 2319  10.392   1.786   8.116
  168POPC   GL1 2320   0.047   1.825   7.702
  168POPC   GL2 2321  10.258   2.045   7.643
  168POPC   C1A 2322  10.465   1.811   7.250
  168POPC   D2A 2323  10.284   2.036   6.938
  168POPC   C3A 2324  10.416   1.842   6.622
  168POPC   C4A 2325  10.331   1.716   6.253
  168POPC   C1B 2326   9.938   1.941   7.304
  168POPC   C2B 2327   9.783   2.157   6.892
  168POPC   C3B 2328   9.981   2.099   6.498
  168POPC   C4B 2329  10.216   2.298   6.169
  169POPC   NC3 2330   1.438   7.340   8.076
  169POPC   PO4 2331   0.855   7.716   8.111
  169POPC   GL1 2332   0.951   7.563   7.649
  169POPC   GL2 2333   1.298   7.499   7.615
  169POPC   C1A 2334   0.888   7.495   7.177
  169POPC   D2A 2335   0.873   7.387   6.728
  169POPC   C3A 2336   1.209   7.378   6.464
  169POPC   C4A 2337   1.144   7.415   6.042
  169POPC   C1B 2338   1.220   7.173   7.359
  169POPC   C2B 2339   1.218   7.056   6.928
  169POPC   C3B 2340   1.018   6.894   6.586
  169POPC   C4B 2341   1.183   6.944   6.191
  170POPC   NC3 2342  10.352   2.924   8.104
  170POPC   PO4 2343   9.779   2.679   7.905
  170POPC   GL1 2344  10.026   2.500   7.636
  170POPC   GL2 2345  10.358   2.557   7.694
  170POPC   C1A 2346  10.125   2.441   7.226
  170POPC   D2A 2347   9.868   2.649   6.946
  170POPC   C3A 2348  10.051   2.616   6.559
  170POPC   C4A 2349   9.864   2.694   6.169
  170POPC   C1B 2350   0.018   2.788   7.362
  170POPC   C2B 2351  10.350   2.857   6.955
  170POPC   C3B 2352   0.043   2.826   6.583
  170POPC   C4B 2353  10.348   2.853   6.188
  171POPC   NC3 2354  10.047   9.370   7.991
  171POPC   PO4 2355  10.419   8.865   8.045
  171POPC   GL1 2356  10.368   9.172   7.665
  171POPC   GL2 2357  10.427   9.588   7.735
  171POPC   C1A 2358  10.125   9.230   7.282
  171POPC   D2A 2359  10.330   9.220   6.885
  171POPC   C3A 2360  10.154   9.191   6.470
  171POPC   C4A 2361   0.027   9.037   6.234
  171POPC   C1B 2362  10.439   9.614   7.298
  171POPC   C2B 2363  10.167   9.697   6.970
  171POPC   C3B 2364  10.375   9.642   6.579
  171POPC   C4B 2365  10.349   9.514   6.142
  172POPC   NC3 2366  10.346   6.828   8.001
  172POPC   PO4 2367   9.880   7.240   8.130
  172POPC   GL1 2368  10.021   7.135   7.732
  172POPC   GL2 2369  10.289   7.348   7.675
  172POPC   C1A 2370  10.163   6.963   7.321
  172POPC   D2A 2371   9.997   7.057   6.907
  172POPC   C3A 2372  10.304   7.128   6.592
  172POPC   C4A 2373  10.328   6.979   6.203
  172POPC   C1B 2374  10.004   7.455   7.335
  172POPC   C2B 2375   9.855   7.562   6.931
  172POPC   C3B 2376   9.921   7.445   6.521
  172POPC   C4B 2377  10.075   7.413   6.126
  173POPC   NC3 2378   8.625   2.491   8.196
  173POPC   PO4 2379   8.202   3.037   8.135
  173POPC   GL1 2380   8.526   2.829   7.783
  173POPC   GL2 2381   8.474   2.504   7.577
  173POPC   C1A 2382   8.718   2.899   7.337
  173POPC   D2A 2383   8.515   2.722   6.928
  173POPC   C3A 2384   8.464   2.945   6.517
  173POPC   C4A 2385   8.789   2.921   6.184
  173POPC   C1B 2386   8.800   2.382   7.216
  173POPC   C2B 2387   8.889   2.279   6.778
  173POPC   C3B 2388   8.679   2.490   6.450
  173POPC   C4B 2389   8.345   2.474   6.154
  174POPC   NC3 2390   6.445   0.696   3.916
  174POPC   PO4 2391   6.873   0.177   3.998
  174POPC   GL1 2392   6.592   0.394   4.286
  174POPC   GL2 2393   6.256   0.257   4.168
  174POPC   C1A 2394   6.672   0.519   4.731
  174POPC   D2A 2395   6.753   0.234   5.096
  174POPC   C3A 2396   6.608   0.428   5.424
  174POPC   C4A 2397   6.609   0.209   5.786
  174POPC   C1B 2398   6.201   0.353   4.604
  174POPC   C2B 2399   6.244   0.267   5.032
  174POPC   C3B 2400   6.114   0.397   5.456
  174POPC   C4B 2401   6.322   0.641   5.844
  175POPC   NC3 2402   5.625   2.169   3.885
  175POPC   PO4 2403   5.992   1.576   3.875
  175POPC   GL1 2404   6.067   1.712   4.302
  175POPC   GL2 2405   5.728   1.857   4.305
  175POPC   C1A 2406   5.957   1.739   4.757
  175POPC   D2A 2407   5.643   1.815   5.087
  175POPC   C3A 2408   5.820   1.958   5.472
  175POPC   C4A 2409   5.869   1.682   5.811
  175POPC   C1B 2410   5.610   2.111   4.666
  175POPC   C2B 2411   5.291   2.185   4.991
  175POPC   C3B 2412   5.344   2.255   5.386
  175POPC   C4B 2413   5.297   2.336   5.792
  176POPC   NC3 2414   0.007   9.528   3.993
  176POPC   PO4 2415   0.572   9.857   3.737
  176POPC   GL1 2416   0.589   9.601   4.125
  176POPC   GL2 2417   0.421   9.267   4.131
  176POPC   C1A 2418   0.770   9.619   4.536
  176POPC   D2A 2419   0.901   9.623   4.967
  176POPC   C3A 2420   0.653   9.390   5.210
  176POPC   C4A 2421   0.641   9.376   5.628
  176POPC   C1B 2422   0.223   9.238   4.560
  176POPC   C2B 2423   0.154   9.371   4.984
  176POPC   C3B 2424   0.205   9.213   5.381
  176POPC   C4B 2425   0.143   9.343   5.786
  177POPC   NC3 2426   3.538   0.919   3.802
  177POPC   PO4 2427   3.224   0.297   3.890
  177POPC   GL1 2428   3.433   0.448   4.211
  177POPC   GL2 2429   3.612   0.155   4.272
  177POPC   C1A 2430   3.541   0.530   4.647
  177POPC   D2A 2431   3.667   0.507   5.068
  177POPC   C3A 2432   3.628   0.776   5.431
  177POPC   C4A 2433   3.556   0.551   5.840
  177POPC   C1B 2434   3.288   0.087   4.578
  177POPC   C2B 2435   3.224   0.248   4.985
  177POPC   C3B 2436   3.263   0.419   5.394
  177POPC   C4B 2437   3.092   0.363   5.794
  178POPC   NC3 2438   2.921   4.332   3.953
  178POPC   PO4 2439   2.343   4.129   4.064
  178POPC   GL1 2440   2.589   4.273   4.369
  178POPC   GL2 2441   2.921   4.143   4.411
  178POPC   C1A 2442   2.637   4.322   4.792
  178POPC   D2A 2443   2.491   4.141   5.119
  178POPC   C3A 2444   2.621   4.339   5.490
  178POPC   C4A 2445   2.986   4.471   5.725
  178POPC   C1B 2446   2.958   3.878   4.761
  178POPC   C2B 2447   2.993   3.997   5.165
  178POPC   C3B 2448   3.281   4.117   5.464
  178POPC   C4B 2449   3.288   4.043   5.884
  179POPC   NC3 2450   9.536   7.949   3.617
  179POPC   PO4 2451   8.933   8.079   3.889
  179POPC   GL1 2452   9.007   8.088   4.327
  179POPC   GL2 2453   9.350   7.903   4.358
  179POPC   C1A 2454   9.076   7.951   4.756
  179POPC   D2A 2455   9.439   7.981   5.028
  179POPC   C3A 2456   9.232   7.905   5.402
  179POPC   C4A 2457   9.482   7.952   5.720
  179POPC   C1B 2458   9.635   7.654   4.655
  179POPC   C2B 2459   9.918   7.599   4.999
  179POPC   C3B 2460   9.824   7.718   5.387
  179POPC   C4B 2461   9.795   7.520   5.722
  180POPC   NC3 2462   9.383   6.449   3.847
  180POPC   PO4 2463   9.864   6.862   3.939
  180POPC   GL1 2464   9.705   6.597   4.266
  180POPC   GL2 2465   9.347   6.549   4.344
  180POPC   C1A 2466   9.685   6.589   4.720
  180POPC   D2A 2467   9.674   6.349   5.134
  180POPC   C3A 2468   9.691   6.601   5.542
  180POPC   C4A 2469   9.495   6.636   5.977
  180POPC   C1B 2470   9.320   6.246   4.746
  180POPC   C2B 2471   9.175   6.222   5.151
  180POPC   C3B 2472   9.209   6.406   5.518
  180POPC   C4B 2473   9.207   6.218   5.898
  181POPC   NC3 2474   3.137   7.319   4.082
  181POPC   PO4 2475   3.774   7.521   3.945
  181POPC   GL1 2476   3.651   7.379   4.408
  181POPC   GL2 2477   3.284   7.409   4.548
  181POPC   C1A 2478   3.630   7.429   4.909
  181POPC   D2A 2479   3.377   7.279   5.279
  181POPC   C3A 2480   3.608   7.142   5.654
  181POPC   C4A 2481   3.770   6.795   5.936
  181POPC   C1B 2482   3.154   7.030   4.791
  181POPC   C2B 2483   3.117   6.830   5.204
  181POPC   C3B 2484   3.041   7.020   5.604
  181POPC   C4B 2485   3.047   7.454   5.682
  182POPC   NC3 2486   9.679   9.971   3.973
  182POPC   PO4 2487   9.083   9.805   4.122
  182POPC   GL1 2488   9.120  10.011   4.471
  182POPC   GL2 2489   9.258  10.289   4.291
  182POPC   C1A 2490   9.185   9.908   4.911
  182POPC   D2A 2491   9.494   9.960   5.227
  182POPC   C3A 2492   9.459   9.953   5.677
  182POPC   C4A 2493   9.309  10.150   6.080
  182POPC   C1B 2494   9.559  10.340   4.591
  182POPC   C2B 2495   9.549  10.425   5.011
  182POPC   C3B 2496   9.710  10.397   5.423
  182POPC   C4B 2497   9.540   0.010   5.819
  183POPC   NC3 2498   9.315   2.917   3.835
  183POPC   PO4 2499   9.669   2.552   4.124
  183POPC   GL1 2500   9.304   2.580   4.328
  183POPC   GL2 2501   9.036   2.805   4.242
  183POPC   C1A 2502   9.510   2.696   4.726
  183POPC   D2A 2503   9.585   2.480   5.055
  183POPC   C3A 2504   9.441   2.693   5.386
  183POPC   C4A 2505   9.608   2.556   5.750
  183POPC   C1B 2506   9.094   2.946   4.641
  183POPC   C2B 2507   9.248   3.028   5.024
  183POPC   C3B 2508   9.021   3.020   5.358
  183POPC   C4B 2509   9.126   2.848   5.752
  184POPC   NC3 2510   8.826   7.629   4.048
  184POPC   PO4 2511   8.408   8.122   4.113
  184POPC   GL1 2512   8.456   8.058   4.472
  184POPC   GL2 2513   8.629   7.765   4.482
  184POPC   C1A 2514   8.629   8.157   4.823
  184POPC   D2A 2515   8.608   7.960   5.212
  184POPC   C3A 2516   8.596   8.156   5.576
  184POPC   C4A 2517   8.963   8.161   5.787
  184POPC   C1B 2518   8.693   7.590   4.854
  184POPC   C2B 2519   8.463   7.479   5.203
  184POPC   C3B 2520   8.466   7.449   5.612
  184POPC   C4B 2521   8.795   7.694   5.745
  185POPC   NC3 2522   4.719   0.577   3.834
  185POPC   PO4 2523   5.322   0.173   3.944
  185POPC   GL1 2524   5.132   0.342   4.306
  185POPC   GL2 2525   4.817   0.338   4.254
  185POPC   C1A 2526   5.254   0.595   4.687
  185POPC   D2A 2527   5.059   0.747   5.054
  185POPC   C3A 2528   5.085   0.458   5.356
  185POPC   C4A 2529   4.983   0.519   5.752
  185POPC   C1B 2530   4.761   0.463   4.663
  185POPC   C2B 2531   4.621   0.404   5.082
  185POPC   C3B 2532   4.652   0.194   5.493
  185POPC   C4B 2533   4.622   0.178   5.958
  186POPC   NC3 2534   5.751  10.476   3.916
  186POPC   PO4 2535   5.384  10.088   3.579
  186POPC   GL1 2536   5.438  10.224   4.181
  186POPC   GL2 2537   5.758  10.165   4.331
  186POPC   C1A 2538   5.383  10.082   4.656
  186POPC   D2A 2539   5.494  10.118   5.102
  186POPC   C3A 2540   5.292  10.318   5.481
  186POPC   C4A 2541   5.413  10.266   5.928
  186POPC   C1B 2542   5.810  10.403   4.737
  186POPC   C2B 2543   5.869  10.472   5.187
  186POPC   C3B 2544   5.789  10.307   5.584
  186POPC   C4B 2545   5.889  10.143   6.011
  187POPC   NC3 2546  10.397   7.933   4.001
  187POPC   PO4 2547   9.902   8.231   3.694
  187POPC   GL1 2548   9.877   8.060   4.121
  187POPC   GL2 2549   9.999   7.712   4.248
  187POPC   C1A 2550   9.803   8.115   4.553
  187POPC   D2A 2551  10.020   8.096   4.935
  187POPC   C3A 2552   9.854   8.200   5.279
  187POPC   C4A 2553   9.892   8.226   5.705
  187POPC   C1B 2554  10.259   7.719   4.622
  187POPC   C2B 2555  10.459   7.825   5.020
  187POPC   C3B 2556  10.290   7.933   5.400
  187POPC   C4B 2557  10.218   7.800   5.806
  188POPC   NC3 2558   2.860   1.569   3.940
  188POPC   PO4 2559   2.637   0.968   3.837
  188POPC   GL1 2560   2.611   1.201   4.167
  188POPC   GL2 2561   2.969   1.120   4.243
  188POPC   C1A 2562   2.512   1.188   4.562
  188POPC   D2A 2563   2.716   0.972   4.874
  188POPC   C3A 2564   2.420   0.831   5.176
  188POPC   C4A 2565   2.382   0.981   5.597
  188POPC   C1B 2566   3.009   1.395   4.589
  188POPC   C2B 2567   2.960   1.429   5.031
  188POPC   C3B 2568   2.759   1.202   5.339
  188POPC   C4B 2569   2.788   1.256   5.782
  189POPC   NC3 2570   5.652   8.855   3.859
  189POPC   PO4 2571   6.172   8.323   3.862
  189POPC   GL1 2572   5.820   8.410   4.188
  189POPC   GL2 2573   5.722   8.738   4.336
  189POPC   C1A 2574   5.814   8.360   4.649
  189POPC   D2A 2575   6.000   8.443   5.041
  189POPC   C3A 2576   5.787   8.181   5.318
  189POPC   C4A 2577   5.594   8.288   5.667
  189POPC   C1B 2578   5.542   9.001   4.677
  189POPC   C2B 2579   5.708   9.037   5.078
  189POPC   C3B 2580   5.603   8.839   5.452
  189POPC   C4B 2581   5.624   8.995   5.867
  190POPC   NC3 2582   7.236   1.312   3.895
  190POPC   PO4 2583   6.877   0.793   3.843
  190POPC   GL1 2584   7.042   0.960   4.243
  190POPC   GL2 2585   7.012   1.284   4.340
  190POPC   C1A 2586   7.002   0.926   4.717
  190POPC   D2A 2587   7.077   1.113   5.149
  190POPC   C3A 2588   6.901   0.849   5.492
  190POPC   C4A 2589   7.123   0.827   5.926
  190POPC   C1B 2590   7.150   1.414   4.726
  190POPC   C2B 2591   7.093   1.674   5.011
  190POPC   C3B 2592   7.022   1.625   5.399
  190POPC   C4B 2593   7.089   1.276   5.659
  191POPC   NC3 2594   5.861   7.963   3.929
  191POPC   PO4 2595   5.219   8.086   3.920
  191POPC   GL1 2596   5.451   8.079   4.313
  191POPC   GL2 2597   5.783   7.900   4.421
  191POPC   C1A 2598   5.389   8.038   4.740
  191POPC   D2A 2599   5.123   8.202   5.022
  191POPC   C3A 2600   5.146   7.975   5.386
  191POPC   C4A 2601   5.431   7.756   5.659
  191POPC   C1B 2602   5.855   7.888   4.885
  191POPC   C2B 2603   5.755   7.647   5.266
  191POPC   C3B 2604   5.938   7.709   5.666
  191POPC   C4B 2605   6.130   8.120   5.717
  192POPC   NC3 2606   8.071   4.195   3.596
  192POPC   PO4 2607   7.893   4.784   4.024
  192POPC   GL1 2608   7.919   4.485   4.463
  192POPC   GL2 2609   8.092   4.077   4.496
  192POPC   C1A 2610   7.946   4.359   4.887
  192POPC   D2A 2611   8.168   4.042   5.052
  192POPC   C3A 2612   8.074   4.122   5.445
  192POPC   C4A 2613   7.901   4.302   5.823
  192POPC   C1B 2614   7.759   3.891   4.787
  192POPC   C2B 2615   7.701   3.866   5.218
  192POPC   C3B 2616   7.622   3.886   5.672
  192POPC   C4B 2617   7.688   3.876   6.127
  193POPC   NC3 2618   0.325   0.504   3.654
  193POPC   PO4 2619  10.114   0.417   3.802
  193POPC   GL1 2620  10.026   0.260   4.240
  193POPC   GL2 2621  10.196   0.578   4.301
  193POPC   C1A 2622  10.144   0.006   4.656
  193POPC   D2A 2623  10.329   0.060   5.046
  193POPC   C3A 2624  10.222   0.276   5.417
  193POPC   C4A 2625  10.042   0.119   5.795
  193POPC   C1B 2626   9.967   0.461   4.691
  193POPC   C2B 2627   9.805   0.348   5.089
  193POPC   C3B 2628   9.726   0.394   5.519
  193POPC   C4B 2629   9.796   0.541   5.935
  194POPC   NC3 2630   7.283   8.600   4.061
  194POPC   PO4 2631   6.845   8.973   3.673
  194POPC   GL1 2632   6.918   8.896   4.236
  194POPC   GL2 2633   7.259   8.806   4.507
  194POPC   C1A 2634   6.835   8.818   4.721
  194POPC   D2A 2635   7.175   8.768   5.048
  194POPC   C3A 2636   7.088   8.567   5.475
  194POPC   C4A 2637   6.846   8.677   5.845
  194POPC   C1B 2638   7.481   8.459   4.694
  194POPC   C2B 2639   7.740   8.461   5.043
  194POPC   C3B 2640   7.614   8.462   5.453
  194POPC   C4B 2641   7.500   8.775   5.748
  195POPC   NC3 2642   3.833   9.580   3.886
  195POPC   PO4 2643   4.493   9.738   3.867
  195POPC   GL1 2644   4.412   9.392   4.232
  195POPC   GL2 2645   4.177   9.133   4.222
  195POPC   C1A 2646   4.461   9.105   4.649
  195POPC   D2A 2647   4.241   9.186   5.073
  195POPC   C3A 2648   4.483   9.196   5.472
  195POPC   C4A 2649   4.393   9.272   5.913
  195POPC   C1B 2650   4.055   9.415   4.622
  195POPC   C2B 2651   4.063   9.667   5.058
  195POPC   C3B 2652   4.121   9.565   5.503
  195POPC   C4B 2653   3.971   9.153   5.650
  196POPC   NC3 2654   8.796   0.417   3.887
  196POPC   PO4 2655   9.159   0.999   3.966
  196POPC   GL1 2656   9.153   0.648   4.237
  196POPC   GL2 2657   9.017   0.316   4.323
  196POPC   C1A 2658   9.150   0.773   4.645
  196POPC   D2A 2659   8.919   0.842   4.981
  196POPC   C3A 2660   8.984   0.700   5.363
  196POPC   C4A 2661   8.667   0.595   5.596
  196POPC   C1B 2662   8.744   0.460   4.648
  196POPC   C2B 2663   8.692   0.368   5.083
  196POPC   C3B 2664   8.790   0.129   5.431
  196POPC   C4B 2665   8.619   0.152   5.842
  197POPC   NC3 2666  10.061   2.743   3.971
  197POPC   PO4 2667   9.847   2.162   3.736
  197POPC   GL1 2668  10.056   2.261   4.175
  197POPC   GL2 2669  10.270   2.501   4.384
  197POPC   C1A 2670   9.907   2.294   4.657
  197POPC   D2A 2671  10.034   2.674   4.910
  197POPC   C3A 2672   9.963   2.659   5.365
  197POPC   C4A 2673  10.074   2.868   5.744
  197POPC   C1B 2674  10.367   2.926   4.547
  197POPC   C2B 2675  10.401   3.062   4.972
  197POPC   C3B 2676  10.477   2.822   5.342
  197POPC   C4B 2677   0.086   2.910   5.744
  198POPC   NC3 2678   8.354   3.526   3.778
  198POPC   PO4 2679   8.969   3.247   3.877
  198POPC   GL1 2680   8.709   3.393   4.203
  198POPC   GL2 2681   8.817   3.722   4.189
  198POPC   C1A 2682   8.717   3.279   4.646
  198POPC   D2A 2683   8.474   3.166   5.023
  198POPC   C3A 2684   8.575   3.340   5.406
  198POPC   C4A 2685   8.835   3.258   5.772
  198POPC   C1B 2686   8.541   3.757   4.564
  198POPC   C2B 2687   8.541   3.698   4.991
  198POPC   C3B 2688   8.533   3.878   5.382
  198POPC   C4B 2689   8.591   3.695   5.778
  199POPC   NC3 2690   7.924   7.146   4.035
  199POPC   PO4 2691   8.588   7.198   3.946
  199POPC   GL1 2692   8.293   7.295   4.356
  199POPC   GL2 2693   7.907   7.314   4.494
  199POPC   C1A 2694   8.297   7.231   4.806
  199POPC   D2A 2695   7.991   7.081   5.142
  199POPC   C3A 2696   7.978   7.300   5.553
  199POPC   C4A 2697   8.089   7.206   6.024
  199POPC   C1B 2698   7.633   7.267   4.816
  199POPC   C2B 2699   7.541   7.442   5.216
  199POPC   C3B 2700   7.327   7.424   5.583
  199POPC   C4B 2701   7.600   7.252   5.902
  200POPC   NC3 2702   0.422   7.803   3.809
  200POPC   PO4 2703   0.050   8.371   3.954
  200POPC   GL1 2704   0.325   8.074   4.236
  200POPC   GL2 2705   0.263   7.712   4.280
  200POPC   C1A 2706   0.368   8.115   4.689
  200POPC   D2A 2707   0.491   8.000   5.122
  200POPC   C3A 2708   0.236   8.190   5.390
  200POPC   C4A 2709   0.051   8.184   5.782
  200POPC   C1B 2710   0.281   7.609   4.667
  200POPC   C2B 2711   0.350   7.497   5.078
  200POPC   C3B 2712   0.259   7.679   5.487
  200POPC   C4B 2713   0.560   7.975   5.709
  201POPC   NC3 2714   7.547   7.163   3.643
  201POPC   PO4 2715   7.725   6.708   4.094
  201POPC   GL1 2716   7.485   7.034   4.293
  201POPC   GL2 2717   7.228   7.260   4.120
  201POPC   C1A 2718   7.304   6.876   4.673
  201POPC   D2A 2719   7.511   6.813   5.067
  201POPC   C3A 2720   7.538   6.970   5.476
  201POPC   C4A 2721   7.284   6.852   5.861
  201POPC   C1B 2722   7.178   7.347   4.572
  201POPC   C2B 2723   7.142   7.212   5.019
  201POPC   C3B 2724   7.014   7.051   5.435
  201POPC   C4B 2725   6.930   7.220   5.844
  202POPC   NC3 2726   8.876  10.202   3.948
  202POPC   PO4 2727   8.381   9.709   3.938
  202POPC   GL1 2728   8.611   9.951   4.315
  202POPC   GL2 2729   8.642  10.350   4.374
  202POPC   C1A 2730   8.691  10.036   4.772
  202POPC   D2A 2731   8.528  10.380   5.042
  202POPC   C3A 2732   8.461  10.234   5.481
  202POPC   C4A 2733   8.514   9.849   5.742
  202POPC   C1B 2734   8.952  10.466   4.674
  202POPC   C2B 2735   9.050  10.367   5.078
  202POPC   C3B 2736   9.187  10.322   5.487
  202POPC   C4B 2737   8.892  10.233   5.794
  203POPC   NC3 2738   9.515   5.711   3.623
  203POPC   PO4 2739   9.537   6.120   4.139
  203POPC   GL1 2740   9.650   5.876   4.423
  203POPC   GL2 2741   9.529   5.589   4.281
  203POPC   C1A 2742   9.717   5.914   4.820
  203POPC   D2A 2743   9.526   5.836   5.166
  203POPC   C3A 2744   9.562   6.040   5.517
  203POPC   C4A 2745   9.722   6.194   5.866
  203POPC   C1B 2746   9.282   5.571   4.676
  203POPC   C2B 2747   9.422   5.359   5.056
  203POPC   C3B 2748   9.323   5.455   5.469
  203POPC   C4B 2749   9.389   5.677   5.819
  204POPC   NC3 2750   6.416   1.882   3.938
  204POPC   PO4 2751   6.091   2.415   3.828
  204POPC   GL1 2752   6.117   2.214   4.248
  204POPC   GL2 2753   6.461   2.099   4.374
  204POPC   C1A 2754   6.138   2.238   4.722
  204POPC   D2A 2755   6.173   2.035   5.107
  204POPC   C3A 2756   6.229   2.259   5.475
  204POPC   C4A 2757   6.165   2.092   5.876
  204POPC   C1B 2758   6.450   1.798   4.687
  204POPC   C2B 2759   6.599   1.766   5.122
  204POPC   C3B 2760   6.466   1.780   5.559
  204POPC   C4B 2761   6.747   1.589   5.852
  205POPC   NC3 2762   1.857   3.351   3.769
  205POPC   PO4 2763   1.564   2.813   3.752
  205POPC   GL1 2764   1.687   3.078   4.175
  205POPC   GL2 2765   1.616   3.457   4.243
  205POPC   C1A 2766   1.597   3.181   4.651
  205POPC   D2A 2767   1.863   3.105   5.009
  205POPC   C3A 2768   1.804   3.264   5.411
  205POPC   C4A 2769   2.159   3.122   5.629
  205POPC   C1B 2770   1.939   3.547   4.637
  205POPC   C2B 2771   1.933   3.685   5.099
  205POPC   C3B 2772   2.133   3.642   5.525
  205POPC   C4B 2773   1.947   3.496   5.915
  206POPC   NC3 2774   6.292   3.531   3.922
  206POPC   PO4 2775   6.755   3.843   3.915
  206POPC   GL1 2776   6.655   3.667   4.329
  206POPC   GL2 2777   6.378   3.463   4.407
  206POPC   C1A 2778   6.587   3.696   4.806
  206POPC   D2A 2779   6.542   3.439   5.186
  206POPC   C3A 2780   6.471   3.700   5.594
  206POPC   C4A 2781   6.348   3.918   6.007
  206POPC   C1B 2782   6.185   3.352   4.787
  206POPC   C2B 2783   6.110   3.164   5.195
  206POPC   C3B 2784   6.200   3.281   5.605
  206POPC   C4B 2785   5.965   3.588   5.819
  207POPC   NC3 2786   9.865   7.324   3.901
  207POPC   PO4 2787   0.056   7.512   3.862
  207POPC   GL1 2788  10.392   7.360   4.236
  207POPC   GL2 2789  10.184   7.099   4.254
  207POPC   C1A 2790  10.458   7.228   4.674
  207POPC   D2A 2791  10.245   7.163   5.051
  207POPC   C3A 2792  10.258   7.423   5.412
  207POPC   C4A 2793  10.461   7.345   5.805
  207POPC   C1B 2794   9.938   7.250   4.586
  207POPC   C2B 2795   9.697   7.137   4.953
  207POPC   C3B 2796   9.830   7.106   5.374
  207POPC   C4B 2797  10.045   7.061   5.760
  208POPC   NC3 2798   0.128  10.000   3.674
  208POPC   PO4 2799   0.417   0.102   3.888
  208POPC   GL1 2800   0.305  10.378   4.243
  208POPC   GL2 2801   0.298  10.028   4.163
  208POPC   C1A 2802   0.196  10.492   4.670
  208POPC   D2A 2803   0.443  10.475   5.045
  208POPC   C3A 2804   0.447  10.230   5.448
  208POPC   C4A 2805   0.242  10.241   5.831
  208POPC   C1B 2806   0.447  10.035   4.608
  208POPC   C2B 2807   0.428   9.826   5.009
  208POPC   C3B 2808   0.250   9.726   5.423
  208POPC   C4B 2809   0.400   9.765   5.848
  209POPC   NC3 2810   4.053   0.396   3.934
  209POPC   PO4 2811   4.379   0.845   3.693
  209POPC   GL1 2812   4.363   0.652   4.213
  209POPC   GL2 2813   4.321   0.319   4.372
  209POPC   C1A 2814   4.316   0.727   4.677
  209POPC   D2A 2815   4.125   0.694   5.097
  209POPC   C3A 2816   4.337   0.620   5.447
  209POPC   C4A 2817   4.299   0.528   5.833
  209POPC   C1B 2818   4.033   0.289   4.723
  209POPC   C2B 2819   4.118   0.186   5.162
  209POPC   C3B 2820   3.906   0.340   5.532
  209POPC   C4B 2821   3.920   0.235   5.992
  210POPC   NC3 2822   1.917   8.214   3.787
  210POPC   PO4 2823   2.021   7.524   3.667
  210POPC   GL1 2824   2.108   7.691   4.124
  210POPC   GL2 2825   2.022   8.035   4.266
  210POPC   C1A 2826   2.285   7.598   4.566
  210POPC   D2A 2827   2.431   7.741   4.997
  210POPC   C3A 2828   2.260   7.606   5.396
  210POPC   C4A 2829   2.100   7.528   5.807
  210POPC   C1B 2830   1.988   7.985   4.729
  210POPC   C2B 2831   2.030   8.007   5.168
  210POPC   C3B 2832   1.815   7.855   5.501
  210POPC   C4B 2833   1.659   7.823   5.917
  211POPC   NC3 2834   1.746   9.726   3.988
  211POPC   PO4 2835   2.005  10.368   3.770
  211POPC   GL1 2836   1.885  10.227   4.167
  211POPC   GL2 2837   1.521  10.308   4.205
  211POPC   C1A 2838   2.051  10.222   4.604
  211POPC   D2A 2839   2.190  10.393   5.027
  211POPC   C3A 2840   2.104  10.141   5.412
  211POPC   C4A 2841   1.956  10.277   5.779
  211POPC   C1B 2842   1.508  10.196   4.643
  211POPC   C2B 2843   1.758  10.097   5.014
  211POPC   C3B 2844   1.597  10.169   5.420
  211POPC   C4B 2845   1.712   9.841   5.709
  212POPC   NC3 2846   2.334   5.679   3.759
  212POPC   PO4 2847   1.710   5.366   3.701
  212POPC   GL1 2848   1.835   5.431   4.169
  212POPC   GL2 2849   1.510   5.463   4.317
  212POPC   C1A 2850   1.976   5.564   4.647
  212POPC   D2A 2851   2.171   5.853   5.006
  212POPC   C3A 2852   2.326   5.773   5.440
  212POPC   C4A 2853   2.216   5.596   5.849
  212POPC   C1B 2854   1.502   5.766   4.664
  212POPC   C2B 2855   1.695   5.760   5.077
  212POPC   C3B 2856   1.836   5.601   5.510
  212POPC   C4B 2857   1.769   5.809   5.899
  213POPC   NC3 2858   3.094   9.503   3.926
  213POPC   PO4 2859   3.746   9.134   3.784
  213POPC   GL1 2860   3.696   9.261   4.262
  213POPC   GL2 2861   3.572   9.615   4.326
  213POPC   C1A 2862   3.599   9.197   4.703
  213POPC   D2A 2863   3.730   9.091   5.105
  213POPC   C3A 2864   3.654   9.427   5.357
  213POPC   C4A 2865   3.490   9.369   5.783
  213POPC   C1B 2866   3.259   9.577   4.651
  213POPC   C2B 2867   3.215   9.351   5.046
  213POPC   C3B 2868   3.173   9.528   5.442
  213POPC   C4B 2869   3.012   9.757   5.790
  214POPC   NC3 2870   1.700   7.206   3.679
  214POPC   PO4 2871   2.191   6.802   3.903
  214POPC   GL1 2872   1.957   6.946   4.230
  214POPC   GL2 2873   1.825   7.268   4.176
  214POPC   C1A 2874   2.070   7.125   4.635
  214POPC   D2A 2875   2.312   7.243   4.997
  214POPC   C3A 2876   2.197   7.093   5.408
  214POPC   C4A 2877   2.053   7.011   5.826
  214POPC   C1B 2878   1.757   7.535   4.565
  214POPC   C2B 2879   1.861   7.538   5.036
  214POPC   C3B 2880   1.746   7.345   5.470
  214POPC   C4B 2881   1.624   7.309   5.925
  215POPC   NC3 2882   1.772   6.473   3.990
  215POPC   PO4 2883   2.350   6.112   3.906
  215POPC   GL1 2884   2.113   6.172   4.248
  215POPC   GL2 2885   2.212   6.498   4.313
  215POPC   C1A 2886   1.912   6.091   4.640
  215POPC   D2A 2887   1.829   6.281   5.050
  215POPC   C3A 2888   1.896   6.092   5.435
  215POPC   C4A 2889   2.130   6.131   5.796
  215POPC   C1B 2890   1.982   6.608   4.662
  215POPC   C2B 2891   2.117   6.715   5.076
  215POPC   C3B 2892   2.089   6.590   5.528
  215POPC   C4B 2893   1.726   6.476   5.748
  216POPC   NC3 2894   4.643   2.112   4.066
  216POPC   PO4 2895   5.275   1.863   4.001
  216POPC   GL1 2896   5.210   2.017   4.378
  216POPC   GL2 2897   4.895   2.128   4.505
  216POPC   C1A 2898   5.205   1.761   4.746
  216POPC   D2A 2899   4.978   1.778   5.120
  216POPC   C3A 2900   5.257   1.634   5.397
  216POPC   C4A 2901   5.398   1.852   5.696
  216POPC   C1B 2902   4.818   2.408   4.845
  216POPC   C2B 2903   4.844   2.402   5.304
  216POPC   C3B 2904   4.919   2.045   5.580
  216POPC   C4B 2905   4.646   1.795   5.817
  217POPC   NC3 2906   7.915   9.958   3.814
  217POPC   PO4 2907   7.638   0.178   3.834
  217POPC   GL1 2908   7.813   0.208   4.255
  217POPC   GL2 2909   8.097  10.473   4.234
  217POPC   C1A 2910   7.775   0.028   4.680
  217POPC   D2A 2911   8.013  10.440   5.062
  217POPC   C3A 2912   7.746  10.371   5.403
  217POPC   C4A 2913   7.592  10.440   5.809
  217POPC   C1B 2914   8.210  10.218   4.613
  217POPC   C2B 2915   8.229   9.951   4.977
  217POPC   C3B 2916   8.118   9.843   5.371
  217POPC   C4B 2917   8.033  10.064   5.718
  218POPC   NC3 2918   4.991   7.679   3.949
  218POPC   PO4 2919   4.614   7.980   4.229
  218POPC   GL1 2920   4.960   7.885   4.454
  218POPC   GL2 2921   4.963   8.233   4.511
  218POPC   C1A 2922   4.971   7.731   4.908
  218POPC   D2A 2923   4.751   7.556   5.290
  218POPC   C3A 2924   4.878   7.660   5.724
  218POPC   C4A 2925   4.810   7.432   6.176
  218POPC   C1B 2926   4.651   8.132   4.849
  218POPC   C2B 2927   4.632   8.081   5.292
  218POPC   C3B 2928   4.809   8.295   5.630
  218POPC   C4B 2929   5.151   8.140   5.870
  219POPC   NC3 2930   2.753   8.594   3.966
  219POPC   PO4 2931   3.236   9.128   4.148
  219POPC   GL1 2932   3.066   8.734   4.333
  219POPC   GL2 2933   2.708   8.757   4.430
  219POPC   C1A 2934   2.986   8.410   4.672
  219POPC   D2A 2935   2.891   8.505   5.059
  219POPC   C3A 2936   2.975   8.368   5.408
  219POPC   C4A 2937   2.969   8.705   5.688
  219POPC   C1B 2938   2.507   8.716   4.838
  219POPC   C2B 2939   2.301   8.824   5.179
  219POPC   C3B 2940   2.478   8.626   5.511
  219POPC   C4B 2941   2.566   8.398   5.855
  220POPC   NC3 2942   6.364   7.200   4.006
  220POPC   PO4 2943   6.831   7.572   3.805
  220POPC   GL1 2944   6.778   7.481   4.275
  220POPC   GL2 2945   6.727   7.141   4.404
  220POPC   C1A 2946   6.744   7.508   4.774
  220POPC   D2A 2947   6.642   7.203   5.111
  220POPC   C3A 2948   6.526   7.271   5.528
  220POPC   C4A 2949   6.420   7.126   5.948
  220POPC   C1B 2950   6.352   7.098   4.713
  220POPC   C2B 2951   6.137   7.020   5.146
  220POPC   C3B 2952   6.168   6.852   5.581
  220POPC   C4B 2953   5.916   6.920   5.976
  221POPC   NC3 2954   0.948   4.553   3.883
  221POPC   PO4 2955   1.146   5.256   3.979
  221POPC   GL1 2956   1.193   5.059   4.321
  221POPC   GL2 2957   1.234   4.734   4.265
  221POPC   C1A 2958   1.374   5.005   4.693
  221POPC   D2A 2959   1.517   5.307   4.928
  221POPC   C3A 2960   1.507   5.217   5.354
  221POPC   C4A 2961   1.520   4.957   5.736
  221POPC   C1B 2962   0.936   4.723   4.610
  221POPC   C2B 2963   0.970   4.961   5.003
  221POPC   C3B 2964   1.135   4.841   5.409
  221POPC   C4B 2965   1.034   5.126   5.752
  222POPC   NC3 2966   2.842   0.570   3.909
  222POPC   PO4 2967   2.264   0.212   4.121
  222POPC   GL1 2968   2.553   0.358   4.402
  222POPC   GL2 2969   2.919   0.301   4.314
  222POPC   C1A 2970   2.436   0.330   4.834
  222POPC   D2A 2971   2.372   0.324   5.256
  222POPC   C3A 2972   2.385   0.045   5.549
  222POPC   C4A 2973   2.512   0.210   5.915
  222POPC   C1B 2974   2.950   0.547   4.684
  222POPC   C2B 2975   2.825   0.517   5.121
  222POPC   C3B 2976   2.838   0.725   5.508
  222POPC   C4B 2977   2.759   0.704   5.950
  223POPC   NC3 2978   8.435   5.750   3.932
  223POPC   PO4 2979   9.173   5.668   3.945
  223POPC   GL1 2980   8.830   5.612   4.255
  223POPC   GL2 2981   8.664   5.924   4.378
  223POPC   C1A 2982   8.708   5.489   4.668
  223POPC   D2A 2983   8.913   5.275   4.995
  223POPC   C3A 2984   8.834   5.302   5.417
  223POPC   C4A 2985   8.847   5.413   5.801
  223POPC   C1B 2986   8.859   5.975   4.794
  223POPC   C2B 2987   9.035   5.740   5.131
  223POPC   C3B 2988   8.983   5.865   5.551
  223POPC   C4B 2989   8.596   5.963   5.779
  224POPC   NC3 2990   3.338  10.347   3.925
  224POPC   PO4 2991   2.784   9.901   3.854
  224POPC   GL1 2992   3.135   9.911   4.239
  224POPC   GL2 2993   3.453  10.133   4.384
  224POPC   C1A 2994   3.064  10.053   4.682
  224POPC   D2A 2995   3.192  10.254   5.058
  224POPC   C3A 2996   3.262  10.057   5.466
  224POPC   C4A 2997   3.339  10.114   5.940
  224POPC   C1B 2998   3.701  10.363   4.737
  224POPC   C2B 2999   3.630   0.007   5.173
  224POPC   C3B 3000   3.510   0.003   5.607
  224POPC   C4B 3001   3.801  10.280   5.861
  225POPC   NC3 3002   6.721  10.236   3.957
  225POPC   PO4 3003   6.066  10.056   3.931
  225POPC   GL1 3004   6.270  10.248   4.302
  225POPC   GL2 3005   6.598  10.402   4.411
  225POPC   C1A 3006   6.272  10.195   4.748
  225POPC   D2A 3007   6.173  10.066   5.159
  225POPC   C3A 3008   6.349  10.419   5.420
  225POPC   C4A 3009   6.153   0.036   5.819
  225POPC   C1B 3010   6.784  10.171   4.747
  225POPC   C2B 3011   6.687  10.103   5.147
  225POPC   C3B 3012   6.701   9.896   5.528
  225POPC   C4B 3013   6.643  10.208   5.821
  226POPC   NC3 3014   6.550   8.687   3.914
  226POPC   PO4 3015   6.909   8.183   4.050
  226POPC   GL1 3016   6.660   8.437   4.382
  226POPC   GL2 3017   6.297   8.529   4.337
  226POPC   C1A 3018   6.493   8.480   4.828
  226POPC   D2A 3019   6.655   8.665   5.205
  226POPC   C3A 3020   6.429   8.503   5.542
  226POPC   C4A 3021   6.347   8.470   6.018
  226POPC   C1B 3022   6.111   8.796   4.664
  226POPC   C2B 3023   6.235   8.944   5.068
  226POPC   C3B 3024   6.073   9.041   5.478
  226POPC   C4B 3025   5.977   8.648   5.722
  227POPC   NC3 3026   7.142   1.850   3.868
  227POPC   PO4 3027   6.726   2.358   3.953
  227POPC   GL1 3028   6.961   2.153   4.305
  227POPC   GL2 3029   6.941   1.800   4.370
  227POPC   C1A 3030   6.861   2.066   4.766
  227POPC   D2A 3031   7.066   2.164   5.114
  227POPC   C3A 3032   6.856   2.105   5.522
  227POPC   C4A 3033   7.049   2.213   5.911
  227POPC   C1B 3034   7.345   2.007   4.677
  227POPC   C2B 3035   7.554   1.922   5.075
  227POPC   C3B 3036   7.382   2.026   5.472
  227POPC   C4B 3037   7.257   1.765   5.817
  228POPC   NC3 3038   9.422   1.372   3.956
  228POPC   PO4 3039  10.053   1.443   3.902
  228POPC   GL1 3040   9.824   1.482   4.284
  228POPC   GL2 3041   9.725   1.132   4.290
  228POPC   C1A 3042   9.881   1.336   4.734
  228POPC   D2A 3043   9.844   1.058   5.087
  228POPC   C3A 3044   9.722   1.170   5.466
  228POPC   C4A 3045   9.756   1.502   5.733
  228POPC   C1B 3046   9.392   1.246   4.570
  228POPC   C2B 3047   9.315   1.189   4.966
  228POPC   C3B 3048   9.238   1.170   5.372
  228POPC   C4B 3049   9.289   1.312   5.831
  229POPC   NC3 3050   9.291   5.204   4.030
  229POPC   PO4 3051   9.882   5.212   3.901
  229POPC   GL1 3052   9.727   5.081   4.320
  229POPC   GL2 3053   9.497   4.809   4.303
  229POPC   C1A 3054   9.711   4.904   4.757
  229POPC   D2A 3055   9.676   4.748   5.192
  229POPC   C3A 3056   9.700   5.097   5.469
  229POPC   C4A 3057   9.629   5.215   5.918
  229POPC   C1B 3058   9.215   5.019   4.623
  229POPC   C2B 3059   9.238   4.907   4.986
  229POPC   C3B 3060   9.214   4.950   5.364
  229POPC   C4B 3061   9.193   5.047   5.748
  230POPC   NC3 3062   7.210   0.459   3.800
  230POPC   PO4 3063   7.759   0.723   4.040
  230POPC   GL1 3064   7.434   0.577   4.316
  230POPC   GL2 3065   7.081   0.476   4.343
  230POPC   C1A 3066   7.341   0.538   4.757
  230POPC   D2A 3067   7.132   0.589   5.129
  230POPC   C3A 3068   7.406   0.738   5.471
  230POPC   C4A 3069   7.503   0.487   5.842
  230POPC   C1B 3070   7.014   0.142   4.679
  230POPC   C2B 3071   7.265   0.089   5.052
  230POPC   C3B 3072   7.352   0.214   5.437
  230POPC   C4B 3073   7.048   0.404   5.668
  231POPC   NC3 3074   1.922   4.336   4.004
  231POPC   PO4 3075   1.934   3.738   3.968
  231POPC   GL1 3076   1.953   3.951   4.341
  231POPC   GL2 3077   1.595   3.985   4.300
  231POPC   C1A 3078   2.114   4.243   4.693
  231POPC   D2A 3079   2.102   4.470   5.103
  231POPC   C3A 3080   2.123   4.163   5.458
  231POPC   C4A 3081   2.346   4.011   5.831
  231POPC   C1B 3082   1.665   3.976   4.757
  231POPC   C2B 3083   1.646   4.286   5.076
  231POPC   C3B 3084   1.662   4.357   5.540
  231POPC   C4B 3085   1.771   3.953   5.760
  232POPC   NC3 3086   2.294   7.249   3.901
  232POPC   PO4 3087   2.837   7.578   3.848
  232POPC   GL1 3088   2.653   7.352   4.239
  232POPC   GL2 3089   2.512   6.976   4.269
  232POPC   C1A 3090   2.707   7.271   4.663
  232POPC   D2A 3091   2.902   7.437   5.015
  232POPC   C3A 3092   2.678   7.303   5.363
  232POPC   C4A 3093   2.528   7.241   5.762
  232POPC   C1B 3094   2.471   6.807   4.696
  232POPC   C2B 3095   2.607   6.837   5.151
  232POPC   C3B 3096   2.573   6.757   5.619
  232POPC   C4B 3097   2.469   6.872   6.096
  233POPC   NC3 3098   4.013   1.329   3.920
  233POPC   PO4 3099   3.283   1.295   3.873
  233POPC   GL1 3100   3.588   1.239   4.190
  233POPC   GL2 3101   3.544   0.937   4.319
  233POPC   C1A 3102   3.662   1.370   4.593
  233POPC   D2A 3103   3.469   1.333   4.987
  233POPC   C3A 3104   3.663   1.451   5.378
  233POPC   C4A 3105   3.675   1.299   5.781
  233POPC   C1B 3106   3.271   0.966   4.659
  233POPC   C2B 3107   3.194   0.885   5.081
  233POPC   C3B 3108   3.250   1.131   5.430
  233POPC   C4B 3109   3.228   0.931   5.785
  234POPC   NC3 3110   2.057   8.799   3.690
  234POPC   PO4 3111   2.213   8.794   4.322
  234POPC   GL1 3112   1.881   8.786   4.571
  234POPC   GL2 3113   1.738   8.438   4.562
  234POPC   C1A 3114   1.829   8.979   4.950
  234POPC   D2A 3115   1.747   8.940   5.350
  234POPC   C3A 3116   2.094   9.046   5.601
  234POPC   C4A 3117   2.202   8.774   5.916
  234POPC   C1B 3118   1.997   8.467   4.940
  234POPC   C2B 3119   1.979   8.471   5.395
  234POPC   C3B 3120   1.857   8.387   5.820
  234POPC   C4B 3121   2.162   8.349   6.201
  235POPC   NC3 3122   6.842   2.765   4.138
  235POPC   PO4 3123   7.411   3.089   3.884
  235POPC   GL1 3124   7.353   2.892   4.267
  235POPC   GL2 3125   7.326   2.525   4.222
  235POPC   C1A 3126   7.261   2.987   4.693
  235POPC   D2A 3127   7.441   2.934   5.088
  235POPC   C3A 3128   7.269   3.015   5.505
  235POPC   C4A 3129   7.361   2.972   5.948
  235POPC   C1B 3130   7.142   2.488   4.659
  235POPC   C2B 3131   7.002   2.666   5.043
  235POPC   C3B 3132   7.122   2.534   5.459
  235POPC   C4B 3133   6.960   2.702   5.832
  236POPC   NC3 3134   7.135   3.608   3.817
  236POPC   PO4 3135   7.754   3.799   3.924
  236POPC   GL1 3136   7.400   3.525   4.222
  236POPC   GL2 3137   7.048   3.308   4.217
  236POPC   C1A 3138   7.330   3.494   4.645
  236POPC   D2A 3139   7.570   3.411   4.995
  236POPC   C3A 3140   7.434   3.479   5.399
  236POPC   C4A 3141   7.329   3.485   5.826
  236POPC   C1B 3142   6.839   3.270   4.634
  236POPC   C2B 3143   7.032   3.280   5.067
  236POPC   C3B 3144   6.934   3.426   5.502
  236POPC   C4B 3145   6.873   3.224   5.884
  237POPC   NC3 3146   2.383   3.653   4.005
  237POPC   PO4 3147   3.012   3.868   3.932
  237POPC   GL1 3148   2.779   3.673   4.320
  237POPC   GL2 3149   2.659   3.325   4.302
  237POPC   C1A 3150   2.466   3.813   4.672
  237POPC   D2A 3151   2.443   3.647   5.115
  237POPC   C3A 3152   2.656   3.809   5.489
  237POPC   C4A 3153   2.848   3.733   5.896
  237POPC   C1B 3154   2.543   3.307   4.747
  237POPC   C2B 3155   2.395   3.144   5.149
  237POPC   C3B 3156   2.609   3.309   5.517
  237POPC   C4B 3157   2.443   3.434   5.910
  238POPC   NC3 3158   9.661   0.445   3.750
  238POPC   PO4 3159   9.179   0.070   3.874
  238POPC   GL1 3160   9.511   0.244   4.201
  238POPC   GL2 3161   9.661   0.615   4.253
  238POPC   C1A 3162   9.464   0.340   4.640
  238POPC   D2A 3163   9.172   0.355   4.936
  238POPC   C3A 3164   9.284   0.282   5.324
  238POPC   C4A 3165   9.138   0.326   5.738
  238POPC   C1B 3166   9.640   0.825   4.696
  238POPC   C2B 3167   9.460   0.733   5.137
  238POPC   C3B 3168   9.418   0.768   5.606
  238POPC   C4B 3169   9.305   0.705   6.020
  239POPC   NC3 3170   8.440   8.547   3.959
  239POPC   PO4 3171   8.951   8.904   3.806
  239POPC   GL1 3172   8.954   8.715   4.294
  239POPC   GL2 3173   8.681   8.507   4.392
  239POPC   C1A 3174   8.945   8.650   4.788
  239POPC   D2A 3175   9.021   8.342   5.128
  239POPC   C3A 3176   8.961   8.584   5.503
  239POPC   C4A 3177   8.872   8.764   5.924
  239POPC   C1B 3178   8.441   8.633   4.774
  239POPC   C2B 3179   8.524   8.491   5.180
  239POPC   C3B 3180   8.462   8.650   5.556
  239POPC   C4B 3181   8.394   8.942   5.804
  240POPC   NC3 3182   1.799   0.224   3.980
  240POPC   PO4 3183   1.767   0.896   3.805
  240POPC   GL1 3184   2.001   0.658   4.154
  240POPC   GL2 3185   1.741   0.572   4.385
  240POPC   C1A 3186   2.175   0.720   4.619
  240POPC   D2A 3187   1.977   0.543   5.020
  240POPC   C3A 3188   2.036   0.614   5.472
  240POPC   C4A 3189   2.162   0.690   5.927
  240POPC   C1B 3190   1.877   0.211   4.653
  240POPC   C2B 3191   1.673   0.095   5.030
  240POPC   C3B 3192   1.880   0.125   5.403
  240POPC   C4B 3193   1.928   0.264   5.824
  241POPC   NC3 3194   4.261   3.635   3.922
  241POPC   PO4 3195   4.688   3.253   3.915
  241POPC   GL1 3196   4.533   3.184   4.353
  241POPC   GL2 3197   4.179   3.229   4.340
  241POPC   C1A 3198   4.418   3.286   4.815
  241POPC   D2A 3199   4.452   3.324   5.276
  241POPC   C3A 3200   4.368   3.715   5.508
  241POPC   C4A 3201   4.258   4.061   5.864
  241POPC   C1B 3202   3.974   3.045   4.682
  241POPC   C2B 3203   3.950   3.153   5.123
  241POPC   C3B 3204   4.030   3.311   5.539
  241POPC   C4B 3205   4.030   3.581   5.877
  242POPC   NC3 3206   0.329   8.769   3.956
  242POPC   PO4 3207   0.720   8.175   3.852
  242POPC   GL1 3208   0.773   8.366   4.294
  242POPC   GL2 3209   0.458   8.533   4.379
  242POPC   C1A 3210   0.830   8.754   4.615
  242POPC   D2A 3211   0.566   8.944   4.985
  242POPC   C3A 3212   0.660   8.863   5.462
  242POPC   C4A 3213   0.485   8.483   5.726
  242POPC   C1B 3214   0.115   8.731   4.598
  242POPC   C2B 3215   0.037   8.867   4.995
  242POPC   C3B 3216   0.197   8.706   5.345
  242POPC   C4B 3217   0.143   8.845   5.749
  243POPC   NC3 3218   1.253   2.592   4.014
  243POPC   PO4 3219   1.346   3.311   3.811
  243POPC   GL1 3220   1.184   3.094   4.189
  243POPC   GL2 3221   1.082   3.395   4.322
  243POPC   C1A 3222   1.143   2.968   4.635
  243POPC   D2A 3223   0.882   3.229   4.912
  243POPC   C3A 3224   0.904   3.165   5.335
  243POPC   C4A 3225   0.919   3.207   5.774
  243POPC   C1B 3226   1.304   3.601   4.646
  243POPC   C2B 3227   1.353   3.443   5.067
  243POPC   C3B 3228   1.225   3.506   5.493
  243POPC   C4B 3229   1.466   3.443   5.801
  244POPC   NC3 3230   6.046   2.801   4.077
  244POPC   PO4 3231   5.479   2.815   3.855
  244POPC   GL1 3232   5.547   2.829   4.301
  244POPC   GL2 3233   5.674   2.485   4.300
  244POPC   C1A 3234   5.485   2.992   4.767
  244POPC   D2A 3235   5.693   2.853   5.196
  244POPC   C3A 3236   5.710   3.069   5.604
  244POPC   C4A 3237   5.460   3.230   5.970
  244POPC   C1B 3238   5.781   2.587   4.740
  244POPC   C2B 3239   5.773   2.354   5.134
  244POPC   C3B 3240   5.769   2.480   5.592
  244POPC   C4B 3241   6.036   2.576   5.976
  245POPC   NC3 3242   0.244   4.529   3.955
  245POPC   PO4 3243   0.766   4.942   3.723
  245POPC   GL1 3244   0.715   4.986   4.178
  245POPC   GL2 3245   0.509   4.757   4.357
  245POPC   C1A 3246   0.655   5.172   4.613
  245POPC   D2A 3247   0.470   5.044   5.010
  245POPC   C3A 3248   0.648   4.983   5.421
  245POPC   C4A 3249   0.665   4.652   5.693
  245POPC   C1B 3250   0.145   4.884   4.658
  245POPC   C2B 3251   0.040   4.760   5.082
  245POPC   C3B 3252   0.168   4.787   5.516
  245POPC   C4B 3253   0.192   5.087   5.850
  246POPC   NC3 3254   4.329  10.161   3.920
  246POPC   PO4 3255   3.656  10.008   3.927
  246POPC   GL1 3256   3.945  10.042   4.244
  246POPC   GL2 3257   4.043  10.400   4.259
  246POPC   C1A 3258   3.884   9.897   4.638
  246POPC   D2A 3259   3.567   9.896   4.959
  246POPC   C3A 3260   3.763  10.023   5.344
  246POPC   C4A 3261   3.692   9.814   5.706
  246POPC   C1B 3262   4.215  10.296   4.649
  246POPC   C2B 3263   4.421  10.055   4.983
  246POPC   C3B 3264   4.287  10.069   5.409
  246POPC   C4B 3265   4.225  10.459   5.650
  247POPC   NC3 3266   6.250   9.612   3.989
  247POPC   PO4 3267   6.831   9.816   4.076
  247POPC   GL1 3268   6.517   9.808   4.420
  247POPC   GL2 3269   6.315   9.486   4.472
  247POPC   C1A 3270   6.453   9.737   4.878
  247POPC   D2A 3271   6.367   9.427   5.173
  247POPC   C3A 3272   6.238   9.599   5.517
  247POPC   C4A 3273   6.208  10.005   5.663
  247POPC   C1B 3274   6.612   9.266   4.742
  247POPC   C2B 3275   6.795   9.157   5.150
  247POPC   C3B 3276   6.692   9.319   5.585
  247POPC   C4B 3277   6.661   9.289   6.061
  248POPC   NC3 3278   0.869   7.041   4.137
  248POPC   PO4 3279   1.500   6.879   3.940
  248POPC   GL1 3280   1.356   7.089   4.320
  248POPC   GL2 3281   1.177   7.432   4.304
  248POPC   C1A 3282   1.185   7.042   4.738
  248POPC   D2A 3283   1.292   6.940   5.158
  248POPC   C3A 3284   0.926   6.937   5.380
  248POPC   C4A 3285   0.886   7.034   5.789
  248POPC   C1B 3286   1.239   7.557   4.750
  248POPC   C2B 3287   1.353   7.597   5.188
  248POPC   C3B 3288   1.224   7.345   5.538
  248POPC   C4B 3289   1.375   6.912   5.694
  249POPC   NC3 3290   4.110   7.207   3.954
  249POPC   PO4 3291   4.624   7.474   3.780
  249POPC   GL1 3292   4.497   7.472   4.241
  249POPC   GL2 3293   4.181   7.331   4.429
  249POPC   C1A 3294   4.579   7.431   4.717
  249POPC   D2A 3295   4.375   7.140   5.021
  249POPC   C3A 3296   4.323   7.254   5.438
  249POPC   C4A 3297   4.633   7.219   5.742
  249POPC   C1B 3298   3.956   7.065   4.739
  249POPC   C2B 3299   3.885   7.078   5.211
  249POPC   C3B 3300   4.090   6.817   5.548
  249POPC   C4B 3301   4.246   6.595   5.950
  250POPC   NC3 3302   4.802   8.321   3.976
  250POPC   PO4 3303   4.735   8.959   3.992
  250POPC   GL1 3304   4.924   8.718   4.310
  250POPC   GL2 3305   5.238   8.547   4.170
  250POPC   C1A 3306   4.913   8.761   4.759
  250POPC   D2A 3307   4.804   8.568   5.139
  250POPC   C3A 3308   4.805   8.799   5.540
  250POPC   C4A 3309   4.751   8.897   5.992
  250POPC   C1B 3310   5.343   8.532   4.606
  250POPC   C2B 3311   5.480   8.560   5.029
  250POPC   C3B 3312   5.226   8.514   5.415
  250POPC   C4B 3313   5.222   8.658   5.835
  251POPC   NC3 3314   7.740   5.140   4.312
  251POPC   PO4 3315   8.255   5.299   3.978
  251POPC   GL1 3316   8.258   5.208   4.372
  251POPC   GL2 3317   8.234   4.881   4.400
  251POPC   C1A 3318   8.164   5.332   4.777
  251POPC   D2A 3319   7.923   5.115   5.167
  251POPC   C3A 3320   7.909   5.297   5.599
  251POPC   C4A 3321   7.936   5.304   6.047
  251POPC   C1B 3322   8.088   4.837   4.773
  251POPC   C2B 3323   8.255   4.707   5.105
  251POPC   C3B 3324   7.999   4.631   5.425
  251POPC   C4B 3325   7.897   4.821   5.796
  252POPC   NC3 3326   7.601   9.018   3.685
  252POPC   PO4 3327   8.064   8.547   3.666
  252POPC   GL1 3328   7.916   8.754   4.108
  252POPC   GL2 3329   8.172   8.677   4.347
  252POPC   C1A 3330   7.801   8.825   4.620
  252POPC   D2A 3331   8.047   9.014   4.974
  252POPC   C3A 3332   7.987   8.878   5.421
  252POPC   C4A 3333   7.900   9.054   5.875
  252POPC   C1B 3334   8.044   8.361   4.631
  252POPC   C2B 3335   8.147   8.134   5.007
  252POPC   C3B 3336   8.106   8.319   5.410
  252POPC   C4B 3337   8.020   8.552   5.809
  253POPC   NC3 3338   8.797   1.316   3.945
  253POPC   PO4 3339   8.405   0.744   3.816
  253POPC   GL1 3340   8.418   1.058   4.193
  253POPC   GL2 3341   8.748   0.968   4.344
  253POPC   C1A 3342   8.427   1.410   4.553
  253POPC   D2A 3343   8.460   1.688   4.951
  253POPC   C3A 3344   8.401   1.504   5.399
  253POPC   C4A 3345   8.449   1.064   5.561
  253POPC   C1B 3346   8.892   1.267   4.673
  253POPC   C2B 3347   8.791   1.313   5.119
  253POPC   C3B 3348   8.859   1.396   5.564
  253POPC   C4B 3349   8.906   0.998   5.830
  254POPC   NC3 3350   1.352   5.645   3.831
  254POPC   PO4 3351   0.730   5.933   3.781
  254POPC   GL1 3352   0.983   5.995   4.131
  254POPC   GL2 3353   0.990   5.655   4.233
  254POPC   C1A 3354   1.056   6.018   4.589
  254POPC   D2A 3355   0.810   6.019   4.981
  254POPC   C3A 3356   0.975   6.004   5.390
  254POPC   C4A 3357   0.984   5.735   5.779
  254POPC   C1B 3358   1.082   5.466   4.642
  254POPC   C2B 3359   1.136   5.624   5.057
  254POPC   C3B 3360   1.357   5.701   5.433
  254POPC   C4B 3361   1.422   5.468   5.790
  255POPC   NC3 3362   7.250   9.596   3.953
  255POPC   PO4 3363   7.443   9.026   4.108
  255POPC   GL1 3364   7.259   9.317   4.379
  255POPC   GL2 3365   6.912   9.398   4.336
  255POPC   C1A 3366   7.144   9.234   4.771
  255POPC   D2A 3367   7.326   9.309   5.116
  255POPC   C3A 3368   7.196   9.081   5.459
  255POPC   C4A 3369   7.093   9.120   5.852
  255POPC   C1B 3370   6.929   9.681   4.691
  255POPC   C2B 3371   6.933   9.651   5.109
  255POPC   C3B 3372   7.132   9.598   5.494
  255POPC   C4B 3373   6.991   9.632   5.919
  256POPC   NC3 3374   0.367   3.773   4.118
  256POPC   PO4 3375   0.735   3.262   3.954
  256POPC   GL1 3376   0.478   3.290   4.272
  256POPC   GL2 3377   0.621   3.535   4.469
  256POPC   C1A 3378   0.262   3.255   4.651
  256POPC   D2A 3379   0.387   3.487   5.016
  256POPC   C3A 3380   0.216   3.330   5.399
  256POPC   C4A 3381   0.428   3.265   5.778
  256POPC   C1B 3382   0.816   3.705   4.772
  256POPC   C2B 3383   0.885   3.671   5.165
  256POPC   C3B 3384   0.694   3.605   5.495
  256POPC   C4B 3385   0.838   3.703   5.876
  257POPC   NC3 3386   7.309   0.077   4.137
  257POPC   PO4 3387   7.453  10.015   3.939
  257POPC   GL1 3388   7.276   9.877   4.359
  257POPC   GL2 3389   7.074  10.175   4.342
  257POPC   C1A 3390   7.419   9.730   4.795
  257POPC   D2A 3391   7.705   9.971   5.065
  257POPC   C3A 3392   7.604   9.851   5.492
  257POPC   C4A 3393   7.264  10.025   5.748
  257POPC   C1B 3394   7.311  10.210   4.736
  257POPC   C2B 3395   7.210  10.095   5.185
  257POPC   C3B 3396   6.978  10.374   5.476
  257POPC   C4B 3397   7.090  10.471   5.906
  258POPC   NC3 3398   0.174   3.832   3.640
  258POPC   PO4 3399   0.698   4.116   3.962
  258POPC   GL1 3400   0.505   4.227   4.352
  258POPC   GL2 3401   0.178   4.382   4.454
  258POPC   C1A 3402   0.379   3.991   4.717
  258POPC   D2A 3403   0.537   4.023   5.092
  258POPC   C3A 3404   0.270   3.864   5.367
  258POPC   C4A 3405   0.298   3.743   5.784
  258POPC   C1B 3406   0.471   4.518   4.815
  258POPC   C2B 3407   0.744   4.487   5.188
  258POPC   C3B 3408   0.726   4.158   5.549
  258POPC   C4B 3409   0.322   4.250   5.715
  259POPC   NC3 3410   9.118   7.252   3.699
  259POPC   PO4 3411   9.576   7.670   3.979
  259POPC   GL1 3412   9.297   7.392   4.190
  259POPC   GL2 3413   9.467   7.070   4.244
  259POPC   C1A 3414   9.191   7.428   4.623
  259POPC   D2A 3415   9.185   7.543   5.027
  259POPC   C3A 3416   9.419   7.407   5.350
  259POPC   C4A 3417   9.269   7.504   5.759
  259POPC   C1B 3418   9.308   6.936   4.679
  259POPC   C2B 3419   9.365   6.750   5.112
  259POPC   C3B 3420   9.301   6.933   5.526
  259POPC   C4B 3421   9.553   7.092   5.796
  260POPC   NC3 3422   2.766   2.561   3.859
  260POPC   PO4 3423   2.289   3.145   3.891
  260POPC   GL1 3424   2.470   2.840   4.206
  260POPC   GL2 3425   2.572   2.489   4.322
  260POPC   C1A 3426   2.498   2.811   4.682
  260POPC   D2A 3427   2.803   2.863   5.011
  260POPC   C3A 3428   2.650   2.800   5.441
  260POPC   C4A 3429   2.521   2.846   5.859
  260POPC   C1B 3430   2.945   2.527   4.597
  260POPC   C2B 3431   3.247   2.495   4.927
  260POPC   C3B 3432   3.123   2.593   5.333
  260POPC   C4B 3433   2.943   2.528   5.758
  261POPC   NC3 3434   8.868   4.376   3.896
  261POPC   PO4 3435   9.499   4.023   3.902
  261POPC   GL1 3436   9.245   4.022   4.250
  261POPC   GL2 3437   9.204   4.365   4.303
  261POPC   C1A 3438   9.390   3.992   4.674
  261POPC   D2A 3439   9.459   3.748   5.039
  261POPC   C3A 3440   9.377   3.980   5.404
  261POPC   C4A 3441   9.506   3.989   5.813
  261POPC   C1B 3442   9.353   4.502   4.701
  261POPC   C2B 3443   9.188   4.451   5.148
  261POPC   C3B 3444   9.355   4.496   5.569
  261POPC   C4B 3445   9.617   4.462   5.949
  262POPC   NC3 3446   5.064   2.997   3.871
  262POPC   PO4 3447   4.528   2.508   3.841
  262POPC   GL1 3448   4.766   2.604   4.237
  262POPC   GL2 3449   5.127   2.516   4.194
  262POPC   C1A 3450   4.897   2.870   4.611
  262POPC   D2A 3451   4.828   3.051   5.051
  262POPC   C3A 3452   4.807   2.962   5.523
  262POPC   C4A 3453   4.925   3.196   5.951
  262POPC   C1B 3454   5.273   2.523   4.623
  262POPC   C2B 3455   5.217   2.685   5.076
  262POPC   C3B 3456   5.285   2.763   5.538
  262POPC   C4B 3457   5.041   2.718   5.950
  263POPC   NC3 3458   0.253   6.125   3.874
  263POPC   PO4 3459   0.645   6.716   3.911
  263POPC   GL1 3460   0.589   6.362   4.170
  263POPC   GL2 3461   0.224   6.376   4.299
  263POPC   C1A 3462   0.584   6.221   4.584
  263POPC   D2A 3463   0.504   6.472   4.954
  263POPC   C3A 3464   0.555   6.278   5.353
  263POPC   C4A 3465   0.667   6.121   5.761
  263POPC   C1B 3466   0.075   6.275   4.714
  263POPC   C2B 3467  10.474   6.527   5.039
  263POPC   C3B 3468   0.203   6.628   5.374
  263POPC   C4B 3469   0.379   6.522   5.773
  264POPC   NC3 3470   0.622   1.450   3.784
  264POPC   PO4 3471   0.930   0.828   3.723
  264POPC   GL1 3472   0.806   1.066   4.103
  264POPC   GL2 3473   0.471   1.220   4.216
  264POPC   C1A 3474   0.838   1.141   4.562
  264POPC   D2A 3475   0.621   1.026   4.945
  264POPC   C3A 3476   0.651   1.107   5.385
  264POPC   C4A 3477   0.753   0.980   5.783
  264POPC   C1B 3478   0.209   1.079   4.572
  264POPC   C2B 3479   0.142   0.894   4.965
  264POPC   C3B 3480   0.074   0.855   5.409
  264POPC   C4B 3481   0.241   1.119   5.711
  265POPC   NC3 3482   6.548   7.957   3.845
  265POPC   PO4 3483   6.051   7.535   3.971
  265POPC   GL1 3484   6.292   7.690   4.287
  265POPC   GL2 3485   6.560   7.932   4.349
  265POPC   C1A 3486   6.255   7.611   4.718
  265POPC   D2A 3487   6.244   7.530   5.152
  265POPC   C3A 3488   6.438   7.774   5.470
  265POPC   C4A 3489   6.400   7.636   5.873
  265POPC   C1B 3490   6.246   8.100   4.601
  265POPC   C2B 3491   6.327   8.046   5.044
  265POPC   C3B 3492   6.719   8.152   5.268
  265POPC   C4B 3493   6.790   8.194   5.713
  266POPC   NC3 3494   8.019   1.045   3.837
  266POPC   PO4 3495   7.544   1.609   3.688
  266POPC   GL1 3496   7.762   1.357   4.104
  266POPC   GL2 3497   7.526   1.119   4.284
  266POPC   C1A 3498   7.981   1.167   4.498
  266POPC   D2A 3499   8.078   0.939   4.888
  266POPC   C3A 3500   7.826   0.996   5.270
  266POPC   C4A 3501   7.981   1.261   5.612
  266POPC   C1B 3502   7.532   1.055   4.753
  266POPC   C2B 3503   7.517   1.388   5.088
  266POPC   C3B 3504   7.526   1.455   5.516
  266POPC   C4B 3505   7.530   1.116   5.843
  267POPC   NC3 3506   0.696   5.391   3.849
  267POPC   PO4 3507   0.197   4.973   4.040
  267POPC   GL1 3508   0.328   5.338   4.238
  267POPC   GL2 3509   0.390   5.707   4.159
  267POPC   C1A 3510   0.178   5.441   4.641
  267POPC   D2A 3511   0.030   5.298   5.024
  267POPC   C3A 3512   0.268   5.310   5.399
  267POPC   C4A 3513   0.562   5.428   5.759
  267POPC   C1B 3514   0.612   5.701   4.581
  267POPC   C2B 3515   0.510   5.597   5.037
  267POPC   C3B 3516   0.358   5.815   5.448
  267POPC   C4B 3517   0.196   6.007   5.865
  268POPC   NC3 3518   9.089   6.077   4.168
  268POPC   PO4 3519   8.550   6.204   3.841
  268POPC   GL1 3520   8.590   6.406   4.202
  268POPC   GL2 3521   8.853   6.513   4.191
  268POPC   C1A 3522   8.503   6.335   4.638
  268POPC   D2A 3523   8.403   6.262   5.052
  268POPC   C3A 3524   8.670   6.266   5.383
  268POPC   C4A 3525   8.515   6.461   5.768
  268POPC   C1B 3526   8.947   6.577   4.640
  268POPC   C2B 3527   8.869   6.610   5.064
  268POPC   C3B 3528   8.841   6.746   5.494
  268POPC   C4B 3529   8.991   6.687   5.903
  269POPC   NC3 3530   5.618   9.854   3.883
  269POPC   PO4 3531   5.924   9.243   3.953
  269POPC   GL1 3532   5.841   9.616   4.276
  269POPC   GL2 3533   5.509   9.693   4.352
  269POPC   C1A 3534   5.914   9.819   4.682
  269POPC   D2A 3535   5.891   9.613   5.080
  269POPC   C3A 3536   5.761   9.830   5.436
  269POPC   C4A 3537   5.848   9.686   5.843
  269POPC   C1B 3538   5.438   9.558   4.757
  269POPC   C2B 3539   5.403   9.446   5.165
  269POPC   C3B 3540   5.637   9.352   5.503
  269POPC   C4B 3541   5.402   9.469   5.861
  270POPC   NC3 3542   4.355   2.938   3.925
  270POPC   PO4 3543   3.947   2.408   3.997
  270POPC   GL1 3544   4.252   2.428   4.256
  270POPC   GL2 3545   4.267   2.726   4.374
  270POPC   C1A 3546   4.300   2.281   4.647
  270POPC   D2A 3547   4.369   2.334   5.066
  270POPC   C3A 3548   4.045   2.246   5.272
  270POPC   C4A 3549   3.925   2.333   5.656
  270POPC   C1B 3550   4.421   2.770   4.783
  270POPC   C2B 3551   4.374   2.820   5.226
  270POPC   C3B 3552   4.148   2.807   5.616
  270POPC   C4B 3553   4.096   3.064   6.005
  271POPC   NC3 3554   3.471   2.164   4.006
  271POPC   PO4 3555   3.971   1.745   3.724
  271POPC   GL1 3556   3.709   1.739   4.211
  271POPC   GL2 3557   3.326   1.667   4.292
  271POPC   C1A 3558   3.552   1.842   4.711
  271POPC   D2A 3559   3.615   2.027   5.142
  271POPC   C3A 3560   3.476   1.885   5.530
  271POPC   C4A 3561   3.217   1.558   5.735
  271POPC   C1B 3562   3.057   1.902   4.657
  271POPC   C2B 3563   3.098   1.962   5.098
  271POPC   C3B 3564   3.030   2.099   5.515
  271POPC   C4B 3565   3.224   2.037   5.957
  272POPC   NC3 3566   7.802   3.340   3.991
  272POPC   PO4 3567   8.259   3.948   3.936
  272POPC   GL1 3568   8.183   3.600   4.240
  272POPC   GL2 3569   7.864   3.601   4.409
  272POPC   C1A 3570   8.230   3.334   4.605
  272POPC   D2A 3571   8.058   3.513   4.973
  272POPC   C3A 3572   8.114   3.596   5.403
  272POPC   C4A 3573   8.106   3.806   5.821
  272POPC   C1B 3574   7.753   3.158   4.591
  272POPC   C2B 3575   7.936   3.004   4.964
  272POPC   C3B 3576   7.821   3.145   5.378
  272POPC   C4B 3577   7.860   3.359   5.779
  273POPC   NC3 3578   2.190   1.057   3.892
  273POPC   PO4 3579   2.365   1.692   3.893
  273POPC   GL1 3580   2.138   1.449   4.270
  273POPC   GL2 3581   1.950   1.111   4.350
  273POPC   C1A 3582   2.065   1.416   4.725
  273POPC   D2A 3583   2.363   1.331   5.038
  273POPC   C3A 3584   2.208   1.424   5.393
  273POPC   C4A 3585   2.299   1.447   5.798
  273POPC   C1B 3586   1.750   0.996   4.752
  273POPC   C2B 3587   1.947   1.037   5.158
  273POPC   C3B 3588   1.863   1.053   5.595
  273POPC   C4B 3589   1.777   1.410   5.677
  274POPC   NC3 3590   7.172   7.796   4.010
  274POPC   PO4 3591   7.624   8.309   4.022
  274POPC   GL1 3592   7.371   8.102   4.352
  274POPC   GL2 3593   7.462   7.724   4.429
  274POPC   C1A 3594   7.057   8.168   4.687
  274POPC   D2A 3595   7.220   8.256   5.084
  274POPC   C3A 3596   7.198   8.010   5.418
  274POPC   C4A 3597   7.323   8.176   5.753
  274POPC   C1B 3598   7.251   7.735   4.900
  274POPC   C2B 3599   6.929   7.614   5.269
  274POPC   C3B 3600   6.895   7.704   5.736
  274POPC   C4B 3601   6.779   7.564   6.193
  275POPC   NC3 3602   4.227   2.135   3.734
  275POPC   PO4 3603   4.591   1.645   4.053
  275POPC   GL1 3604   4.483   1.782   4.424
  275POPC   GL2 3605   4.184   1.924   4.244
  275POPC   C1A 3606   4.544   1.889   4.860
  275POPC   D2A 3607   4.510   1.903   5.310
  275POPC   C3A 3608   4.426   2.224   5.599
  275POPC   C4A 3609   4.220   2.057   5.963
  275POPC   C1B 3610   4.049   1.822   4.675
  275POPC   C2B 3611   4.053   1.730   5.114
  275POPC   C3B 3612   3.997   1.826   5.553
  275POPC   C4B 3613   3.763   1.779   5.931
  276POPC   NC3 3614   2.419   9.186   4.195
  276POPC   PO4 3615   1.944   9.370   3.743
  276POPC   GL1 3616   1.912   9.270   4.220
  276POPC   GL2 3617   1.621   9.083   4.254
  276POPC   C1A 3618   2.069   9.348   4.703
  276POPC   D2A 3619   2.349   9.344   5.085
  276POPC   C3A 3620   2.154   9.577   5.433
  276POPC   C4A 3621   2.047   9.513   5.855
  276POPC   C1B 3622   1.571   9.287   4.624
  276POPC   C2B 3623   1.661   9.537   4.988
  276POPC   C3B 3624   1.646   9.444   5.403
  276POPC   C4B 3625   1.635   9.218   5.762
  277POPC   NC3 3626   5.044   1.493   4.169
  277POPC   PO4 3627   5.020   0.926   3.765
  277POPC   GL1 3628   4.758   0.925   4.208
  277POPC   GL2 3629   4.608   1.232   4.328
  277POPC   C1A 3630   4.777   0.954   4.693
  277POPC   D2A 3631   4.569   0.925   5.079
  277POPC   C3A 3632   4.764   0.890   5.468
  277POPC   C4A 3633   4.476   1.037   5.792
  277POPC   C1B 3634   4.793   1.450   4.737
  277POPC   C2B 3635   4.950   1.267   5.126
  277POPC   C3B 3636   4.848   1.381   5.550
  277POPC   C4B 3637   5.066   1.531   5.892
  278POPC   NC3 3638   0.845   0.514   4.057
  278POPC   PO4 3639   0.240   0.831   3.956
  278POPC   GL1 3640   0.429   0.682   4.324
  278POPC   GL2 3641   0.216   0.400   4.306
  278POPC   C1A 3642   0.536   0.422   4.708
  278POPC   D2A 3643   0.734   0.395   5.112
  278POPC   C3A 3644   0.547   0.625   5.387
  278POPC   C4A 3645   0.408   0.575   5.766
  278POPC   C1B 3646  10.498   0.464   4.702
  278POPC   C2B 3647   0.176   0.415   5.110
  278POPC   C3B 3648   0.235   0.188   5.474
  278POPC   C4B 3649   0.049   0.213   5.857
  279POPC   NC3 3650   0.437   2.265   3.918
  279POPC   PO4 3651   0.693   1.701   4.150
  279POPC   GL1 3652   0.416   1.757   4.395
  279POPC   GL2 3653   0.515   2.119   4.406
  279POPC   C1A 3654   0.413   1.510   4.771
  279POPC   D2A 3655   0.281   1.371   5.185
  279POPC   C3A 3656   0.487   1.542   5.575
  279POPC   C4A 3657   0.207   1.651   5.918
  279POPC   C1B 3658   0.653   1.983   4.786
  279POPC   C2B 3659   0.453   1.876   5.132
  279POPC   C3B 3660   0.257   1.978   5.476
  279POPC   C4B 3661   0.488   2.032   5.811
  280POPC   NC3 3662   9.864   4.344   3.927
  280POPC   PO4 3663  10.426   3.858   4.021
  280POPC   GL1 3664  10.243   4.126   4.275
  280POPC   GL2 3665   9.924   3.975   4.283
  280POPC   C1A 3666  10.315   4.127   4.707
  280POPC   D2A 3667   0.072   4.241   5.051
  280POPC   C3A 3668  10.371   4.193   5.441
  280POPC   C4A 3669  10.381   4.475   5.801
  280POPC   C1B 3670   9.824   4.258   4.631
  280POPC   C2B 3671   9.632   4.258   5.044
  280POPC   C3B 3672   9.797   4.286   5.446
  280POPC   C4B 3673   9.997   4.147   5.782
  281POPC   NC3 3674   2.563   6.515   3.925
  281POPC   PO4 3675   2.995   6.890   4.085
  281POPC   GL1 3676   2.813   6.564   4.376
  281POPC   GL2 3677   2.642   6.218   4.347
  281POPC   C1A 3678   2.886   6.533   4.813
  281POPC   D2A 3679   2.843   6.374   5.213
  281POPC   C3A 3680   3.040   6.489   5.598
  281POPC   C4A 3681   2.936   6.692   5.986
  281POPC   C1B 3682   2.397   6.287   4.764
  281POPC   C2B 3683   2.344   6.279   5.224
  281POPC   C3B 3684   2.571   6.237   5.610
  281POPC   C4B 3685   2.622   5.882   5.890
  282POPC   NC3 3686   2.411  10.293   3.993
  282POPC   PO4 3687   2.258   9.675   4.174
  282POPC   GL1 3688   2.606   9.964   4.347
  282POPC   GL2 3689   2.812  10.298   4.301
  282POPC   C1A 3690   2.544  10.108   4.753
  282POPC   D2A 3691   2.424   9.905   5.112
  282POPC   C3A 3692   2.625  10.081   5.497
  282POPC   C4A 3693   2.449  10.175   5.911
  282POPC   C1B 3694   2.815   0.019   4.713
  282POPC   C2B 3695   2.715  10.460   5.124
  282POPC   C3B 3696   2.954  10.486   5.483
  282POPC   C4B 3697   2.924  10.393   5.923
  283POPC   NC3 3698   5.370   0.677   4.025
  283POPC   PO4 3699   6.007   0.847   3.900
  283POPC   GL1 3700   5.833   0.543   4.294
  283POPC   GL2 3701   5.643   0.214   4.344
  283POPC   C1A 3702   5.742   0.450   4.781
  283POPC   D2A 3703   5.556   0.690   5.122
  283POPC   C3A 3704   5.743   0.743   5.500
  283POPC   C4A 3705   5.850   0.475   5.878
  283POPC   C1B 3706   5.338   0.084   4.671
  283POPC   C2B 3707   5.411   0.167   5.084
  283POPC   C3B 3708   5.564   0.268   5.488
  283POPC   C4B 3709   5.391   0.258   5.896
  284POPC   NC3 3710   4.613   1.215   3.811
  284POPC   PO4 3711   3.960   0.872   3.999
  284POPC   GL1 3712   4.047   1.044   4.371
  284POPC   GL2 3713   4.122   1.406   4.390
  284POPC   C1A 3714   3.849   0.944   4.761
  284POPC   D2A 3715   3.978   1.202   5.090
  284POPC   C3A 3716   4.060   1.059   5.479
  284POPC   C4A 3717   3.938   0.871   5.846
  284POPC   C1B 3718   4.327   1.261   4.743
  284POPC   C2B 3719   4.466   1.421   5.133
  284POPC   C3B 3720   4.348   1.469   5.536
  284POPC   C4B 3721   4.223   1.539   5.952
  285POPC   NC3 3722   3.225   5.203   4.029
  285POPC   PO4 3723   2.673   5.370   3.794
  285POPC   GL1 3724   2.385   5.336   4.157
  285POPC   GL2 3725   2.294   5.682   4.262
  285POPC   C1A 3726   2.393   5.256   4.610
  285POPC   D2A 3727   2.461   5.431   5.027
  285POPC   C3A 3728   2.731   5.437   5.381
  285POPC   C4A 3729   2.777   5.395   5.809
  285POPC   C1B 3730   2.519   5.785   4.641
  285POPC   C2B 3731   2.678   5.905   5.077
  285POPC   C3B 3732   2.939   5.921   5.471
  285POPC   C4B 3733   3.210   5.698   5.755
  286POPC   NC3 3734   4.814   9.398   3.914
  286POPC   PO4 3735   5.149   9.868   4.047
  286POPC   GL1 3736   4.844   9.674   4.338
  286POPC   GL2 3737   4.888   9.297   4.409
  286POPC   C1A 3738   4.551   9.623   4.697
  286POPC   D2A 3739   4.580   9.576   5.152
  286POPC   C3A 3740   4.616   9.714   5.598
  286POPC   C4A 3741   4.604   9.706   6.070
  286POPC   C1B 3742   4.983   9.279   4.852
  286POPC   C2B 3743   5.176   8.982   5.159
  286POPC   C3B 3744   5.189   9.109   5.584
  286POPC   C4B 3745   4.903   9.361   5.826
  287POPC   NC3 3746   7.889   5.166   3.745
  287POPC   PO4 3747   7.843   5.779   3.933
  287POPC   GL1 3748   7.915   5.619   4.320
  287POPC   GL2 3749   8.213   5.716   4.404
  287POPC   C1A 3750   7.834   5.695   4.771
  287POPC   D2A 3751   8.034   5.610   5.203
  287POPC   C3A 3752   7.735   5.776   5.532
  287POPC   C4A 3753   7.525   5.583   5.909
  287POPC   C1B 3754   8.351   5.818   4.821
  287POPC   C2B 3755   8.539   5.727   5.226
  287POPC   C3B 3756   8.376   5.535   5.595
  287POPC   C4B 3757   8.098   5.747   5.878
  288POPC   NC3 3758   9.734   9.226   3.790
  288POPC   PO4 3759  10.443   9.085   3.826
  288POPC   GL1 3760  10.215   9.173   4.215
  288POPC   GL2 3761  10.047   9.502   4.207
  288POPC   C1A 3762  10.193   9.049   4.653
  288POPC   D2A 3763  10.133   9.197   5.062
  288POPC   C3A 3764  10.252   8.982   5.428
  288POPC   C4A 3765  10.192   9.099   5.857
  288POPC   C1B 3766  10.290   9.570   4.617
  288POPC   C2B 3767  10.259   9.694   5.061
  288POPC   C3B 3768  10.253   9.504   5.472
  288POPC   C4B 3769   9.969   9.578   5.813
  289POPC   NC3 3770   9.275   9.087   4.060
  289POPC   PO4 3771   9.497   9.632   3.736
  289POPC   GL1 3772   9.549   9.555   4.239
  289POPC   GL2 3773   9.294   9.447   4.423
  289POPC   C1A 3774   9.792   9.481   4.706
  289POPC   D2A 3775   9.757   9.517   5.207
  289POPC   C3A 3776   9.778   9.185   5.559
  289POPC   C4A 3777   9.747   9.190   6.088
  289POPC   C1B 3778   9.321   9.393   4.849
  289POPC   C2B 3779   9.062   9.191   5.097
  289POPC   C3B 3780   9.155   9.389   5.484
  289POPC   C4B 3781   9.432   9.458   5.803
  290POPC   NC3 3782   8.796   9.503   3.945
  290POPC   PO4 3783   8.543   8.964   4.143
  290POPC   GL1 3784   8.822   9.224   4.363
  290POPC   GL2 3785   8.521   9.442   4.373
  290POPC   C1A 3786   8.863   9.547   4.711
  290POPC   D2A 3787   8.781   9.633   5.145
  290POPC   C3A 3788   8.981   9.863   5.449
  290POPC   C4A 3789   9.035   9.749   5.898
  290POPC   C1B 3790   8.508   9.149   4.749
  290POPC   C2B 3791   8.555   8.992   5.154
  290POPC   C3B 3792   8.778   9.060   5.502
  290POPC   C4B 3793   8.691   9.379   5.762
  291POPC   NC3 3794   2.474   4.956   3.815
  291POPC   PO4 3795   3.107   4.767   3.966
  291POPC   GL1 3796   2.800   4.988   4.208
  291POPC   GL2 3797   2.526   4.790   4.302
  291POPC   C1A 3798   2.878   5.124   4.624
  291POPC   D2A 3799   2.811   5.038   5.060
  291POPC   C3A 3800   3.091   4.879   5.389
  291POPC   C4A 3801   3.119   4.969   5.839
  291POPC   C1B 3802   2.332   4.736   4.708
  291POPC   C2B 3803   2.338   4.913   5.138
  291POPC   C3B 3804   2.613   4.931   5.550
  291POPC   C4B 3805   2.522   4.999   5.995
  292POPC   NC3 3806  10.166   8.612   3.784
  292POPC   PO4 3807   9.535   8.787   3.793
  292POPC   GL1 3808   9.858   8.584   4.165
  292POPC   GL2 3809  10.201   8.661   4.282
  292POPC   C1A 3810   9.847   8.606   4.655
  292POPC   D2A 3811  10.053   8.675   5.023
  292POPC   C3A 3812   9.841   8.690   5.418
  292POPC   C4A 3813   9.744   8.746   5.831
  292POPC   C1B 3814  10.299   8.322   4.572
  292POPC   C2B 3815  10.467   8.348   4.988
  292POPC   C3B 3816  10.287   8.433   5.397
  292POPC   C4B 3817  10.222   8.592   5.772
  293POPC   NC3 3818   8.236   9.248   3.969
  293POPC   PO4 3819   7.707   9.478   3.730
  293POPC   GL1 3820   7.781   9.387   4.226
  293POPC   GL2 3821   8.063   9.188   4.418
  293POPC   C1A 3822   7.668   9.309   4.702
  293POPC   D2A 3823   7.815   9.476   5.115
  293POPC   C3A 3824   7.674   9.292   5.480
  293POPC   C4A 3825   7.483   9.432   5.842
  293POPC   C1B 3826   8.144   9.513   4.709
  293POPC   C2B 3827   8.321   9.451   5.107
  293POPC   C3B 3828   8.234   9.329   5.501
  293POPC   C4B 3829   7.996   9.551   5.774
  294POPC   NC3 3830   0.980   8.555   3.857
  294POPC   PO4 3831   1.471   8.234   3.953
  294POPC   GL1 3832   1.289   8.418   4.290
  294POPC   GL2 3833   1.218   8.770   4.239
  294POPC   C1A 3834   1.143   8.364   4.713
  294POPC   D2A 3835   0.979   8.560   5.084
  294POPC   C3A 3836   0.914   8.326   5.465
  294POPC   C4A 3837   0.968   8.603   5.798
  294POPC   C1B 3838   1.375   8.812   4.645
  294POPC   C2B 3839   1.501   8.598   5.009
  294POPC   C3B 3840   1.418   8.550   5.431
  294POPC   C4B 3841   1.461   8.752   5.810
  295POPC   NC3 3842   1.431   0.971   4.125
  295POPC   PO4 3843   1.120   1.444   3.733
  295POPC   GL1 3844   1.143   1.449   4.246
  295POPC   GL2 3845   1.348   1.279   4.500
  295POPC   C1A 3846   1.018   1.601   4.703
  295POPC   D2A 3847   0.805   1.505   5.101
  295POPC   C3A 3848   1.027   1.423   5.499
  295POPC   C4A 3849   1.019   1.422   5.937
  295POPC   C1B 3850   1.263   1.191   4.904
  295POPC   C2B 3851   1.471   1.268   5.273
  295POPC   C3B 3852   1.352   1.050   5.632
  295POPC   C4B 3853   1.199   0.846   5.961
  296POPC   NC3 3854   7.927   1.795   3.872
  296POPC   PO4 3855   7.375   1.634   4.190
  296POPC   GL1 3856   7.719   1.816   4.344
  296POPC   GL2 3857   7.716   2.162   4.223
  296POPC   C1A 3858   7.991   1.665   4.662
  296POPC   D2A 3859   8.019   1.447   5.063
  296POPC   C3A 3860   7.941   1.721   5.425
  296POPC   C4A 3861   7.748   1.928   5.781
  296POPC   C1B 3862   7.864   2.179   4.664
  296POPC   C2B 3863   8.056   2.016   5.025
  296POPC   C3B 3864   7.928   2.212   5.402
  296POPC   C4B 3865   7.986   2.380   5.789
  297POPC   NC3 3866   2.538   2.057   3.660
  297POPC   PO4 3867   3.045   1.976   4.022
  297POPC   GL1 3868   2.717   1.995   4.278
  297POPC   GL2 3869   2.586   1.691   4.350
  297POPC   C1A 3870   2.597   2.162   4.702
  297POPC   D2A 3871   2.753   2.348   5.081
  297POPC   C3A 3872   2.563   2.298   5.492
  297POPC   C4A 3873   2.538   2.334   5.968
  297POPC   C1B 3874   2.600   1.662   4.745
  297POPC   C2B 3875   2.586   1.836   5.124
  297POPC   C3B 3876   2.743   1.681   5.477
  297POPC   C4B 3877   2.746   1.841   5.857
  298POPC   NC3 3878  10.429   0.131   3.993
  298POPC   PO4 3879  10.254   9.937   3.943
  298POPC   GL1 3880  10.314  10.175   4.293
  298POPC   GL2 3881   9.973  10.244   4.278
  298POPC   C1A 3882  10.428  10.068   4.731
  298POPC   D2A 3883   0.048  10.127   5.153
  298POPC   C3A 3884  10.341  10.270   5.518
  298POPC   C4A 3885  10.368   9.901   5.796
  298POPC   C1B 3886   9.936   9.987   4.640
  298POPC   C2B 3887   9.995  10.136   5.055
  298POPC   C3B 3888   9.962   9.941   5.447
  298POPC   C4B 3889   9.905  10.128   5.839
  299POPC   NC3 3890   0.977   9.516   3.808
  299POPC   PO4 3891   0.767   8.945   3.940
  299POPC   GL1 3892   0.918   9.192   4.285
  299POPC   GL2 3893   1.199   9.406   4.282
  299POPC   C1A 3894   1.055   9.206   4.723
  299POPC   D2A 3895   1.334   9.127   5.063
  299POPC   C3A 3896   1.134   9.281   5.408
  299POPC   C4A 3897   1.049   9.096   5.788
  299POPC   C1B 3898   1.295   9.706   4.643
  299POPC   C2B 3899   1.293   9.919   5.062
  299POPC   C3B 3900   1.264   9.782   5.463
  299POPC   C4B 3901   1.270   9.549   5.828
  300POPC   NC3 3902   8.057   0.423   3.859
  300POPC   PO4 3903   8.544   0.033   3.913
  300POPC   GL1 3904   8.444   0.339   4.254
  300POPC   GL2 3905   8.183   0.604   4.323
  300POPC   C1A 3906   8.278   0.231   4.674
  300POPC   D2A 3907   8.192   0.450   5.056
  300POPC   C3A 3908   8.299   0.227   5.416
  300POPC   C4A 3909   8.096   0.057   5.760
  300POPC   C1B 3910   7.848   0.540   4.661
  300POPC   C2B 3911   7.695   0.371   5.074
  300POPC   C3B 3912   7.839   0.421   5.477
  300POPC   C4B 3913   7.890   0.785   5.747
  301POPC   NC3 3914   4.060   8.795   3.807
  301POPC   PO4 3915   4.422   8.272   3.689
  301POPC   GL1 3916   4.339   8.433   4.136
  301POPC   GL2 3917   4.091   8.633   4.277
  301POPC   C1A 3918   4.477   8.544   4.584
  301POPC   D2A 3919   4.331   8.702   4.985
  301POPC   C3A 3920   4.385   8.534   5.408
  301POPC   C4A 3921   4.321   8.790   5.723
  301POPC   C1B 3922   3.955   8.818   4.652
  301POPC   C2B 3923   3.800   8.587   5.006
  301POPC   C3B 3924   3.901   8.688   5.420
  301POPC   C4B 3925   3.897   8.470   5.821
  302POPC   NC3 3926  10.046   3.589   3.955
  302POPC   PO4 3927   0.172   3.405   3.802
  302POPC   GL1 3928  10.465   3.425   4.273
  302POPC   GL2 3929  10.093   3.371   4.411
  302POPC   C1A 3930  10.427   3.623   4.730
  302POPC   D2A 3931  10.251   3.508   5.160
  302POPC   C3A 3932  10.347   3.665   5.572
  302POPC   C4A 3933  10.454   3.378   5.947
  302POPC   C1B 3934   9.909   3.701   4.714
  302POPC   C2B 3935   9.999   3.934   5.095
  302POPC   C3B 3936   9.842   3.752   5.472
  302POPC   C4B 3937   9.952   3.343   5.629
  303POPC   NC3 3938   0.896   6.365   3.742
  303POPC   PO4 3939   1.464   6.115   3.913
  303POPC   GL1 3940   1.345   6.357   4.258
  303POPC   GL2 3941   1.086   6.575   4.191
  303POPC   C1A 3942   1.460   6.356   4.680
  303POPC   D2A 3943   1.330   6.109   5.017
  303POPC   C3A 3944   1.412   6.275   5.397
  303POPC   C4A 3945   1.362   6.082   5.777
  303POPC   C1B 3946   0.977   6.544   4.660
  303POPC   C2B 3947   0.998   6.483   5.140
  303POPC   C3B 3948   0.986   6.494   5.628
  303POPC   C4B 3949   0.804   6.616   6.057
  304POPC   NC3 3950   9.958   5.949   4.026
  304POPC   PO4 3951   0.045   5.635   3.757
  304POPC   GL1 3952  10.356   5.548   4.234
  304POPC   GL2 3953  10.028   5.506   4.280
  304POPC   C1A 3954  10.233   5.719   4.690
  304POPC   D2A 3955   0.027   5.828   5.000
  304POPC   C3A 3956  10.368   5.638   5.357
  304POPC   C4A 3957   0.004   5.560   5.747
  304POPC   C1B 3958   9.787   5.433   4.681
  304POPC   C2B 3959   9.926   5.492   5.093
  304POPC   C3B 3960   9.833   5.591   5.500
  304POPC   C4B 3961  10.073   5.867   5.695
  305POPC   NC3 3962   8.390   4.835   3.942
  305POPC   PO4 3963   9.074   4.769   4.019
  305POPC   GL1 3964   8.781   4.693   4.328
  305POPC   GL2 3965   8.743   5.050   4.341
  305POPC   C1A 3966   8.873   4.626   4.768
  305POPC   D2A 3967   8.752   4.805   5.182
  305POPC   C3A 3968   8.785   4.791   5.619
  305POPC   C4A 3969   8.973   4.530   5.893
  305POPC   C1B 3970   8.559   5.010   4.756
  305POPC   C2B 3971   8.423   5.194   5.166
  305POPC   C3B 3972   8.334   5.010   5.549
  305POPC   C4B 3973   8.398   5.138   5.966
  306POPC   NC3 3974   1.027   2.955   3.725
  306POPC   PO4 3975   0.888   2.322   4.087
  306POPC   GL1 3976   0.971   2.377   4.432
  306POPC   GL2 3977   1.282   2.461   4.501
  306POPC   C1A 3978   0.810   2.475   4.776
  306POPC   D2A 3979   0.873   2.749   5.062
  306POPC   C3A 3980   1.049   2.637   5.430
  306POPC   C4A 3981   0.819   2.371   5.638
  306POPC   C1B 3982   1.312   2.526   4.946
  306POPC   C2B 3983   1.385   2.912   5.112
  306POPC   C3B 3984   1.364   3.029   5.511
  306POPC   C4B 3985   1.295   2.933   5.929
  307POPC   NC3 3986   8.018   8.128   3.871
  307POPC   PO4 3987   7.638   7.509   3.937
  307POPC   GL1 3988   8.003   7.707   4.191
  307POPC   GL2 3989   7.896   7.995   4.339
  307POPC   C1A 3990   8.156   7.715   4.664
  307POPC   D2A 3991   7.993   7.604   5.057
  307POPC   C3A 3992   8.146   7.813   5.434
  307POPC   C4A 3993   8.297   7.859   5.866
  307POPC   C1B 3994   7.709   7.993   4.761
  307POPC   C2B 3995   7.652   7.965   5.185
  307POPC   C3B 3996   7.654   7.802   5.575
  307POPC   C4B 3997   7.841   8.089   5.763
  308POPC   NC3 3998   4.360   7.860   3.863
  308POPC   PO4 3999   3.859   8.396   3.875
  308POPC   GL1 4000   3.902   8.146   4.236
  308POPC   GL2 4001   4.071   7.816   4.265
  308POPC   C1A 4002   4.022   8.274   4.649
  308POPC   D2A 4003   4.199   8.224   5.047
  308POPC   C3A 4004   4.055   8.153   5.457
  308POPC   C4A 4005   4.173   8.057   5.919
  308POPC   C1B 4006   4.222   7.800   4.709
  308POPC   C2B 4007   4.283   7.719   5.131
  308POPC   C3B 4008   4.329   7.736   5.561
  308POPC   C4B 4009   3.964   7.507   5.751
  309POPC   NC3 4010   0.832  10.219   3.869
  309POPC   PO4 4011   1.285   9.799   3.982
  309POPC   GL1 4012   1.047  10.015   4.291
  309POPC   GL2 4013   1.014  10.412   4.324
  309POPC   C1A 4014   0.952  10.075   4.710
  309POPC   D2A 4015   0.830  10.156   5.108
  309POPC   C3A 4016   0.767   9.844   5.414
  309POPC   C4A 4017   0.893   9.872   5.811
  309POPC   C1B 4018   0.943   0.078   4.773
  309POPC   C2B 4019   1.141   0.068   5.203
  309POPC   C3B 4020   1.091  10.263   5.546
  309POPC   C4B 4021   1.347  10.109   5.902
  310POPC   NC3 4022   3.400   8.812   3.874
  310POPC   PO4 4023   3.239   8.292   3.600
  310POPC   GL1 4024   3.426   8.384   4.135
  310POPC   GL2 4025   3.589   8.703   4.314
  310POPC   C1A 4026   3.512   8.283   4.580
  310POPC   D2A 4027   3.345   8.269   5.014
  310POPC   C3A 4028   3.550   8.326   5.388
  310POPC   C4A 4029   3.367   8.404   5.776
  310POPC   C1B 4030   3.387   8.741   4.729
  310POPC   C2B 4031   3.305   8.778   5.147
  310POPC   C3B 4032   3.313   9.016   5.468
  310POPC   C4B 4033   3.573   8.868   5.775
  311POPC   NC3 4034   8.627   2.933   3.976
  311POPC   PO4 4035   8.994   2.479   3.821
  311POPC   GL1 4036   8.838   2.329   4.193
  311POPC   GL2 4037   8.548   2.531   4.292
  311POPC   C1A 4038   8.898   2.351   4.637
  311POPC   D2A 4039   9.075   2.529   5.027
  311POPC   C3A 4040   8.918   2.460   5.460
  311POPC   C4A 4041   8.818   2.485   5.926
  311POPC   C1B 4042   8.618   2.771   4.688
  311POPC   C2B 4043   8.571   2.675   5.136
  311POPC   C3B 4044   8.600   2.841   5.557
  311POPC   C4B 4045   8.354   2.896   5.881
  312POPC   NC3 4046   8.897   2.002   3.739
  312POPC   PO4 4047   8.323   1.544   3.902
  312POPC   GL1 4048   8.314   1.841   4.266
  312POPC   GL2 4049   8.689   1.849   4.325
  312POPC   C1A 4050   8.396   2.131   4.641
  312POPC   D2A 4051   8.625   2.169   5.034
  312POPC   C3A 4052   8.415   2.022   5.388
  312POPC   C4A 4053   8.443   2.358   5.631
  312POPC   C1B 4054   8.931   1.830   4.727
  312POPC   C2B 4055   8.924   1.788   5.192
  312POPC   C3B 4056   8.873   1.945   5.584
  312POPC   C4B 4057   8.960   1.741   5.941
  313POPC   NC3 4058   7.893   4.215   4.067
  313POPC   PO4 4059   8.444   4.443   3.703
  313POPC   GL1 4060   8.366   4.399   4.176
  313POPC   GL2 4061   8.595   4.175   4.275
  313POPC   C1A 4062   8.410   4.455   4.652
  313POPC   D2A 4063   8.599   4.310   5.053
  313POPC   C3A 4064   8.473   4.431   5.464
  313POPC   C4A 4065   8.450   4.177   5.798
  313POPC   C1B 4066   8.886   4.128   4.626
  313POPC   C2B 4067   8.990   3.990   5.041
  313POPC   C3B 4068   8.917   4.184   5.466
  313POPC   C4B 4069   8.985   4.019   5.830
  314POPC   NC3 4070   3.565   8.033   3.806
  314POPC   PO4 4071   2.976   8.192   4.084
  314POPC   GL1 4072   3.137   7.839   4.253
  314POPC   GL2 4073   3.477   7.834   4.253
  314POPC   C1A 4074   3.244   7.873   4.709
  314POPC   D2A 4075   3.294   7.754   5.135
  314POPC   C3A 4076   3.261   7.937   5.545
  314POPC   C4A 4077   2.963   8.081   5.819
  314POPC   C1B 4078   3.730   7.833   4.615
  314POPC   C2B 4079   3.765   7.961   5.016
  314POPC   C3B 4080   3.726   7.774   5.403
  314POPC   C4B 4081   3.699   7.999   5.796
  315POPC   NC3 4082   2.814   8.020   3.698
  315POPC   PO4 4083   2.315   8.453   3.886
  315POPC   GL1 4084   2.492   8.255   4.255
  315POPC   GL2 4085   2.576   7.890   4.193
  315POPC   C1A 4086   2.465   8.183   4.694
  315POPC   D2A 4087   2.442   8.303   5.114
  315POPC   C3A 4088   2.438   8.107   5.454
  315POPC   C4A 4089   2.203   8.030   5.785
  315POPC   C1B 4090   2.765   7.783   4.597
  315POPC   C2B 4091   2.860   8.000   5.002
  315POPC   C3B 4092   2.816   7.801   5.375
  315POPC   C4B 4093   2.611   7.729   5.756
  316POPC   NC3 4094   0.342   2.987   3.893
  316POPC   PO4 4095   0.719   2.577   3.668
  316POPC   GL1 4096   0.739   2.786   4.139
  316POPC   GL2 4097   0.439   2.616   4.281
  316POPC   C1A 4098   0.648   2.923   4.592
  316POPC   D2A 4099   0.391   2.909   4.989
  316POPC   C3A 4100   0.503   2.885   5.413
  316POPC   C4A 4101   0.619   2.788   5.824
  316POPC   C1B 4102   0.303   2.474   4.711
  316POPC   C2B 4103   0.458   2.406   5.167
  316POPC   C3B 4104   0.301   2.462   5.601
  316POPC   C4B 4105   0.177   2.513   6.039
  317POPC   NC3 4106   2.004   2.737   3.874
  317POPC   PO4 4107   1.536   2.226   4.062
  317POPC   GL1 4108   1.712   2.573   4.264
  317POPC   GL2 4109   2.056   2.587   4.344
  317POPC   C1A 4110   1.712   2.706   4.698
  317POPC   D2A 4111   1.811   2.555   5.112
  317POPC   C3A 4112   1.589   2.550   5.496
  317POPC   C4A 4113   1.761   2.862   5.773
  317POPC   C1B 4114   2.158   2.429   4.734
  317POPC   C2B 4115   2.313   2.609   5.118
  317POPC   C3B 4116   2.152   2.606   5.538
  317POPC   C4B 4117   2.055   2.474   5.954
  318POPC   NC3 4118  10.230   1.898   3.838
  318POPC   PO4 4119   0.040   2.543   3.960
  318POPC   GL1 4120   0.033   2.082   4.230
  318POPC   GL2 4121  10.217   1.842   4.371
  318POPC   C1A 4122   0.090   1.979   4.710
  318POPC   D2A 4123  10.452   1.767   5.113
  318POPC   C3A 4124  10.250   2.002   5.469
  318POPC   C4A 4125  10.295   2.410   5.681
  318POPC   C1B 4126  10.036   1.821   4.812
  318POPC   C2B 4127   9.833   2.043   5.174
  318POPC   C3B 4128   9.754   2.048   5.641
  318POPC   C4B 4129   9.941   1.890   6.012
  319POPC   NC3 4130   7.783   6.248   3.968
  319POPC   PO4 4131   7.973   6.881   3.664
  319POPC   GL1 4132   8.187   6.775   4.201
  319POPC   GL2 4133   8.108   6.450   4.316
  319POPC   C1A 4134   8.017   6.836   4.648
  319POPC   D2A 4135   7.952   6.568   5.001
  319POPC   C3A 4136   8.137   6.620   5.416
  319POPC   C4A 4137   7.919   6.793   5.792
  319POPC   C1B 4138   8.011   6.170   4.650
  319POPC   C2B 4139   7.933   6.079   5.094
  319POPC   C3B 4140   8.175   6.066   5.474
  319POPC   C4B 4141   8.038   6.288   5.841
  320POPC   NC3 4142   5.045  10.261   3.835
  320POPC   PO4 4143   4.450   0.115   3.911
  320POPC   GL1 4144   4.600  10.379   4.302
  320POPC   GL2 4145   4.967  10.333   4.349
  320POPC   C1A 4146   4.669  10.485   4.753
  320POPC   D2A 4147   4.951  10.443   5.097
  320POPC   C3A 4148   4.802  10.168   5.428
  320POPC   C4A 4149   4.607  10.174   5.843
  320POPC   C1B 4150   4.877  10.032   4.700
  320POPC   C2B 4151   5.045   9.822   5.063
  320POPC   C3B 4152   5.204   9.797   5.494
  320POPC   C4B 4153   5.047   9.911   5.895
  321POPC   NC3 4154   7.677   2.751   3.720
  321POPC   PO4 4155   8.205   3.092   3.879
  321POPC   GL1 4156   8.126   2.932   4.275
  321POPC   GL2 4157   7.836   2.710   4.221
  321POPC   C1A 4158   8.145   2.635   4.626
  321POPC   D2A 4159   8.064   2.515   5.031
  321POPC   C3A 4160   8.115   2.731   5.428
  321POPC   C4A 4161   7.837   2.853   5.802
  321POPC   C1B 4162   7.637   2.644   4.638
  321POPC   C2B 4163   7.532   2.434   5.019
  321POPC   C3B 4164   7.616   2.597   5.420
  321POPC   C4B 4165   7.495   2.430   5.800
  322POPC   NC3 4166   3.768   2.832   3.942
  322POPC   PO4 4167   3.222   2.582   4.007
  322POPC   GL1 4168   3.451   2.453   4.410
  322POPC   GL2 4169   3.749   2.679   4.414
  322POPC   C1A 4170   3.762   2.318   4.744
  322POPC   D2A 4171   3.926   2.648   5.002
  322POPC   C3A 4172   3.661   2.706   5.384
  322POPC   C4A 4173   3.436   2.389   5.658
  322POPC   C1B 4174   3.406   2.908   4.626
  322POPC   C2B 4175   3.276   3.055   5.027
  322POPC   C3B 4176   3.064   3.090   5.419
  322POPC   C4B 4177   3.273   2.895   5.731
  323POPC   NC3 4178   1.140   3.719   3.921
  323POPC   PO4 4179   1.407   4.431   3.884
  323POPC   GL1 4180   1.154   4.225   4.215
  323POPC   GL2 4181   0.961   3.939   4.350
  323POPC   C1A 4182   1.333   4.337   4.599
  323POPC   D2A 4183   1.219   4.528   4.980
  323POPC   C3A 4184   1.187   4.320   5.372
  323POPC   C4A 4185   1.127   4.431   5.789
  323POPC   C1B 4186   0.876   4.196   4.726
  323POPC   C2B 4187   1.207   4.005   4.977
  323POPC   C3B 4188   1.479   3.893   5.327
  323POPC   C4B 4189   1.275   3.943   5.739
  324POPC   NC3 4190   9.177   8.512   3.885
  324POPC   PO4 4191   9.706   9.065   4.210
  324POPC   GL1 4192   9.446   8.763   4.390
  324POPC   GL2 4193   9.420   8.406   4.299
  324POPC   C1A 4194   9.383   8.894   4.763
  324POPC   D2A 4195   9.637   9.023   5.068
  324POPC   C3A 4196   9.376   8.898   5.379
  324POPC   C4A 4197   9.294   8.974   5.755
  324POPC   C1B 4198   9.361   8.366   4.697
  324POPC   C2B 4199   9.518   8.503   5.059
  324POPC   C3B 4200   9.427   8.387   5.463
  324POPC   C4B 4201   9.327   8.472   5.853
  325POPC   NC3 4202   5.632   1.272   3.821
  325POPC   PO4 4203   5.210   1.067   4.235
  325POPC   GL1 4204   5.627   1.003   4.324
  325POPC   GL2 4205   5.891   1.234   4.283
  325POPC   C1A 4206   5.780   0.969   4.736
  325POPC   D2A 4207   5.989   1.270   5.025
  325POPC   C3A 4208   5.829   1.260   5.459
  325POPC   C4A 4209   5.919   1.001   5.883
  325POPC   C1B 4210   5.596   1.432   4.613
  325POPC   C2B 4211   5.455   1.287   5.037
  325POPC   C3B 4212   5.325   1.102   5.458
  325POPC   C4B 4213   5.500   1.292   5.837
  326POPC   NC3 4214  10.387   1.123   3.870
  326POPC   PO4 4215   0.191   1.737   3.789
  326POPC   GL1 4216   0.021   1.483   4.204
  326POPC   GL2 4217  10.244   1.196   4.331
  326POPC   C1A 4218  10.415   1.489   4.679
  326POPC   D2A 4219  10.302   1.262   5.045
  326POPC   C3A 4220  10.096   1.490   5.348
  326POPC   C4A 4221  10.251   1.581   5.756
  326POPC   C1B 4222  10.195   0.919   4.683
  326POPC   C2B 4223  10.197   0.682   5.084
  326POPC   C3B 4224  10.058   0.770   5.495
  326POPC   C4B 4225  10.153   1.094   5.756
  327POPC   NC3 4226   1.095   1.908   4.032
  327POPC   PO4 4227   1.649   1.410   4.104
  327POPC   GL1 4228   1.628   1.696   4.427
  327POPC   GL2 4229   1.364   1.923   4.445
  327POPC   C1A 4230   1.545   1.645   4.854
  327POPC   D2A 4231   1.246   1.750   5.175
  327POPC   C3A 4232   1.328   2.063   5.509
  327POPC   C4A 4233   1.408   1.721   5.768
  327POPC   C1B 4234   1.163   2.074   4.795
  327POPC   C2B 4235   0.942   2.175   5.165
  327POPC   C3B 4236   0.845   1.896   5.480
  327POPC   C4B 4237   1.001   1.980   5.906
  328POPC   NC3 4238   9.285   3.606   3.901
  328POPC   PO4 4239   9.739   3.140   3.915
  328POPC   GL1 4240   9.510   3.068   4.299
  328POPC   GL2 4241   9.228   3.300   4.308
  328POPC   C1A 4242   9.562   3.274   4.705
  328POPC   D2A 4243   9.752   3.336   5.120
  328POPC   C3A 4244   9.491   3.202   5.465
  328POPC   C4A 4245   9.596   3.045   5.874
  328POPC   C1B 4246   9.110   3.582   4.637
  328POPC   C2B 4247   8.987   3.469   5.053
  328POPC   C3B 4248   8.989   3.643   5.439
  328POPC   C4B 4249   9.260   3.556   5.745
  329POPC   NC3 4250   9.413   2.282   3.868
  329POPC   PO4 4251   9.086   1.677   4.030
  329POPC   GL1 4252   9.253   2.019   4.270
  329POPC   GL2 4253   9.626   1.986   4.253
  329POPC   C1A 4254   9.378   2.203   4.661
  329POPC   D2A 4255   9.339   2.013   5.033
  329POPC   C3A 4256   9.335   2.199   5.398
  329POPC   C4A 4257   9.244   2.207   5.814
  329POPC   C1B 4258   9.550   1.725   4.659
  329POPC   C2B 4259   9.598   1.580   5.135
  329POPC   C3B 4260   9.347   1.712   5.532
  329POPC   C4B 4261   9.446   1.773   6.028
  330POPC   NC3 4262   0.345   7.119   3.828
  330POPC   PO4 4263   0.035   6.523   3.717
  330POPC   GL1 4264   0.135   6.842   4.167
  330POPC   GL2 4265   0.363   7.157   4.329
  330POPC   C1A 4266   0.195   6.775   4.628
  330POPC   D2A 4267   0.374   6.982   5.003
  330POPC   C3A 4268   0.188   7.130   5.395
  330POPC   C4A 4269   0.386   7.073   5.801
  330POPC   C1B 4270   0.672   7.274   4.687
  330POPC   C2B 4271   0.874   7.365   5.079
  330POPC   C3B 4272   0.668   7.369   5.471
  330POPC   C4B 4273   0.661   7.505   5.884
  331POPC   NC3 4274   1.487   4.975   3.851
  331POPC   PO4 4275   2.107   4.756   3.984
  331POPC   GL1 4276   2.039   4.983   4.344
  331POPC   GL2 4277   1.707   4.949   4.317
  331POPC   C1A 4278   1.953   5.069   4.789
  331POPC   D2A 4279   1.986   5.332   5.121
  331POPC   C3A 4280   2.222   5.253   5.488
  331POPC   C4A 4281   2.031   5.068   5.856
  331POPC   C1B 4282   1.738   4.634   4.662
  331POPC   C2B 4283   1.637   4.791   5.085
  331POPC   C3B 4284   1.889   4.868   5.395
  331POPC   C4B 4285   2.196   4.654   5.591
  332POPC   NC3 4286   1.107   7.956   3.972
  332POPC   PO4 4287   0.669   7.435   3.974
  332POPC   GL1 4288   0.761   7.770   4.305
  332POPC   GL2 4289   1.081   7.944   4.450
  332POPC   C1A 4290   0.755   7.772   4.758
  332POPC   D2A 4291   1.023   7.975   5.025
  332POPC   C3A 4292   0.913   7.801   5.382
  332POPC   C4A 4293   1.061   7.816   5.770
  332POPC   C1B 4294   1.482   7.991   4.623
  332POPC   C2B 4295   1.549   8.083   5.045
  332POPC   C3B 4296   1.360   8.054   5.444
  332POPC   C4B 4297   1.354   8.241   5.862
  333POPC   NC3 4298  10.073   6.486   3.774
  333POPC   PO4 4299  10.386   6.037   4.155
  333POPC   GL1 4300  10.124   6.282   4.383
  333POPC   GL2 4301  10.220   6.579   4.255
  333POPC   C1A 4302  10.073   6.270   4.811
  333POPC   D2A 4303  10.072   6.014   5.175
  333POPC   C3A 4304  10.431   6.149   5.407
  333POPC   C4A 4305  10.301   6.299   5.763
  333POPC   C1B 4306  10.168   6.774   4.662
  333POPC   C2B 4307  10.004   6.724   5.081
  333POPC   C3B 4308  10.188   6.679   5.453
  333POPC   C4B 4309  10.462   6.787   5.780
  334POPC   NC3 4310   3.366   3.619   3.825
  334POPC   PO4 4311   3.920   3.294   3.921
  334POPC   GL1 4312   3.628   3.224   4.271
  334POPC   GL2 4313   3.279   3.393   4.277
  334POPC   C1A 4314   3.583   3.381   4.712
  334POPC   D2A 4315   3.470   3.534   5.118
  334POPC   C3A 4316   3.543   3.229   5.437
  334POPC   C4A 4317   3.645   3.226   5.861
  334POPC   C1B 4318   3.052   3.366   4.678
  334POPC   C2B 4319   2.929   3.473   5.113
  334POPC   C3B 4320   3.148   3.596   5.511
  334POPC   C4B 4321   3.586   3.698   5.636
  335POPC   NC3 4322  10.347   5.211   3.860
  335POPC   PO4 4323  10.309   4.427   3.847
  335POPC   GL1 4324  10.307   4.663   4.234
  335POPC   GL2 4325  10.245   5.006   4.291
  335POPC   C1A 4326  10.181   4.652   4.667
  335POPC   D2A 4327  10.100   4.452   5.044
  335POPC   C3A 4328  10.143   4.657   5.405
  335POPC   C4A 4329   9.953   4.778   5.767
  335POPC   C1B 4330  10.208   5.174   4.657
  335POPC   C2B 4331  10.103   5.021   5.055
  335POPC   C3B 4332  10.269   5.140   5.444
  335POPC   C4B 4333  10.107   5.272   5.788
  336POPC   NC3 4334   6.264   1.222   3.917
  336POPC   PO4 4335   6.766   1.568   3.892
  336POPC   GL1 4336   6.537   1.454   4.286
  336POPC   GL2 4337   6.541   1.053   4.305
  336POPC   C1A 4338   6.640   1.323   4.724
  336POPC   D2A 4339   6.578   1.036   5.057
  336POPC   C3A 4340   6.637   1.279   5.428
  336POPC   C4A 4341   6.657   1.078   5.863
  336POPC   C1B 4342   6.277   0.888   4.641
  336POPC   C2B 4343   6.120   0.764   5.069
  336POPC   C3B 4344   6.239   0.953   5.464
  336POPC   C4B 4345   6.249   1.348   5.740
  337POPC   NC3 4346   2.386   9.670   3.738
  337POPC   PO4 4347   2.751   9.123   3.869
  337POPC   GL1 4348   2.789   9.479   4.294
  337POPC   GL2 4349   2.889   9.233   4.492
  337POPC   C1A 4350   2.745   9.640   4.735
  337POPC   D2A 4351   2.918   9.806   5.111
  337POPC   C3A 4352   2.679   9.578   5.426
  337POPC   C4A 4353   2.515   9.677   5.817
  337POPC   C1B 4354   2.944   8.975   4.825
  337POPC   C2B 4355   2.802   8.970   5.241
  337POPC   C3B 4356   2.615   9.103   5.594
  337POPC   C4B 4357   2.946   9.239   5.796
  338POPC   NC3 4358   6.483   2.580   3.634
  338POPC   PO4 4359   6.422   3.094   4.035
  338POPC   GL1 4360   6.462   2.948   4.434
  338POPC   GL2 4361   6.416   2.608   4.348
  338POPC   C1A 4362   6.478   2.930   4.887
  338POPC   D2A 4363   6.190   2.655   5.125
  338POPC   C3A 4364   6.183   2.787   5.559
  338POPC   C4A 4365   6.452   2.917   5.958
  338POPC   C1B 4366   6.608   2.482   4.696
  338POPC   C2B 4367   6.589   2.339   5.098
  338POPC   C3B 4368   6.627   2.579   5.446
  338POPC   C4B 4369   6.533   2.441   5.853
  339POPC   NC3 4370   1.343   1.039   3.624
  339POPC   PO4 4371   1.308   0.504   4.101
  339POPC   GL1 4372   1.154   0.438   4.471
  339POPC   GL2 4373   1.389   0.195   4.559
  339POPC   C1A 4374   0.996   0.700   4.798
  339POPC   D2A 4375   1.053   0.855   5.233
  339POPC   C3A 4376   1.027   0.546   5.558
  339POPC   C4A 4377   0.766   0.169   5.577
  339POPC   C1B 4378   1.487   0.553   4.843
  339POPC   C2B 4379   1.550   0.742   5.248
  339POPC   C3B 4380   1.540   0.545   5.629
  339POPC   C4B 4381   1.443   0.098   5.687
  340POPC   NC3 4382   1.887   1.795   3.991
  340POPC   PO4 4383   2.320   2.371   3.914
  340POPC   GL1 4384   2.220   2.078   4.283
  340POPC   GL2 4385   1.911   2.111   4.374
  340POPC   C1A 4386   2.151   1.916   4.756
  340POPC   D2A 4387   2.142   2.124   5.175
  340POPC   C3A 4388   2.281   1.897   5.553
  340POPC   C4A 4389   2.272   1.909   6.010
  340POPC   C1B 4390   1.684   2.203   4.714
  340POPC   C2B 4391   1.607   2.096   5.085
  340POPC   C3B 4392   1.764   1.815   5.369
  340POPC   C4B 4393   1.844   2.046   5.740
  341POPC   NC3 4394   8.440   6.741   3.797
  341POPC   PO4 4395   9.076   6.813   3.851
  341POPC   GL1 4396   8.947   6.987   4.284
  341POPC   GL2 4397   8.790   7.271   4.404
  341POPC   C1A 4398   8.540   6.841   4.517
  341POPC   D2A 4399   8.413   6.757   4.946
  341POPC   C3A 4400   8.474   7.000   5.296
  341POPC   C4A 4401   8.426   6.958   5.746
  341POPC   C1B 4402   8.828   7.097   4.809
  341POPC   C2B 4403   8.999   7.094   5.133
  341POPC   C3B 4404   8.919   7.314   5.420
  341POPC   C4B 4405   8.879   7.190   5.796
  342W        W 4406   1.306   4.695  10.440
  343W        W 4407   6.566   2.877   1.432
  344W        W 4408   6.535   8.610   9.109
  345W        W 4409   2.639   8.757  11.385
  346W        W 4410   6.237   6.134   1.311
  347W        W 4411   8.630   1.938   1.232
  348W        W 4412   3.766   7.517  11.549
  349W        W 4413   3.838   1.822   1.736
  350W        W 4414   6.955   3.256   0.066
  351W        W 4415   3.723   7.488   2.326
  352W        W 4416   7.526   7.390   3.120
  353W        W 4417   7.255   2.905  10.960
  354W        W 4418   6.620   6.069   2.525
  355W        W 4419  10.433   4.068   2.314
  356W        W 4420   0.731   2.891  11.582
  357W        W 4421   2.102   0.968  11.411
  358W        W 4422   0.775   2.562   8.769
  359W        W 4423   3.831   2.356  10.512
  360W        W 4424   7.594   0.752  11.937
  361W        W 4425   7.980   6.278  10.352
  362W        W 4426   9.611   5.020   1.962
  363W        W 4427   2.648   7.901   2.224
  364W        W 4428   3.759   6.443  10.485
  365W        W 4429   3.611   8.914   2.288
  366W        W 4430   5.590   9.698   1.315
  367W        W 4431   2.546   8.923   9.212
  368W        W 4432   4.953   4.810   1.658
  369W        W 4433   6.100   8.025   0.886
  370W        W 4434   9.182   3.306   9.404
  371W        W 4435  10.273   4.669   1.615
  372W        W 4436   8.468   9.345   3.167
  373W        W 4437   9.801   1.698  10.522
  374W        W 4438   4.635   4.389  10.874
  375W        W 4439   2.849   9.547   0.889
  376W        W 4440   3.923   8.623  11.475
  377W        W 4441  10.434   0.170   9.887
  378W        W 4442   8.559   8.337  10.396
  379W        W 4443   2.371   4.454   3.652
  380W        W 4444   3.350   9.671   0.982
  381W        W 4445   1.137   4.469   1.799
  382W        W 4446   6.128   8.581  10.963
  383W        W 4447   1.672   6.043   3.436
  384W        W 4448   1.525   9.232   0.396
  385W        W 4449   0.491   1.168   3.098
  386W        W 4450   2.180   7.847  11.041
  387W        W 4451   6.781   9.043  10.328
  388W        W 4452   3.058   7.712  11.944
  389W        W 4453   6.101   7.785  10.625
  390W        W 4454   2.602   5.267   2.833
  391W        W 4455   6.641   8.447  11.092
  392W        W 4456   8.965   9.476   3.086
  393W        W 4457   4.636  10.261   0.045
  394W        W 4458   7.362   5.964   3.921
  395W        W 4459   3.552   4.101   2.658
  396W        W 4460   1.538   9.673   3.522
  397W        W 4461  10.210   9.568   0.171
  398W        W 4462   3.763   7.718   9.997
  399W        W 4463   7.543  10.489   1.340
  400W        W 4464   5.112   4.572   8.232
  401W        W 4465   0.306   9.556  10.115
  402W        W 4466   9.698   9.479   2.485
  403W        W 4467   6.042   3.980   1.259
  404W        W 4468   7.199   1.308  10.343
  405W        W 4469   8.394   7.662   0.763
  406W        W 4470   3.795   0.259  10.064
  407W        W 4471   9.337   4.448   3.071
  408W        W 4472   2.362   3.252   9.339
  409W        W 4473   7.905   4.489  10.884
  410W        W 4474   7.838   7.638   3.488
  411W        W 4475   5.645   6.992   0.412
  412W        W 4476   9.066   9.166   2.161
  413W        W 4477   5.617   7.294   1.849
  414W        W 4478   8.423   6.243   8.599
  415W        W 4479   1.095   9.230   9.641
  416W        W 4480   8.079  10.160  10.145
  417W        W 4481   1.942  10.473   3.258
  418W        W 4482   7.911   0.953   2.292
  419W        W 4483   6.852   4.673   0.042
  420W        W 4484   8.872   3.479   2.343
  421W        W 4485   1.684   2.040   2.290
  422W        W 4486   9.678   8.361   0.800
  423W        W 4487   5.444   7.478  10.000
  424W        W 4488   1.267   7.444  10.977
  425W        W 4489   6.049   4.759  11.451
  426W        W 4490   0.928   9.552   0.422
  427W        W 4491   1.360   9.869   2.405
  428W        W 4492   4.126   4.503   0.206
  429W        W 4493   4.046   9.467   9.939
  430W        W 4494   4.812   3.211  10.293
  431W        W 4495   5.160   7.907   8.947
  432W        W 4496   6.035  10.000   2.682
  433W        W 4497   8.861   4.806  11.812
  434W        W 4498   0.856   7.531   3.115
  435W        W 4499   0.848   4.965   2.635
  436W        W 4500   4.388  10.402  10.004
  437W        W 4501   3.849   0.437  11.450
  438W        W 4502   0.030   7.014  11.333
  439W        W 4503   8.414   3.145   8.828
  440W        W 4504   3.614   6.411   3.665
  441W        W 4505   4.260   8.470   0.751
  442W        W 4506   4.261   8.836  11.102
  443W        W 4507   1.925   5.611   3.302
  444W        W 4508   7.590   8.601   1.223
  445W        W 4509   4.969   7.215   4.153
  446W        W 4510   6.435   9.796  11.495
  447W        W 4511   7.163   0.916   9.196
  448W        W 4512   4.790  10.461  10.579
  449W        W 4513   9.037   5.592   3.447
  450W        W 4514   1.688   6.628   9.345
  451W        W 4515   8.421   4.012   2.203
  452W        W 4516   9.014   6.549   1.451
  453W        W 4517   7.468   7.663   2.672
  454W        W 4518   7.019   6.005   3.138
  455W        W 4519   1.831   6.668  10.794
  456W        W 4520   8.708   3.404   0.074
  457W        W 4521   7.155   0.815   1.022
  458W        W 4522   1.915   5.273   9.126
  459W        W 4523   9.054   5.475  10.125
  460W        W 4524  10.248   5.015   0.728
  461W        W 4525   2.824   4.706   3.536
  462W        W 4526   1.003   7.011   1.304
  463W        W 4527   0.899   4.432  10.292
  464W        W 4528   6.973   4.907   0.965
  465W        W 4529   6.427   2.053   9.535
  466W        W 4530   7.502   0.507  11.306
  467W        W 4531   5.622   8.487  10.860
  468W        W 4532   3.769   7.101   9.126
  469W        W 4533  10.140   7.560  10.414
  470W        W 4534   9.326   1.855  10.388
  471W        W 4535   1.604   1.939   1.783
  472W        W 4536   7.038   3.121   3.042
  473W        W 4537   4.016   0.346   8.690
  474W        W 4538   4.756   4.902   8.436
  475W        W 4539   5.044   2.581   0.348
  476W        W 4540   6.696   6.685  11.908
  477W        W 4541   7.733   0.480   2.303
  478W        W 4542   4.527   9.678   8.536
  479W        W 4543   8.434   0.820   2.274
  480W        W 4544   5.273   9.149  11.961
  481W        W 4545   4.729   6.617  10.722
  482W        W 4546   6.735   3.096   0.989
  483W        W 4547   0.861   2.113   0.701
  484W        W 4548   8.333   7.579   3.329
  485W        W 4549   1.329  10.317   3.288
  486W        W 4550   6.522   6.937   3.210
  487W        W 4551   3.766   8.489   0.901
  488W        W 4552   5.715   8.457   2.698
  489W        W 4553   2.678   6.116   8.317
  490W        W 4554   3.695   8.689   3.486
  491W        W 4555   2.121   8.529   1.607
  492W        W 4556   7.274   6.495  10.724
  493W        W 4557   1.187   5.638   9.017
  494W        W 4558   7.730   6.839   9.323
  495W        W 4559   4.565   7.114  10.740
  496W        W 4560   5.415   3.681   8.218
  497W        W 4561   3.164   4.096   9.760
  498W        W 4562   8.997   1.316   9.772
  499W        W 4563   0.075   3.170   2.695
  500W        W 4564   6.014   4.788   2.481
  501W        W 4565   7.731   8.985  11.492
  502W        W 4566   4.108   2.599   9.447
  503W        W 4567  10.007   0.181  10.198
  504W        W 4568   7.572   0.150   3.337
  505W        W 4569   0.737   2.523  10.739
  506W        W 4570   3.211   6.735   2.467
  507W        W 4571   1.144   2.377   9.723
  508W        W 4572   4.093   6.249   1.971
  509W        W 4573   3.837   5.011  10.638
  510W        W 4574   9.236   2.775  11.354
  511W        W 4575   5.376   4.875   3.630
  512W        W 4576   8.581   9.886   1.679
  513W        W 4577   2.437   9.190   1.226
  514W        W 4578   4.503   4.562   9.992
  515W        W 4579   6.756   7.545   1.331
  516W        W 4580   4.628   9.287  11.573
  517W        W 4581   5.193   3.614   3.248
  518W        W 4582   8.913   6.010   0.860
  519W        W 4583   2.854   3.735   3.146
  520W        W 4584   6.924   4.347   3.935
  521W        W 4585   4.828   9.843  10.307
  522W        W 4586  10.370   6.058   8.847
  523W        W 4587   5.274   4.067   0.191
  524W        W 4588   9.491   4.258   0.738
  525W        W 4589   5.309   4.130  10.322
  526W        W 4590  10.244   4.272  10.107
  527W        W 4591   4.306  10.111   2.710
  528W        W 4592   2.597   1.479   3.100
  529W        W 4593   6.189   3.465   3.110
  530W        W 4594   6.944   0.342   1.986
  531W        W 4595   2.792   1.414   1.029
  532W        W 4596   5.991   3.139   8.865
  533W        W 4597   3.150   2.208   9.532
  534W        W 4598   9.126   4.174   9.573
  535W        W 4599   8.464   2.450   0.396
  536W        W 4600   5.695   5.468   9.453
  537W        W 4601   2.605   1.560   9.039
  538W        W 4602   8.908   4.291  10.530
  539W        W 4603   2.213   9.950   9.019
  540W        W 4604   5.769   7.164  11.901
  541W        W 4605   8.469   3.864   2.773
  542W        W 4606  10.202   9.559   2.425
  543W        W 4607   9.326   5.095  11.017
  544W        W 4608   7.927   6.427   2.267
  545W        W 4609   6.940   4.741   9.796
  546W        W 4610   1.271   5.135   2.349
  547W        W 4611   9.653   0.443  10.460
  548W        W 4612   9.808   0.366   1.238
  549W        W 4613   4.800   1.780   1.936
  550W        W 4614   5.321   7.370   0.299
  551W        W 4615   0.534   4.003  11.396
  552W        W 4616   8.076   5.567   3.482
  553W        W 4617   4.236   8.272  11.172
  554W        W 4618   4.750   9.859   2.696
  555W        W 4619   1.355   9.791   1.395
  556W        W 4620  10.389   1.204   1.409
  557W        W 4621   7.923   5.452   9.372
  558W        W 4622   3.874   0.675   9.771
  559W        W 4623   0.498   0.824   2.736
  560W        W 4624   3.779   9.529   0.647
  561W        W 4625   1.584   1.974  10.992
  562W        W 4626   5.467   2.619   9.248
  563W        W 4627   3.505   3.380   0.367
  564W        W 4628   4.028   8.236  10.278
  565W        W 4629   9.084   1.373   8.955
  566W        W 4630   8.055   6.251  11.717
  567W        W 4631   8.102   4.626  10.441
  568W        W 4632   3.251   0.901   8.726
  569W        W 4633   2.330   8.203   1.296
  570W        W 4634   0.685   6.073   3.283
  571W        W 4635   3.549   6.779   3.267
  572W        W 4636   8.237   3.411   0.258
  573W        W 4637   3.041   0.110   0.944
  574W        W 4638   2.619  10.261   8.865
  575W        W 4639   3.755   1.409   1.417
  576W        W 4640   2.066   5.086   9.745
  577W        W 4641   4.253   0.229  11.749
  578W        W 4642   9.921   4.881  10.074
  579W        W 4643   5.447   1.295  10.024
  580W        W 4644   9.875   8.579   9.526
  581W        W 4645   0.738   4.047   9.965
  582W        W 4646   9.319   0.471   9.562
  583W        W 4647   3.936   5.942   3.218
  584W        W 4648  10.210   7.317   8.524
  585W        W 4649   5.187   8.232   1.462
  586W        W 4650   7.064   1.548  10.809
  587W        W 4651  10.342   1.599   2.918
  588W        W 4652   2.290   2.669   0.667
  589W        W 4653  10.351   9.404   8.986
  590W        W 4654   1.746   3.328  11.492
  591W        W 4655   7.859   9.338   2.108
  592W        W 4656   9.955   3.755   1.144
  593W        W 4657   1.242   0.038  10.311
  594W        W 4658   1.495   8.971   9.426
  595W        W 4659   7.928   8.512  10.703
  596W        W 4660  10.111   4.324   3.264
  597W        W 4661   5.554   4.999  11.355
  598W        W 4662   1.739   2.697   2.906
  599W        W 4663   0.097   4.305   3.469
  600W        W 4664   8.385   0.496  11.261
  601W        W 4665  10.335  10.393   1.255
  602W        W 4666   1.008   4.847   3.115
  603W        W 4667   4.515   6.216   8.573
  604W        W 4668  10.232   3.450   3.476
  605W        W 4669  10.381   5.183  10.096
  606W        W 4670   8.933   5.247   2.272
  607W        W 4671   9.400   6.084   3.246
  608W        W 4672  10.297   0.622  10.082
  609W        W 4673   4.314   3.732   2.717
  610W        W 4674  10.359  10.087  10.769
  611W        W 4675   7.134   3.269  10.592
  612W        W 4676   4.955   2.129   9.698
  613W        W 4677   6.352   3.598   8.474
  614W        W 4678  10.396   3.766   1.449
  615W        W 4679   9.568   5.890   2.308
  616W        W 4680   5.077   2.599   9.578
  617W        W 4681   1.774  10.274  11.661
  618W        W 4682   3.631   1.314  10.408
  619W        W 4683   8.345  10.036  10.916
  620W        W 4684   2.878   1.269   0.226
  621W        W 4685   2.403   8.403   9.197
  622W        W 4686  10.240  10.200   1.754
  623W        W 4687   9.731   2.670   0.452
  624W        W 4688   0.395   1.170   1.737
  625W        W 4689   2.114   5.553   9.537
  626W        W 4690   8.060   6.991   1.414
  627W        W 4691   0.309   9.512   9.595
  628W        W 4692   5.318   5.039   1.392
  629W        W 4693   5.345   0.196   1.185
  630W        W 4694   9.492   7.939   9.912
  631W        W 4695   9.745   7.824  11.872
  632W        W 4696   3.723   2.274   3.571
  633W        W 4697   9.895   3.839   9.339
  634W        W 4698   6.571   7.450  10.109
  635W        W 4699   7.678   3.166   9.231
  636W        W 4700   3.163   0.598   3.491
  637W        W 4701   0.906   3.975   8.941
  638W        W 4702   8.455   0.349  11.735
  639W        W 4703   0.845   0.476   8.971
  640W        W 4704   7.086   4.091   2.564
  641W        W 4705   9.565  10.353   8.519
  642W        W 4706   5.149   7.237   1.657
  643W        W 4707   6.130   2.041   2.130
  644W        W 4708   9.593   7.013  11.536
  645W        W 4709   5.172   7.681   2.594
  646W        W 4710   7.502   7.658   8.837
  647W        W 4711   3.578   5.155   1.220
  648W        W 4712   7.859   3.980  10.993
  649W        W 4713   6.146   5.982   2.737
  650W        W 4714   6.157   1.880   9.117
  651W        W 4715   7.906   4.338   0.443
  652W        W 4716   5.795   8.385  10.033
  653W        W 4717   7.137   5.947  11.821
  654W        W 4718   0.918   1.411   9.795
  655W        W 4719   9.953   6.241   0.898
  656W        W 4720   8.182   5.628   0.583
  657W        W 4721   2.834   5.039   9.569
  658W        W 4722   0.384   1.252  11.841
  659W        W 4723   8.057   5.505   1.360
  660W        W 4724   4.552   9.869   2.206
  661W        W 4725   2.598   1.982  11.798
  662W        W 4726   1.881   4.658   8.456
  663W        W 4727   6.022   3.234   0.736
  664W        W 4728   0.173   9.312   2.490
  665W        W 4729   6.536   1.366   1.329
  666W        W 4730   7.176   0.403   9.400
  667W        W 4731   2.118   6.587   9.017
  668W        W 4732   7.001   3.195   0.566
  669W        W 4733   2.419   9.650   0.208
  670W        W 4734   4.020   3.273  10.040
  671W        W 4735   5.038   3.469   2.803
  672W        W 4736   8.819   8.419  11.862
  673W        W 4737   4.580   0.601  10.492
  674W        W 4738   4.251   0.928   9.981
  675W        W 4739   5.164   0.887   8.909
  676W        W 4740   9.969   0.307   0.217
  677W        W 4741   6.044   9.654   0.022
  678W        W 4742   6.522   4.753  11.660
  679W        W 4743   2.288   1.232   8.492
  680W        W 4744   1.767   4.662  10.614
  681W        W 4745   4.210   8.005   1.637
  682W        W 4746   4.639   0.528   1.019
  683W        W 4747   7.484   0.150  10.864
  684W        W 4748   0.108   4.941  11.262
  685W        W 4749   4.044   2.882  10.387
  686W        W 4750   7.960   6.803   0.925
  687W        W 4751   7.871   9.041   1.334
  688W        W 4752   5.672   4.528  10.293
  689W        W 4753   2.095   8.576  11.436
  690W        W 4754   5.657   7.565   2.304
  691W        W 4755   7.722   1.884  11.390
  692W        W 4756   0.522   6.963  11.142
  693W        W 4757   2.818   4.509   1.487
  694W        W 4758   9.821   1.206  10.663
  695W        W 4759   6.022   0.664   1.498
  696W        W 4760   0.713   0.672  10.357
  697W        W 4761   9.579   2.625   9.997
  698W        W 4762   3.550   9.174   1.817
  699W        W 4763   1.472   5.613   2.363
  700W        W 4764   4.974   6.603   8.999
  701W        W 4765   6.402   0.723   9.506
  702W        W 4766   2.367   3.061  10.969
  703W        W 4767   4.608   6.069   2.848
  704W        W 4768   5.197   2.218   0.025
  705W        W 4769   3.776   9.841   2.732
  706W        W 4770   3.038   7.987  10.076
  707W        W 4771   3.837   8.224   1.900
  708W        W 4772   2.474   0.952   2.204
  709W        W 4773   3.015   1.104  11.362
  710W        W 4774   0.368   2.401   9.162
  711W        W 4775   8.494   7.250   1.590
  712W        W 4776   2.340   1.182   1.741
  713W        W 4777   4.146   1.763   0.209
  714W        W 4778   5.663   7.987   2.941
  715W        W 4779   2.767   7.016  11.324
  716W        W 4780   7.141   1.702   2.382
  717W        W 4781   7.307   8.566  11.510
  718W        W 4782   1.337   3.327   8.729
  719W        W 4783   0.945   3.698  11.253
  720W        W 4784   1.876   4.133   1.257
  721W        W 4785   8.035   8.356   9.722
  722W        W 4786   2.046   7.626  10.064
  723W        W 4787   6.173   3.050   2.208
  724W        W 4788   1.204  10.011  11.686
  725W        W 4789   6.456   6.988  10.535
  726W        W 4790   5.698   6.615   8.452
  727W        W 4791   0.873   2.622   0.616
  728W        W 4792   9.961   6.123  11.986
  729W        W 4793   9.382   8.732  11.332
  730W        W 4794   9.230   5.232  10.533
  731W        W 4795   8.902   2.739   3.044
  732W        W 4796   0.626   9.470   3.416
  733W        W 4797   1.427   6.706   1.419
  734W        W 4798   6.543   8.031  11.402
  735W        W 4799   6.132   8.363   8.841
  736W        W 4800   1.011  10.186   2.233
  737W        W 4801   2.774   2.191   1.274
  738W        W 4802   5.139   3.604   0.031
  739W        W 4803   7.601   4.517   3.700
  740W        W 4804   6.003   0.565  10.630
  741W        W 4805   0.818   0.146   2.292
  742W        W 4806  10.185  10.236   9.985
  743W        W 4807   3.519   8.847  11.694
  744W        W 4808   2.830   5.099   1.854
  745W        W 4809   1.475   0.939   2.518
  746W        W 4810   6.608   6.527   2.187
  747W        W 4811   2.596   7.018   9.741
  748W        W 4812   4.753   7.522   2.291
  749W        W 4813   0.008   3.447  11.960
  750W        W 4814   3.235   8.959   1.460
  751W        W 4815   4.635  10.236   3.502
  752W        W 4816   9.118   8.808   1.818
  753W        W 4817   6.167  10.477   2.685
  754W        W 4818   6.508   3.358   2.694
  755W        W 4819   4.521   3.095   8.929
  756W        W 4820   4.750   0.756   3.353
  757W        W 4821   2.154   8.019   2.420
  758W        W 4822   8.682   1.776   2.010
  759W        W 4823   9.445   6.990   8.881
  760W        W 4824   7.373   2.296   8.698
  761W        W 4825   2.747   1.645   0.569
  762W        W 4826   7.704   8.607   8.909
  763W        W 4827   3.265   4.526   1.749
  764W        W 4828   9.874   8.751   1.048
  765W        W 4829   0.235   9.858  10.544
  766W        W 4830   9.412   5.126  10.042
  767W        W 4831   7.889   4.576   1.504
  768W        W 4832   3.370   9.458   1.436
  769W        W 4833   0.687   5.644   9.590
  770W        W 4834   4.007   6.640   9.180
  771W        W 4835   5.867   1.648   1.944
  772W        W 4836   7.334  10.058   9.222
  773W        W 4837   6.736   4.674   9.100
  774W        W 4838   2.307   8.214  10.693
  775W        W 4839   4.500   8.381   8.603
  776W        W 4840   5.614   8.796   9.718
  777W        W 4841   8.345   9.432  11.803
  778W        W 4842   7.343   7.855  11.022
  779W        W 4843   6.838   9.820   1.678
  780W        W 4844   7.685   2.639  10.953
  781W        W 4845   7.084   6.896   0.831
  782W        W 4846   0.459  10.300  10.474
  783W        W 4847   1.235   7.928   9.085
  784W        W 4848   1.832   8.375   0.265
  785W        W 4849   1.685   3.819   0.436
  786W        W 4850   8.467   9.047   9.280
  787W        W 4851   2.379   5.723  11.875
  788W        W 4852   6.375   3.995   9.721
  789W        W 4853   9.789   2.814   1.459
  790W        W 4854   3.176   7.485   0.386
  791W        W 4855   1.820   5.716   0.530
  792W        W 4856   6.228   5.548   3.020
  793W        W 4857   9.974   9.974   0.366
  794W        W 4858   4.575  10.429   9.176
  795W        W 4859  10.481   7.933   1.824
  796W        W 4860   3.715   7.064  11.839
  797W        W 4861   8.316   1.205   9.063
  798W        W 4862   9.126   8.049   0.619
  799W        W 4863   1.253   5.527   0.607
  800W        W 4864   2.274  10.031   2.474
  801W        W 4865   3.762   8.439  11.946
  802W        W 4866   0.785   0.177  10.484
  803W        W 4867   9.566   8.944   0.182
  804W        W 4868   4.944   1.599   3.684
  805W        W 4869   3.416  10.367  10.368
  806W        W 4870   3.094   8.527  10.394
  807W        W 4871   4.910   4.173  11.268
  808W        W 4872   6.183   1.396   0.264
  809W        W 4873   9.095   5.540  10.945
  810W        W 4874   0.385   6.064   8.884
  811W        W 4875   7.030   2.754   1.715
  812W        W 4876   2.679   3.221   1.974
  813W        W 4877   1.892   7.979   1.454
  814W        W 4878   1.937  10.369   2.678
  815W        W 4879   8.593   4.687  10.569
  816W        W 4880   9.999   8.384   3.236
  817W        W 4881   3.920   3.388   0.702
  818W        W 4882   4.983   4.523   3.602
  819W        W 4883   3.579   7.879   9.436
  820W        W 4884   5.093   8.424   8.976
  821W        W 4885   4.637   6.867   3.483
  822W        W 4886   6.958   8.045   2.531
  823W        W 4887   0.013   3.665   8.849
  824W        W 4888   8.503  10.002   2.171
  825W        W 4889   0.357   9.881   1.721
  826W        W 4890   6.909  10.493   9.685
  827W        W 4891   6.566   6.596   9.740
  828W        W 4892  10.263   6.053   3.629
  829W        W 4893   7.649   8.882   1.957
  830W        W 4894   9.090   7.567  11.949
  831W        W 4895  10.017   3.287  10.982
  832W        W 4896   6.123   0.040   0.716
  833W        W 4897   1.238   3.621  10.098
  834W        W 4898   9.913   2.051   8.579
  835W        W 4899   0.280   2.693   1.506
  836W        W 4900   9.352   8.372   1.994
  837W        W 4901   2.840   7.418   3.370
  838W        W 4902   0.071   6.584   0.719
  839W        W 4903   8.112   9.362   8.752
  840W        W 4904   2.920   1.617  10.514
  841W        W 4905   2.380   6.988   8.805
  842W        W 4906   3.264   8.436  10.937
  843W        W 4907   4.021   6.130   8.387
  844W        W 4908   5.531   3.873   3.519
  845W        W 4909   1.669   8.016   9.358
  846W        W 4910   7.536   8.381   1.807
  847W        W 4911  10.438   4.197   1.172
  848W        W 4912   7.773   6.422  10.783
  849W        W 4913   7.028   7.446   3.268
  850W        W 4914   9.692   6.475  10.737
  851W        W 4915   3.154   2.628   0.983
  852W        W 4916   2.988   1.767   0.060
  853W        W 4917   3.279   4.889  11.526
  854W        W 4918   5.168   5.754  11.850
  855W        W 4919   1.354   3.315   1.191
  856W        W 4920   9.021   3.563  10.820
  857W        W 4921   8.179   8.792   0.413
  858W        W 4922   2.747   6.978   1.445
  859W        W 4923   9.826   7.349   1.766
  860W        W 4924   5.164  10.488  11.355
  861W        W 4925   5.574   8.074   3.489
  862W        W 4926   3.342   9.367   3.491
  863W        W 4927  10.434   0.850   1.805
  864W        W 4928   7.541   6.572   3.644
  865W        W 4929   7.491   4.898  11.804
  866W        W 4930   6.489   8.845   2.553
  867W        W 4931   6.989   7.482   1.802
  868W        W 4932   1.944   4.785   2.497
  869W        W 4933   7.616   9.143   9.999
  870W        W 4934   0.264   4.261   0.467
  871W        W 4935   7.055   2.706   8.802
  872W        W 4936   8.153   3.241   1.518
  873W        W 4937   1.319   6.216   1.499
  874W        W 4938   4.240   4.683  11.729
  875W        W 4939  10.445   7.509  10.015
  876W        W 4940   9.610   0.653   9.953
  877W        W 4941   9.924   0.725  10.800
  878W        W 4942   4.101   4.573   3.686
  879W        W 4943   3.569   9.071   9.098
  880W        W 4944   3.321   9.289   2.456
  881W        W 4945   4.994   7.616   0.014
  882W        W 4946   8.615   5.056  11.377
  883W        W 4947   0.412   0.516   9.259
  884W        W 4948   0.937   8.518  10.210
  885W        W 4949   4.159   2.396   3.054
  886W        W 4950   0.469   8.306   1.251
  887W        W 4951   1.807   8.877   1.835
  888W        W 4952   5.545   3.191   8.067
  889W        W 4953   3.818   0.390   0.447
  890W        W 4954   1.192   5.169   9.709
  891W        W 4955   9.128   9.318   3.553
  892W        W 4956   1.645   0.931   1.094
  893W        W 4957   7.615   1.058   1.159
  894W        W 4958   9.996  10.021   1.235
  895W        W 4959   1.248   5.012   0.390
  896W        W 4960   1.736   0.712   9.485
  897W        W 4961   1.819   6.671   2.276
  898W        W 4962   7.823   8.991  10.448
  899W        W 4963  10.384   3.173   8.711
  900W        W 4964  10.179   7.826   8.697
  901W        W 4965   9.114   9.586  10.959
  902W        W 4966  10.117   9.941   8.967
  903W        W 4967   2.392   7.267   0.951
  904W        W 4968  10.057   9.080   0.352
  905W        W 4969   0.288   0.689  10.679
  906W        W 4970   4.779   0.825   2.185
  907W        W 4971   4.529   8.747   3.581
  908W        W 4972  10.394   8.580   0.240
  909W        W 4973   3.268   2.091  10.793
  910W        W 4974   6.515   0.739  11.284
  911W        W 4975   0.042   3.252   2.183
  912W        W 4976   5.106   7.168   2.187
  913W        W 4977   1.136   3.798   2.396
  914W        W 4978   7.619   9.276  11.920
  915W        W 4979   9.816   1.226   0.498
  916W        W 4980   5.643   7.675  10.433
  917W        W 4981   2.821   7.435   0.735
  918W        W 4982   8.499   3.655   3.289
  919W        W 4983   0.650   5.604  11.862
  920W        W 4984   2.177   9.569   1.461
  921W        W 4985   5.463   7.635   3.756
  922W        W 4986   0.451   8.458   0.388
  923W        W 4987   5.951   7.549  11.578
  924W        W 4988   6.616   7.201   0.817
  925W        W 4989   8.767   7.318   0.878
  926W        W 4990   4.967   0.784   2.675
  927W        W 4991   4.432   6.929  11.210
  928W        W 4992   7.456   5.011   3.563
  929W        W 4993   3.075   3.029   1.724
  930W        W 4994   8.621   3.273   1.762
  931W        W 4995   1.328   2.763   3.272
  932W        W 4996   7.562   8.559  10.284
  933W        W 4997   4.862   3.083   2.229
  934W        W 4998   5.804   2.238   9.219
  935W        W 4999   6.490   9.353  10.732
  936W        W 5000   7.101   7.397   0.931
  937W        W 5001   4.978   5.506   2.136
  938W        W 5002   4.693   7.604   9.054
  939W        W 5003   0.530   9.906   0.272
  940W        W 5004   3.087   2.837  10.315
  941W        W 5005   0.292   5.534   1.871
  942W        W 5006  10.334   9.957   2.759
  943W        W 5007   9.938   9.575   9.285
  944W        W 5008   7.115   9.879   2.138
  945W        W 5009   5.656   6.014   2.924
  946W        W 5010  10.074   2.526   2.907
  947W        W 5011   8.390   2.945   0.292
  948W        W 5012   3.814   7.055  11.330
  949W        W 5013   6.114   6.552  10.048
  950W        W 5014   8.002   5.571   2.397
  951W        W 5015   5.203   7.639   2.056
  952W        W 5016   6.000   9.574   0.521
  953W        W 5017   9.821  10.470   3.850
  954W        W 5018   6.068   0.025  11.272
  955W        W 5019   6.536   4.007   0.024
  956W        W 5020   7.735   2.480   0.646
  957W        W 5021   1.882   4.886   3.548
  958W        W 5022   6.567   9.146   9.871
  959W        W 5023   1.408   0.567   2.949
  960W        W 5024   9.534   6.975  10.754
  961W        W 5025   9.118   3.047   2.320
  962W        W 5026   9.914   0.893   3.878
  963W        W 5027   0.606   4.736   8.676
  964W        W 5028   3.309   6.151  10.501
  965W        W 5029   6.234   7.257   3.518
  966W        W 5030   2.747   3.716   2.136
  967W        W 5031   3.577   6.481   2.201
  968W        W 5032   5.246   2.098   1.225
  969W        W 5033   3.392   4.997   0.782
  970W        W 5034   2.672   0.175   9.294
  971W        W 5035   4.591   4.590   1.943
  972W        W 5036  10.033   7.216   2.357
  973W        W 5037   7.134   8.347   8.593
  974W        W 5038   5.233   2.207   2.104
  975W        W 5039   1.204   5.272   2.895
  976W        W 5040   8.116   1.824   9.048
  977W        W 5041   6.660   5.394   9.531
  978W        W 5042   6.495   4.135   0.930
  979W        W 5043   4.988   1.418  10.201
  980W        W 5044   2.206   6.006   8.565
  981W        W 5045   0.891   6.834   2.826
  982W        W 5046   7.179   3.139   2.058
  983W        W 5047   7.480   6.595   0.987
  984W        W 5048   2.933   9.540  11.761
  985W        W 5049   0.749   2.348   2.162
  986W        W 5050   4.616   8.187   9.937
  987W        W 5051   2.461   9.350   3.175
  988W        W 5052   4.549   1.240   9.420
  989W        W 5053   3.854   3.671   3.578
  990W        W 5054   6.269   1.548   9.465
  991W        W 5055   4.718   6.583   4.236
  992W        W 5056   6.269   1.475   3.258
  993W        W 5057   9.513   4.129  11.346
  994W        W 5058   2.291   7.965   3.568
  995W        W 5059   1.637   5.538   1.871
  996W        W 5060   8.716   1.530   1.551
  997W        W 5061   1.292   9.487   9.249
  998W        W 5062   0.877   6.861   8.737
  999W        W 5063   2.952   1.465   2.741
 1000W        W 5064   5.606   9.508   9.950
 1001W        W 5065   0.557   1.798   1.345
 1002W        W 5066   5.518   6.924   0.916
 1003W        W 5067   5.513   4.863  10.846
 1004W        W 5068   1.752   9.968  10.832
 1005W        W 5069   3.782   4.942  11.616
 1006W        W 5070   0.024   6.240  10.912
 1007W        W 5071   8.365   2.788  11.417
 1008W        W 5072   6.784   8.495  11.568
 1009W        W 5073   1.333   0.541   1.161
 1010W        W 5074   0.980   7.306   2.645
 1011W        W 5075   1.237   0.605   1.685
 1012W        W 5076   5.201   5.590   9.460
 1013W        W 5077   7.660   4.694   8.732
 1014W        W 5078   3.767   4.553   2.435
 1015W        W 5079   9.559   9.769   9.628
 1016W        W 5080   5.837   3.222   3.909
 1017W        W 5081   9.094   3.105  10.995
 1018W        W 5082   8.160   1.749   1.309
 1019W        W 5083   0.712   9.898  11.780
 1020W        W 5084   8.709   8.972   0.487
 1021W        W 5085   6.901   7.956   9.361
 1022W        W 5086   9.067   2.609  10.886
 1023W        W 5087   7.562   1.010   8.876
 1024W        W 5088   4.082   4.698  10.277
 1025W        W 5089   4.510   8.946   1.650
 1026W        W 5090   3.562   0.018   0.190
 1027W        W 5091   6.765   6.143   1.306
 1028W        W 5092   7.642   1.738   2.311
 1029W        W 5093   7.962   1.917  10.046
 1030W        W 5094   6.017   4.479   3.877
 1031W        W 5095   2.828   6.013   0.571
 1032W        W 5096   4.904  10.499   0.418
 1033W        W 5097   1.898   6.123   8.980
 1034W        W 5098   8.933   9.410   0.809
 1035W        W 5099   6.535   8.929  11.570
 1036W        W 5100   8.660   0.207  10.387
 1037W        W 5101  10.057   2.636  10.112
 1038W        W 5102   1.351   2.348   2.919
 1039W        W 5103   1.966   7.600   2.662
 1040W        W 5104   4.226   9.956   0.149
 1041W        W 5105   0.201   8.607   9.881
 1042W        W 5106   9.411   6.558  11.671
 1043W        W 5107   2.090   7.631   8.701
 1044W        W 5108   7.486   3.154  11.823
 1045W        W 5109   4.068   6.611   0.438
 1046W        W 5110   4.103   6.606   0.952
 1047W        W 5111   8.407  10.013   0.768
 1048W        W 5112   5.026   6.752   3.856
 1049W        W 5113   6.507   3.499   0.068
 1050W        W 5114   0.282   3.707   2.232
 1051W        W 5115   0.709   6.445   9.037
 1052W        W 5116   9.075   5.009   0.367
 1053W        W 5117   9.618   3.116   2.307
 1054W        W 5118   3.444   4.659   9.128
 1055W        W 5119   9.721   7.278  10.371
 1056W        W 5120   6.835   4.015   8.446
 1057W        W 5121   1.253   4.144   9.971
 1058W        W 5122   4.252   4.688  10.765
 1059W        W 5123   8.112   9.542  10.868
 1060W        W 5124   4.496   6.940   9.324
 1061W        W 5125   9.775   9.878   2.174
 1062W        W 5126   7.415   4.664   0.284
 1063W        W 5127   8.567   3.778   0.923
 1064W        W 5128   0.062   1.956  10.702
 1065W        W 5129   4.374   5.243   1.005
 1066W        W 5130   9.280   8.859   9.885
 1067W        W 5131   5.859   0.459   9.127
 1068W        W 5132   9.940   2.214   9.308
 1069W        W 5133   4.089   7.903   9.316
 1070W        W 5134   6.570   2.815   1.950
 1071W        W 5135   3.632   1.419   3.518
 1072W        W 5136   1.765   1.658   9.085
 1073W        W 5137   5.984  10.408   1.175
 1074W        W 5138  10.013   6.136   9.632
 1075W        W 5139   2.772   4.752   3.013
 1076W        W 5140   9.002   0.965   1.701
 1077W        W 5141   2.723   5.506   0.249
 1078W        W 5142   5.923   4.854   1.981
 1079W        W 5143   2.669  10.233   0.213
 1080W        W 5144   5.582   9.737   3.246
 1081W        W 5145   0.018   2.320   0.429
 1082W        W 5146   5.681   1.914   2.532
 1083W        W 5147   5.993  10.087   0.460
 1084W        W 5148   2.650   2.687  11.263
 1085W        W 5149   4.836   8.596   1.477
 1086W        W 5150   8.116   8.070   3.377
 1087W        W 5151   0.822  10.296   3.277
 1088W        W 5152   5.587   5.949   9.475
 1089W        W 5153   2.872   7.888   0.984
 1090W        W 5154   0.293   2.663   3.347
 1091W        W 5155   6.586   1.191  11.519
 1092W        W 5156   5.988   0.819   0.931
 1093W        W 5157   7.907   7.799   0.683
 1094W        W 5158   1.831   5.515   1.388
 1095W        W 5159   2.700   3.394  11.741
 1096W        W 5160   1.382   6.464   3.547
 1097W        W 5161   3.362   8.397   2.107
 1098W        W 5162   6.618   6.701   0.871
 1099W        W 5163   3.306   8.675   1.039
 1100W        W 5164   7.400   0.281   2.870
 1101W        W 5165   0.509   3.381  11.830
 1102W        W 5166   3.783   8.796   2.781
 1103W        W 5167   2.754   4.314   1.018
 1104W        W 5168   6.008   3.668   0.469
 1105W        W 5169   2.310   8.105   0.384
 1106W        W 5170   9.965   6.337  10.321
 1107W        W 5171   9.800   8.943   9.928
 1108W        W 5172   1.649   3.872   2.354
 1109W        W 5173   2.808   9.498   3.520
 1110W        W 5174   9.908   5.432   1.925
 1111W        W 5175   2.180   7.360   9.147
 1112W        W 5176  10.493   1.132   9.876
 1113W        W 5177   3.127  10.266   1.934
 1114W        W 5178   7.014  10.357   1.223
 1115W        W 5179   0.368   9.308   0.989
 1116W        W 5180   4.501   0.459   3.015
 1117W        W 5181   3.406   3.550   0.850
 1118W        W 5182   7.225  10.346  10.532
 1119W        W 5183   5.077  10.482  11.915
 1120W        W 5184   4.791   9.988   9.341
 1121W        W 5185   7.232   8.848   0.813
 1122W        W 5186   5.392   5.790   9.908
 1123W        W 5187   9.312   9.137   3.003
 1124W        W 5188   3.528   3.107  10.094
 1125W        W 5189   1.313   8.135  10.196
 1126W        W 5190   4.114   4.164  10.864
 1127W        W 5191   9.368   3.239   2.777
 1128W        W 5192   5.705  10.032   9.834
 1129W        W 5193   4.612   9.445   1.512
 1130W        W 5194   9.264   8.591   8.849
 1131W        W 5195   3.424   1.803  11.755
 1132W        W 5196   3.514   6.249   3.192
 1133W        W 5197   0.035   4.060  11.316
 1134W        W 5198   6.506   6.143  11.001
 1135W        W 5199   5.607   8.752   1.514
 1136W        W 5200   1.331   6.904  10.545
 1137W        W 5201   4.743   1.689   9.578
 1138W        W 5202   4.577   9.586   9.546
 1139W        W 5203   6.023   1.056   9.471
 1140W        W 5204   9.577   6.701   2.763
 1141W        W 5205   6.687   7.945  10.366
 1142W        W 5206   9.928   2.610   9.615
 1143W        W 5207  10.380   4.707   1.132
 1144W        W 5208   4.323   2.246   2.526
 1145W        W 5209   3.846   9.811  10.857
 1146W        W 5210   7.775   7.043   2.795
 1147W        W 5211   9.014   7.970  10.107
 1148W        W 5212   3.232   7.300  11.685
 1149W        W 5213   7.500   7.369  10.950
 1150W        W 5214  10.460   3.272   9.223
 1151W        W 5215   4.032   6.551   2.445
 1152W        W 5216   3.271   6.231   1.371
 1153W        W 5217   5.537   5.342  11.751
 1154W        W 5218   3.693   4.588   9.901
 1155W        W 5219  10.238   9.376   1.595
 1156W        W 5220   1.262   7.594   1.189
 1157W        W 5221   0.663   1.975  10.893
 1158W        W 5222   9.065   0.370   3.479
 1159W        W 5223  10.355   6.169   9.989
 1160W        W 5224   0.805  10.266   9.574
 1161W        W 5225   9.883   8.588   0.402
 1162W        W 5226   6.052   9.440   1.439
 1163W        W 5227   0.856   1.631   0.961
 1164W        W 5228   0.342   3.702  11.034
 1165W        W 5229   8.115   8.702  11.217
 1166W        W 5230   0.373   7.824   1.434
 1167W        W 5231   4.751   8.602   0.976
 1168W        W 5232   4.693   5.149   0.272
 1169W        W 5233   5.676   2.123   1.860
 1170W        W 5234   5.450   6.494   0.425
 1171W        W 5235   9.286   9.649   0.541
 1172W        W 5236   2.770   8.120   8.961
 1173W        W 5237   3.549   9.381  10.825
 1174W        W 5238   7.537   2.694   9.040
 1175W        W 5239   0.389   6.695  10.409
 1176W        W 5240   9.388   3.921  10.876
 1177W        W 5241   9.718   0.913   2.245
 1178W        W 5242   9.083   4.469   1.239
 1179W        W 5243   8.463   9.955   9.881
 1180W        W 5244   3.774   4.549  10.869
 1181W        W 5245   7.228   0.331   2.399
 1182W        W 5246   2.111   0.281   0.126
 1183W        W 5247   7.600   5.167   0.252
 1184W        W 5248   8.058   0.842   0.950
 1185W        W 5249   6.396  10.289  11.579
 1186W        W 5250   4.964   5.703   9.003
 1187W        W 5251   8.163   0.725  10.864
 1188W        W 5252   0.671   2.397   1.650
 1189W        W 5253   6.522   5.082   9.959
 1190W        W 5254   5.620   3.120  11.405
 1191W        W 5255   9.786   2.586  10.552
 1192W        W 5256   8.387   2.666   3.045
 1193W        W 5257   3.154   8.823  11.271
 1194W        W 5258   4.157   7.974   9.819
 1195W        W 5259   6.022   2.784  11.463
 1196W        W 5260   9.850   5.283   2.407
 1197W        W 5261   2.607   2.412   9.776
 1198W        W 5262   3.637   0.360   2.484
 1199W        W 5263   4.546   3.307   3.076
 1200W        W 5264   0.316   7.955   2.358
 1201W        W 5265   4.238   5.467   3.228
 1202W        W 5266   3.365   5.484   2.732
 1203W        W 5267   3.838   7.463   9.513
 1204W        W 5268   3.931   5.788   7.992
 1205W        W 5269   0.789   3.573   9.758
 1206W        W 5270   9.954   6.263   2.413
 1207W        W 5271   1.673   0.324  11.363
 1208W        W 5272   9.571   3.669  11.946
 1209W        W 5273   2.692   8.818   3.180
 1210W        W 5274   5.156   8.620   2.399
 1211W        W 5275   8.777   4.591   8.633
 1212W        W 5276   2.164   4.185   9.561
 1213W        W 5277   9.829   3.063  10.347
 1214W        W 5278   9.686   2.651   9.165
 1215W        W 5279   8.489   8.594   0.770
 1216W        W 5280   2.194   3.954   3.562
 1217W        W 5281   2.427   7.492   9.591
 1218W        W 5282   3.635   9.001  11.208
 1219W        W 5283   4.372   3.973   2.275
 1220W        W 5284   5.233   7.158  11.832
 1221W        W 5285   0.776   3.281   1.089
 1222W        W 5286   1.443   2.587  11.103
 1223W        W 5287   2.257   6.998  11.472
 1224W        W 5288   5.701   6.407   9.346
 1225W        W 5289   4.323   3.136  10.965
 1226W        W 5290   7.640   5.844  11.820
 1227W        W 5291   1.649   5.359   9.599
 1228W        W 5292   4.227   3.141   9.436
 1229W        W 5293   0.455   2.300   2.995
 1230W        W 5294   0.381   6.398   1.641
 1231W        W 5295   1.410  10.242   8.983
 1232W        W 5296   7.093   4.704  11.011
 1233W        W 5297   9.711   3.644  11.445
 1234W        W 5298   4.426   5.738   8.771
 1235W        W 5299   8.911   8.901   9.086
 1236W        W 5300   4.988   1.369   8.688
 1237W        W 5301   5.499  10.346  11.693
 1238W        W 5302   8.041   2.801   1.222
 1239W        W 5303   9.384  10.477   0.020
 1240W        W 5304   4.140   8.969   9.121
 1241W        W 5305   2.143   1.837   2.486
 1242W        W 5306  10.018   0.480   2.045
 1243W        W 5307   3.485   8.110   9.876
 1244W        W 5308   6.462   6.790   1.758
 1245W        W 5309   6.172   3.248  10.210
 1246W        W 5310   3.303   8.583   0.128
 1247W        W 5311   0.640   9.950   8.385
 1248W        W 5312   8.966   2.687   8.655
 1249W        W 5313   5.485   6.598   4.066
 1250W        W 5314   9.542   1.647   9.018
 1251W        W 5315   9.628   4.265   9.512
 1252W        W 5316   4.550   4.216   2.744
 1253W        W 5317   5.610   5.168   0.225
 1254W        W 5318   1.595   9.125  11.287
 1255W        W 5319   9.273   7.679  11.463
 1256W        W 5320   9.933   0.796   0.744
 1257W        W 5321   3.735   5.999   1.686
 1258W        W 5322   0.328   2.109   3.445
 1259W        W 5323   5.607  10.283  11.192
 1260W        W 5324   5.989  10.457   8.996
 1261W        W 5325   7.839   2.282   9.503
 1262W        W 5326   4.611   1.213   2.498
 1263W        W 5327   6.464   4.394   9.428
 1264W        W 5328   9.612   4.748  10.797
 1265W        W 5329   3.362   5.214  10.747
 1266W        W 5330   4.541   6.452   3.201
 1267W        W 5331   2.186  10.415   0.462
 1268W        W 5332   9.812   5.683   9.448
 1269W        W 5333   4.261   2.194   2.005
 1270W        W 5334  10.322   6.938   3.092
 1271W        W 5335   7.046   1.285  11.252
 1272W        W 5336   7.430   8.288  10.729
 1273W        W 5337   9.700  10.100   9.256
 1274W        W 5338   6.517   2.816   8.968
 1275W        W 5339   0.020  10.386   2.562
 1276W        W 5340   4.507   2.308   9.853
 1277W        W 5341   6.618   2.195   3.308
 1278W        W 5342   9.850   1.300   2.554
 1279W        W 5343   2.422   5.950   9.481
 1280W        W 5344   5.787   3.802   3.086
 1281W        W 5345   8.186   1.771   3.418
 1282W        W 5346   2.701   1.467   2.303
 1283W        W 5347   1.867   2.571  10.062
 1284W        W 5348   8.953   3.645   2.849
 1285W        W 5349   1.206   5.601  11.865
 1286W        W 5350   0.917   1.293  11.230
 1287W        W 5351   0.339   4.478   0.956
 1288W        W 5352   1.239   3.126  10.323
 1289W        W 5353  10.482   4.620   3.081
 1290W        W 5354   7.054   3.571   3.296
 1291W        W 5355   3.731   0.937   9.369
 1292W        W 5356   4.856   1.860  10.584
 1293W        W 5357   5.591  10.380   0.787
 1294W        W 5358   3.630   6.197  10.932
 1295W        W 5359  10.322   8.178   2.232
 1296W        W 5360   4.072   4.720  11.249
 1297W        W 5361  10.281   3.494   2.956
 1298W        W 5362   1.563  10.150  10.382
 1299W        W 5363   8.060  10.368   1.314
 1300W        W 5364   4.752   2.059   2.751
 1301W        W 5365   7.425   4.547   1.825
 1302W        W 5366   3.140   3.800  10.600
 1303W        W 5367   5.171   5.157   0.490
 1304W        W 5368   4.738   4.513  11.620
 1305W        W 5369   8.288   1.320   2.284
 1306W        W 5370   4.678   8.470   0.463
 1307W        W 5371   5.176   1.582   1.287
 1308W        W 5372  10.486   4.809   3.561
 1309W        W 5373   1.346   9.401  10.091
 1310W        W 5374   5.496   3.825  10.718
 1311W        W 5375   3.813  10.301   9.834
 1312W        W 5376   9.212   4.480   0.106
 1313W        W 5377   5.040   4.076   1.146
 1314W        W 5378   4.916   5.587   1.211
 1315W        W 5379   7.529   1.777  10.860
 1316W        W 5380   2.306   9.443   9.158
 1317W        W 5381   2.644   7.937   3.214
 1318W        W 5382   7.526   7.160   8.975
 1319W        W 5383   3.785   6.264   0.720
 1320W        W 5384   0.566   0.342   0.258
 1321W        W 5385   3.142   3.317   2.172
 1322W        W 5386   4.902   2.071   0.408
 1323W        W 5387   6.881   2.216   8.877
 1324W        W 5388   6.492  10.182   2.418
 1325W        W 5389  10.336   6.579   9.573
 1326W        W 5390   4.626   5.039  10.087
 1327W        W 5391   9.507   0.545   0.880
 1328W        W 5392   7.484   3.294   3.201
 1329W        W 5393   3.366   5.882   4.056
 1330W        W 5394   0.026   1.831   0.590
 1331W        W 5395   8.086   1.708  11.053
 1332W        W 5396   7.873   3.466  11.123
 1333W        W 5397   4.790   2.013  11.086
 1334W        W 5398   4.480   5.706   0.213
 1335W        W 5399   8.819   6.042   2.733
 1336W        W 5400   4.017   3.623   0.266
 1337W        W 5401   4.171   2.723   0.694
 1338W        W 5402   7.455   9.852  10.600
 1339W        W 5403  10.338   7.011   3.778
 1340W        W 5404   8.515   1.947   9.371
 1341W        W 5405   3.146   7.849   3.342
 1342W        W 5406   7.488   6.099  10.459
 1343W        W 5407   0.215   2.212   1.795
 1344W        W 5408   3.129   8.491   9.844
 1345W        W 5409   9.827   9.842  10.085
 1346W        W 5410   5.929   1.106   3.420
 1347W        W 5411   3.858   2.669   1.213
 1348W        W 5412   7.284   8.992  10.342
 1349W        W 5413   9.776  10.355   1.933
 1350W        W 5414   9.821   0.332   9.225
 1351W        W 5415   5.972   2.176   9.681
 1352W        W 5416   5.666   0.863   8.692
 1353W        W 5417   0.432   6.784   9.915
 1354W        W 5418   2.549   5.599   0.724
 1355W        W 5419   1.244   3.236   9.768
 1356W        W 5420   0.768   5.687  10.911
 1357W        W 5421   0.358   3.406   0.780
 1358W        W 5422   7.966   4.790   2.915
 1359W        W 5423   7.052   6.980   8.986
 1360W        W 5424   5.567   9.324   0.415
 1361W        W 5425   2.698   3.871   0.735
 1362W        W 5426   8.317   8.530  11.700
 1363W        W 5427   2.467   6.865   0.086
 1364W        W 5428   7.751   8.652   0.738
 1365W        W 5429   1.770   9.872   2.684
 1366W        W 5430   5.075   4.178  10.764
 1367W        W 5431   0.413   5.629   3.334
 1368W        W 5432   7.255   0.308   1.072
 1369W        W 5433   7.549   2.220   2.774
 1370W        W 5434   5.693   2.473  10.001
 1371W        W 5435   0.335   4.188  10.919
 1372W        W 5436   6.970   3.729   1.718
 1373W        W 5437   3.828   9.648   0.169
 1374W        W 5438   3.253   9.312   9.498
 1375W        W 5439   8.166  10.465  11.893
 1376W        W 5440   3.869   5.763   0.673
 1377W        W 5441   8.383   0.229   1.520
 1378W        W 5442   8.757   2.389   9.443
 1379W        W 5443   1.902   2.819  10.906
 1380W        W 5444   7.093   6.573   9.873
 1381W        W 5445   2.451   3.765   1.164
 1382W        W 5446   6.070   7.034   1.496
 1383W        W 5447   1.805   7.469   1.296
 1384W        W 5448   5.956   6.160  10.363
 1385W        W 5449   9.367   1.430   9.423
 1386W        W 5450   9.480   4.198   1.745
 1387W        W 5451   8.903   8.578  11.093
 1388W        W 5452   8.955   4.282   3.401
 1389W        W 5453   3.715   7.213   3.517
 1390W        W 5454   3.135   4.039   1.830
 1391W        W 5455   2.813   7.899  11.520
 1392W        W 5456   3.410   8.038   0.194
 1393W        W 5457   3.821   5.107   8.578
 1394W        W 5458   0.491   7.350   0.554
 1395W        W 5459   2.842   7.625  10.403
 1396W        W 5460   5.950   3.562  10.815
 1397W        W 5461   2.203   6.921   9.402
 1398W        W 5462   5.048   5.497   2.646
 1399W        W 5463   9.335   0.990   0.417
 1400W        W 5464   4.983   8.119  10.819
 1401W        W 5465   0.395   8.168   3.430
 1402W        W 5466   4.633   0.831   0.156
 1403W        W 5467   6.644   4.225   2.806
 1404W        W 5468   0.030   7.062   9.758
 1405W        W 5469   1.293   3.547  10.605
 1406W        W 5470   2.625   5.540   1.718
 1407W        W 5471   0.680   9.842  10.313
 1408W        W 5472   3.097   9.704   2.272
 1409W        W 5473   1.732   8.008   8.819
 1410W        W 5474   8.566   9.471  11.344
 1411W        W 5475   5.905   3.079  10.621
 1412W        W 5476   7.002  10.449   9.184
 1413W        W 5477   0.671   2.261  10.022
 1414W        W 5478   5.974   7.341   3.069
 1415W        W 5479   5.466   6.095  10.297
 1416W        W 5480   5.453   9.395  11.441
 1417W        W 5481   4.160   4.449   3.209
 1418W        W 5482   7.221   5.142   2.418
 1419W        W 5483   3.415   7.006   2.834
 1420W        W 5484   1.881   5.846   3.869
 1421W        W 5485   8.783   6.872  10.261
 1422W        W 5486   1.258   7.643  10.023
 1423W        W 5487   3.970   8.750  10.289
 1424W        W 5488   5.080  10.063   1.367
 1425W        W 5489   6.894   5.615   8.711
 1426W        W 5490   2.908  10.373   9.656
 1427W        W 5491   6.779   2.945  10.781
 1428W        W 5492   3.023  10.279   9.172
 1429W        W 5493   8.110   2.911   9.951
 1430W        W 5494   0.941   5.636   3.433
 1431W        W 5495   3.422   9.772   9.364
 1432W        W 5496   1.467   1.747   8.585
 1433W        W 5497   9.893   4.687   9.601
 1434W        W 5498   1.193   3.456   0.741
 1435W        W 5499   9.727   5.262   3.425
 1436W        W 5500   7.866   2.449  11.404
 1437W        W 5501   7.117   5.796   9.569
 1438W        W 5502   4.198   5.272   1.976
 1439W        W 5503   5.981   4.796  10.656
 1440W        W 5504   8.492   2.870   0.939
 1441W        W 5505   0.940   6.549   3.258
 1442W        W 5506   9.487   1.375  10.279
 1443W        W 5507   3.382   4.345   0.291
 1444W        W 5508   9.360   4.973   2.403
 1445W        W 5509   9.307   3.275  11.441
 1446W        W 5510   9.499   4.706  10.295
 1447W        W 5511   2.882   8.367   2.259
 1448W        W 5512   0.452   5.879   1.523
 1449W        W 5513   8.537   8.213   3.606
 1450W        W 5514   5.337   1.855   3.506
 1451W        W 5515   7.657   5.835   9.586
 1452W        W 5516   3.531   7.998  10.919
 1453W        W 5517   3.170   6.242   2.378
 1454W        W 5518   1.391   0.941  10.389
 1455W        W 5519   5.166   5.186  11.058
 1456W        W 5520   5.710   4.383  11.954
 1457W        W 5521   6.963   6.467   8.945
 1458W        W 5522   7.023   2.841  10.251
 1459W        W 5523   7.938   8.614   1.613
 1460W        W 5524   9.789   9.790  11.916
 1461W        W 5525   1.732   1.158  11.697
 1462W        W 5526  10.366   4.501   0.685
 1463W        W 5527   5.650   4.225   0.470
 1464W        W 5528   9.865   3.053   3.449
 1465W        W 5529   6.030   1.220   1.224
 1466W        W 5530   0.240   0.972   2.259
 1467W        W 5531   3.622   0.754  10.215
 1468W        W 5532   4.425  10.493   1.528
 1469W        W 5533   8.848   3.286   3.222
 1470W        W 5534   4.249   0.831   9.460
 1471W        W 5535   6.462   2.478   0.394
 1472W        W 5536   6.574   0.311  10.929
 1473W        W 5537   2.714  10.319  11.138
 1474W        W 5538   5.310   9.776   1.738
 1475W        W 5539   3.282   1.368   1.187
 1476W        W 5540   2.265   0.047  11.051
 1477W        W 5541   1.360   5.717   1.477
 1478W        W 5542   7.954   0.288  11.555
 1479W        W 5543   9.080   3.740   0.170
 1480W        W 5544   1.703   1.172   9.262
 1481W        W 5545   7.146   1.298   1.242
 1482W        W 5546   9.796   3.299   1.290
 1483W        W 5547   3.620   5.085   3.110
 1484W        W 5548   8.521   5.214   1.255
 1485W        W 5549   8.353   3.658   9.409
 1486W        W 5550   2.673   8.169  10.358
 1487W        W 5551   3.618   7.478   0.694
 1488W        W 5552   5.993   5.093   9.330
 1489W        W 5553   8.343   9.247   0.274
 1490W        W 5554   7.050   9.415   1.456
 1491W        W 5555   6.196   7.480   9.315
 1492W        W 5556   8.112   4.015   0.799
 1493W        W 5557   8.183   9.950   9.462
 1494W        W 5558   0.829   0.584   1.008
 1495W        W 5559   7.333   5.094   0.672
 1496W        W 5560  10.456   1.342  11.380
 1497W        W 5561   3.815   9.287  10.384
 1498W        W 5562   2.753   7.411   2.320
 1499W        W 5563   8.977   3.166   0.930
 1500W        W 5564   4.026   7.452  11.984
 1501W        W 5565   6.742   7.749  11.041
 1502W        W 5566   9.499   4.067   3.389
 1503W        W 5567   1.631   5.171   3.209
 1504W        W 5568   4.675   9.983   9.845
 1505W        W 5569   0.923   8.186   0.394
 1506W        W 5570   9.944   3.623   1.672
 1507W        W 5571   8.813   6.118  11.380
 1508W        W 5572   5.139   8.016   3.189
 1509W        W 5573   1.265   2.111  11.394
 1510W        W 5574   6.483   6.526   2.696
 1511W        W 5575   0.659   5.666   9.067
 1512W        W 5576   1.791   4.379   9.261
 1513W        W 5577   8.568   4.715   1.006
 1514W        W 5578   0.919   8.994  10.864
 1515W        W 5579   6.251   7.929   8.552
 1516W        W 5580   6.008   9.012   1.709
 1517W        W 5581   8.143   5.012   9.538
 1518W        W 5582   2.740   4.250   8.877
 1519W        W 5583   9.475   9.368  10.645
 1520W        W 5584   3.730   7.676   3.268
 1521W        W 5585   0.837   6.000  11.353
 1522W        W 5586   9.951   2.426   1.146
 1523W        W 5587   8.591   1.452   1.080
 1524W        W 5588   3.261   2.915   0.496
 1525W        W 5589   4.089   4.962   3.284
 1526W        W 5590   0.215   7.902   8.722
 1527W        W 5591   3.779   0.884   2.241
 1528W        W 5592  10.261   0.827  11.434
 1529W        W 5593  10.224   0.939   2.257
 1530W        W 5594   3.405   4.254   2.198
 1531W        W 5595   0.850   7.393   9.481
 1532W        W 5596   5.742   6.336  11.640
 1533W        W 5597   1.940   1.552   0.217
 1534W        W 5598   2.859   1.027   3.037
 1535W        W 5599   1.929   2.205   1.437
 1536W        W 5600   2.590   7.979   9.433
 1537W        W 5601   4.202   2.755   9.924
 1538W        W 5602   6.973   7.912   1.042
 1539W        W 5603   6.776  10.042   8.937
 1540W        W 5604   3.199   6.672   1.044
 1541W        W 5605   4.273   7.515   2.061
 1542W        W 5606   5.992   5.727   2.186
 1543W        W 5607   8.813   7.417  11.499
 1544W        W 5608   3.337   0.430   0.667
 1545W        W 5609  10.219   0.460  11.804
 1546W        W 5610   2.438  10.417  10.047
 1547W        W 5611   7.781   6.436   3.201
 1548W        W 5612   9.038   9.861   1.466
 1549W        W 5613   5.139   9.583  10.751
 1550W        W 5614   7.884   5.716  11.208
 1551W        W 5615  10.315   1.685   1.619
 1552W        W 5616   1.749   3.549   0.858
 1553W        W 5617   4.944   5.031   3.385
 1554W        W 5618   3.796   3.657   2.633
 1555W        W 5619   4.183   4.204   0.909
 1556W        W 5620   3.670   0.304  10.548
 1557W        W 5621   6.690   0.653   3.243
 1558W        W 5622   0.762   4.768   0.314
 1559W        W 5623   6.837   2.673   3.274
 1560W        W 5624   0.938   1.755   9.408
 1561W        W 5625   7.722   9.015   8.597
 1562W        W 5626   8.178   3.193   9.274
 1563W        W 5627   5.475   8.005  10.810
 1564W        W 5628   3.584   3.657  10.892
 1565W        W 5629   5.047   7.824   9.922
 1566W        W 5630   3.267   6.202   0.823
 1567W        W 5631   1.137   9.442   2.259
 1568W        W 5632   2.568   8.036   2.724
 1569W        W 5633   5.095  10.410   9.263
 1570W        W 5634   8.323   4.371   2.824
 1571W        W 5635   9.985   4.148   1.473
 1572W        W 5636   2.149   2.748   2.581
 1573W        W 5637   9.248   0.298  11.493
 1574W        W 5638   9.872   7.948  10.627
 1575W        W 5639   5.165   7.581   8.283
 1576W        W 5640   1.609   9.877   9.946
 1577W        W 5641   1.232   5.675   9.546
 1578W        W 5642   6.547   5.990  11.503
 1579W        W 5643   4.507   4.485   0.574
 1580W        W 5644   1.206   4.759   9.362
 1581W        W 5645   8.642   6.262   1.256
 1582W        W 5646   3.579   9.976   1.403
 1583W        W 5647  10.493   2.814  11.141
 1584W        W 5648   6.133   4.677   2.949
 1585W        W 5649  10.374   9.488   1.103
 1586W        W 5650   9.839   9.284  11.934
 1587W        W 5651   4.971   3.712   8.520
 1588W        W 5652   2.670   0.665   9.465
 1589W        W 5653   7.944   5.413  10.754
 1590W        W 5654   5.142   2.350   0.788
 1591W        W 5655   8.293   7.811   2.404
 1592W        W 5656   1.913   2.354  11.145
 1593W        W 5657   3.215   3.792   2.371
 1594W        W 5658   7.059   8.524   2.737
 1595W        W 5659   7.445   3.289   2.697
 1596W        W 5660   1.420   4.691   3.407
 1597W        W 5661   3.148   1.960   2.975
 1598W        W 5662   8.296  10.330   1.817
 1599W        W 5663   2.382   2.462   1.418
 1600W        W 5664   3.464   6.910   1.963
 1601W        W 5665   7.664   0.024   2.513
 1602W        W 5666   1.377   6.968   9.041
 1603W        W 5667   7.196  10.339   2.646
 1604W        W 5668   6.612   2.355   2.249
 1605W        W 5669   1.843   9.120   2.289
 1606W        W 5670   3.680   7.228  10.060
 1607W        W 5671   2.834   2.608   1.898
 1608W        W 5672   4.900   0.259   2.590
 1609W        W 5673   7.723   1.895   3.228
 1610W        W 5674   2.949   3.603   1.097
 1611W        W 5675   3.564   2.613   0.198
 1612W        W 5676   6.739   0.115   1.572
 1613W        W 5677   8.421   4.579   1.992
 1614W        W 5678   7.991   5.979   3.180
 1615W        W 5679   1.030   9.988   9.221
 1616W        W 5680   8.517   9.237  10.458
 1617W        W 5681   8.067   0.500   9.695
 1618W        W 5682   0.222  10.380   1.589
 1619W        W 5683   8.495   0.700   9.116
 1620W        W 5684   4.752   6.463   9.435
 1621W        W 5685   3.203   9.120  11.980
 1622W        W 5686  10.048   9.948   9.591
 1623W        W 5687  10.090   4.740  10.952
 1624W        W 5688   2.164   1.668  11.719
 1625W        W 5689   1.074   0.786  11.170
 1626W        W 5690   8.873   8.010   0.151
 1627W        W 5691   3.896   5.142   0.807
 1628W        W 5692   5.560   5.855   1.013
 1629W        W 5693  10.268   8.854   9.713
 1630W        W 5694   0.248   8.036   9.241
 1631W        W 5695   6.238   6.494   3.154
 1632W        W 5696   3.195   6.054   3.593
 1633W        W 5697   9.499   2.935   9.570
 1634W        W 5698   6.441   1.842   0.450
 1635W        W 5699   0.902   1.321   2.834
 1636W        W 5700   1.652   1.531   2.233
 1637W        W 5701   5.289   7.515   9.282
 1638W        W 5702   8.822   9.972  10.741
 1639W        W 5703   8.238   7.857   0.290
 1640W        W 5704   1.388   1.979   9.561
 1641W        W 5705   4.174   9.948  10.003
 1642W        W 5706   4.933   6.491   1.454
 1643W        W 5707   2.015   8.015   0.932
 1644W        W 5708   1.300   0.783   9.063
 1645W        W 5709   6.956   0.408  10.015
 1646W        W 5710   7.226   1.870   3.347
 1647W        W 5711   3.636   1.740   0.219
 1648W        W 5712   3.307   3.649   2.858
 1649W        W 5713   2.115   3.845   0.169
 1650W        W 5714   9.447   3.238  10.000
 1651W        W 5715   8.281   6.285  10.801
 1652W        W 5716   6.644   4.988   0.441
 1653W        W 5717   1.090   5.158  11.411
 1654W        W 5718   0.462   1.313  10.012
 1655W        W 5719   9.855   7.634   2.703
 1656W        W 5720   0.003   7.230   2.148
 1657W        W 5721   4.231   5.144  11.007
 1658W        W 5722   3.103   8.213  11.823
 1659W        W 5723   1.028  10.001   0.175
 1660W        W 5724   9.627   6.204   9.964
 1661W        W 5725   8.682   6.026   2.237
 1662W        W 5726   7.536   2.401   3.273
 1663W        W 5727   4.107   0.326   2.281
 1664W        W 5728   1.941   1.710  10.652
 1665W        W 5729   1.741   4.056  11.815
 1666W        W 5730   0.516   2.707  10.211
 1667W        W 5731   6.884   2.568   9.267
 1668W        W 5732   6.960   5.870   0.861
 1669W        W 5733   6.219   0.907  11.923
 1670W        W 5734   2.928   5.638   2.957
 1671W        W 5735  10.350   3.697   1.960
 1672W        W 5736   9.188   3.758  11.341
 1673W        W 5737   6.243   4.089   3.104
 1674W        W 5738   6.280  10.089   0.874
 1675W        W 5739   0.695   0.856   1.419
 1676W        W 5740   8.755   4.638   0.293
 1677W        W 5741   4.580   4.773  11.221
 1678W        W 5742   1.416   1.876  10.504
 1679W        W 5743   5.812   9.848   1.756
 1680W        W 5744   5.130   8.488  11.635
 1681W        W 5745   4.056   7.517   0.976
 1682W        W 5746   4.681   5.577   2.975
 1683W        W 5747   4.572   0.337   2.079
 1684W        W 5748   9.522   1.112   9.024
 1685W        W 5749  10.204   1.864  11.059
 1686W        W 5750   6.678   7.626   8.554
 1687W        W 5751   7.926   6.065   2.657
 1688W        W 5752   5.012   3.342   8.955
 1689W        W 5753   3.671   6.348  11.772
 1690W        W 5754   7.886   5.930  10.724
 1691W        W 5755   3.803   5.963   2.700
 1692W        W 5756   4.218   5.175  11.547
 1693W        W 5757   6.576   5.725   3.359
 1694W        W 5758   2.982   4.715   8.954
 1695W        W 5759   2.652   3.791   2.658
 1696W        W 5760   0.801   2.838   3.255
 1697W        W 5761   5.992   9.160   0.188
 1698W        W 5762   5.500   8.933   1.984
 1699W        W 5763   7.022   6.080  11.328
 1700W        W 5764   1.355   9.133  11.765
 1701W        W 5765   3.415   8.013   2.947
 1702W        W 5766   2.630   4.085   9.367
 1703W        W 5767   5.011   3.631   3.731
 1704W        W 5768   7.087   2.829  11.844
 1705W        W 5769   8.166   4.164   1.302
 1706W        W 5770   5.163   3.285  11.240
 1707W        W 5771   5.667   1.880   1.390
 1708W        W 5772   4.033   3.222   1.885
 1709W        W 5773   7.402   0.817   2.119
 1710W        W 5774   7.035   1.435  11.727
 1711W        W 5775   7.961   3.989   2.806
 1712W        W 5776   5.242   1.691   0.503
 1713W        W 5777   9.374   0.806   3.574
 1714W        W 5778   8.376   8.830   1.389
 1715W        W 5779  10.124   7.107  10.078
 1716W        W 5780   0.395   2.269  10.468
 1717W        W 5781   4.014   1.964   3.289
 1718W        W 5782   3.037   1.675   1.983
 1719W        W 5783   8.406   5.971  10.416
 1720W        W 5784   2.220   0.935   9.469
 1721W        W 5785   0.427   3.886  11.892
 1722W        W 5786  10.022   1.762   2.366
 1723W        W 5787   4.196   9.622  10.415
 1724W        W 5788   5.254   6.610   9.456
 1725W        W 5789   9.131   1.320   3.547
 1726W        W 5790   5.405   5.573   1.404
 1727W        W 5791   7.421   6.234   9.352
 1728W        W 5792   5.197   4.806   0.862
 1729W        W 5793   1.708   9.458  11.955
 1730W        W 5794   2.846   8.833   0.214
 1731W        W 5795   0.245   5.046   3.152
 1732W        W 5796   8.918   4.571   1.694
 1733W        W 5797   4.764  10.336   2.953
 1734W        W 5798   5.699   4.521  11.185
 1735W        W 5799   7.725  10.432  10.434
 1736W        W 5800   8.159   6.774  11.549
 1737W        W 5801   0.460   7.225   0.042
 1738W        W 5802   7.430   4.810   9.476
 1739W        W 5803   5.964   7.879  10.092
 1740W        W 5804   0.143   7.527  10.502
 1741W        W 5805   7.936   9.215   9.614
 1742W        W 5806   6.287   7.015  10.049
 1743W        W 5807   8.603   5.142   0.368
 1744W        W 5808   9.417   4.692   0.514
 1745W        W 5809   5.533   4.790   2.321
 1746W        W 5810   5.573   3.627  11.251
 1747W        W 5811   7.984   8.800   9.952
 1748W        W 5812   9.465   0.345   0.407
 1749W        W 5813   8.985   7.213   9.405
 1750W        W 5814   8.908   8.073   9.608
 1751W        W 5815   7.639   5.597  10.396
 1752W        W 5816   5.075   1.295   2.863
 1753W        W 5817   2.199   0.766   0.284
 1754W        W 5818   3.615   3.524   9.827
 1755W        W 5819  10.347   6.151   2.046
 1756W        W 5820   4.257   3.690   0.977
 1757W        W 5821   9.335   7.464   9.101
 1758W        W 5822   2.176   3.792   1.608
 1759W        W 5823   9.042   6.221  11.834
 1760W        W 5824   4.749   1.287   3.316
 1761W        W 5825  10.443   1.851   2.093
 1762W        W 5826   9.736   5.131  10.486
 1763W        W 5827   1.500   1.708  10.011
 1764W        W 5828   1.111   3.273   3.324
 1765W        W 5829   4.687   9.829   0.312
 1766W        W 5830  10.001   8.469   1.449
 1767W        W 5831   2.187   5.039  10.716
 1768W        W 5832   9.572   2.169   8.953
 1769W        W 5833   4.782   7.647  10.760
 1770W        W 5834   8.207   5.376  11.416
 1771W        W 5835   6.908   0.364   2.853
 1772W        W 5836   7.076   9.840   1.189
 1773W        W 5837   2.949   8.363  11.354
 1774W        W 5838   3.314   1.049   3.347
 1775W        W 5839   6.528   5.700   9.085
 1776W        W 5840   7.858   4.524   9.571
 1777W        W 5841   4.274   4.056   0.407
 1778W        W 5842   9.602   0.330   1.723
 1779W        W 5843   9.623   7.898   3.128
 1780W        W 5844   2.226   6.428   2.053
 1781W        W 5845   9.998   6.860  10.517
 1782W        W 5846   2.659   0.770   1.697
 1783W        W 5847   8.275   2.387   9.225
 1784W        W 5848  10.114   7.456  11.806
 1785W        W 5849   7.536   4.375   9.181
 1786W        W 5850   0.408   3.670   3.221
 1787W        W 5851   7.943   7.377   8.733
 1788W        W 5852   1.054   8.353   0.950
 1789W        W 5853   0.799   1.647   2.439
 1790W        W 5854   0.400   1.394   0.724
 1791W        W 5855   9.384   0.778   1.395
 1792W        W 5856   0.488   4.797  11.877
 1793W        W 5857   6.143   2.752   9.974
 1794W        W 5858   6.652   0.889   9.076
 1795W        W 5859   7.240   8.286   9.538
 1796W        W 5860   4.549   9.496  10.059
 1797W        W 5861   7.074   3.644   8.723
 1798W        W 5862   0.857   7.062   0.320
 1799W        W 5863   6.386   8.747   3.442
 1800W        W 5864   8.025  10.351   3.306
 1801W        W 5865   8.310   3.748  11.031
 1802W        W 5866  10.109   6.606   2.764
 1803W        W 5867   7.392   5.714  11.384
 1804W        W 5868   5.997   5.629  10.841
 1805W        W 5869   1.640   7.346   9.881
 1806W        W 5870   3.849   2.709   1.756
 1807W        W 5871   2.155   0.096   1.420
 1808W        W 5872   8.400   7.496   2.017
 1809W        W 5873   4.214   4.948   2.352
 1810W        W 5874   8.832   2.106  10.422
 1811W        W 5875   4.694   5.501   0.705
 1812W        W 5876   4.673   7.897   0.429
 1813W        W 5877   7.445   2.734  11.469
 1814W        W 5878   9.130   7.080  11.724
 1815W        W 5879  10.433   7.011   2.609
 1816W        W 5880   6.493   4.895   9.503
 1817W        W 5881   6.047   5.250  10.415
 1818W        W 5882   1.610   9.637  10.460
 1819W        W 5883   0.203   8.993  10.374
 1820W        W 5884   9.943   9.447   9.787
 1821W        W 5885   2.866   4.723  11.162
 1822W        W 5886   5.412   4.094  11.161
 1823W        W 5887  10.444   0.189   3.454
 1824W        W 5888   3.694   2.818   2.791
 1825W        W 5889   2.374   3.630  11.149
 1826W        W 5890   4.165   7.061   1.225
 1827W        W 5891   7.117   5.467   1.749
 1828W        W 5892   5.943   9.444   9.157
 1829W        W 5893   1.196   6.511   9.167
 1830W        W 5894   4.660   4.049   0.783
 1831W        W 5895  10.227   8.814  11.236
 1832W        W 5896   1.197   1.831   2.143
 1833W        W 5897  10.014   0.953   9.823
 1834W        W 5898   7.085   0.844   2.956
 1835W        W 5899   0.201   0.789   1.385
 1836W        W 5900   2.904   5.791   9.859
 1837W        W 5901   8.101   7.734   1.706
 1838W        W 5902   2.203   9.798   2.922
 1839W        W 5903   0.284   2.591  11.529
 1840W        W 5904   2.972   5.232  11.324
 1841W        W 5905   0.259   5.226  11.688
 1842W        W 5906   2.768   3.188   1.338
 1843W        W 5907   6.761   6.506   3.210
 1844W        W 5908   7.869   5.781   0.947
 1845W        W 5909   7.548   4.672  11.284
 1846W        W 5910   0.255   0.927  11.462
 1847W        W 5911   1.495   1.836   3.666
 1848W        W 5912   8.563   6.374   9.426
 1849W        W 5913   5.149   4.265   0.668
 1850W        W 5914   5.723  10.280   2.969
 1851W        W 5915   5.682   2.883   1.434
 1852W        W 5916   0.216  10.064  11.869
 1853W        W 5917   2.734   2.329   0.792
 1854W        W 5918   4.494   0.272  10.903
 1855W        W 5919   3.400   9.471   2.944
 1856W        W 5920  10.000   9.372  10.293
 1857W        W 5921   9.064   9.352   9.977
 1858W        W 5922   3.628   4.525  11.399
 1859W        W 5923   1.843   1.183   1.901
 1860W        W 5924   6.712   5.087   8.338
 1861W        W 5925   8.581   9.476  10.017
 1862W        W 5926   9.420   1.464   0.234
 1863W        W 5927   6.093   5.446   0.807
 1864W        W 5928   9.200   0.459   2.641
 1865W        W 5929   2.917   5.495  10.835
 1866W        W 5930   4.135   3.606  10.865
 1867W        W 5931   1.451  10.370   2.425
 1868W        W 5932   4.997   2.711  10.559
 1869W        W 5933   4.070   1.273   9.638
 1870W        W 5934   1.786   4.780  11.104
 1871W        W 5935   9.366  10.175   2.272
 1872W        W 5936   3.245   7.531   1.024
 1873W        W 5937   5.628   0.758  10.239
 1874W        W 5938   3.292   2.728   9.831
 1875W        W 5939   3.145   9.101   8.621
 1876W        W 5940   9.934   0.211  10.828
 1877W        W 5941   5.603   5.504   0.640
 1878W        W 5942   2.286   6.897  10.440
 1879W        W 5943   5.796   4.001  10.336
 1880W        W 5944   8.595  10.272  11.675
 1881W        W 5945   3.751   5.054  10.115
 1882W        W 5946   1.928   3.362   0.365
 1883W        W 5947   6.475   3.845   0.501
 1884W        W 5948   8.912   0.170  11.892
 1885W        W 5949   6.459   6.317   9.214
 1886W        W 5950   8.296   4.705   0.512
 1887W        W 5951   6.138   2.270   3.099
 1888W        W 5952   4.531   6.650  11.667
 1889W        W 5953   9.170   1.928   0.006
 1890W        W 5954   1.475   0.753  10.841
 1891W        W 5955   1.647   8.860   8.403
 1892W        W 5956   3.806   5.194   1.662
 1893W        W 5957   2.505   6.254   2.930
 1894W        W 5958  10.238   0.315   8.896
 1895W        W 5959  10.012   2.768  10.989
 1896W        W 5960   6.212   7.442   8.796
 1897W        W 5961   5.507   4.290   9.882
 1898W        W 5962   8.772   8.954  10.103
 1899W        W 5963   8.365   2.681  10.517
 1900W        W 5964   5.443   9.185   1.277
 1901W        W 5965   3.290   2.621  10.862
 1902W        W 5966   9.221   0.951   9.428
 1903W        W 5967   7.460   3.410   8.473
 1904W        W 5968   6.122   7.008   0.982
 1905W        W 5969   5.686   0.238  10.422
 1906W        W 5970   9.703   8.429   9.986
 1907W        W 5971   0.436   7.016   9.438
 1908W        W 5972   2.588   3.348   0.831
 1909W        W 5973   0.729   6.514   9.545
 1910W        W 5974   1.686   8.186   2.310
 1911W        W 5975   7.893   2.894  10.405
 1912W        W 5976   4.697   0.835   9.709
 1913W        W 5977   9.852   1.445   8.650
 1914W        W 5978   5.720   2.955  10.168
 1915W        W 5979   4.280   8.998   9.988
 1916W        W 5980   5.508   8.359   0.207
 1917W        W 5981   1.447   0.457   0.653
 1918W        W 5982   4.169   9.742   1.285
 1919W        W 5983   2.037   5.531  10.511
 1920W        W 5984   7.865   7.497   9.736
 1921W        W 5985   2.304   8.774  11.858
 1922W        W 5986   2.996   1.754   8.733
 1923W        W 5987   5.200   8.914   3.308
 1924W        W 5988   6.057   0.918  10.008
 1925W        W 5989   6.173   7.600   2.174
 1926W        W 5990   2.153   7.749   0.069
 1927W        W 5991   7.519   9.945   2.480
 1928W        W 5992   8.419   2.651   3.575
 1929W        W 5993  10.479   5.166   1.702
 1930W        W 5994   9.829   4.562   1.820
 1931W        W 5995   7.887   7.173  10.636
 1932W        W 5996   8.128   8.170   1.466
 1933W        W 5997   4.683   3.440  11.172
 1934W        W 5998   9.256   0.257   2.176
 1935W        W 5999   7.448   0.828  10.460
 1936W        W 6000   0.075   0.344   1.152
 1937W        W 6001   1.380   3.686  11.592
 1938W        W 6002  10.004   5.456   0.529
 1939W        W 6003  10.164   9.261   3.288
 1940W        W 6004   3.624   4.055  11.234
 1941W        W 6005   4.968   9.071   1.423
 1942W        W 6006   4.632   8.407  11.956
 1943W        W 6007   1.577   5.276  11.299
 1944W        W 6008   1.661   0.709   2.087
 1945W        W 6009   3.816   9.580   1.648
 1946W        W 6010   2.637   1.978   3.158
 1947W        W 6011   1.927   4.008   3.114
 1948W        W 6012   9.854   2.130   2.670
 1949W        W 6013   6.434   8.011   2.352
 1950W        W 6014   2.853   6.437  10.594
 1951W        W 6015   3.086   5.071   2.758
 1952W        W 6016   1.243   9.062  10.464
 1953W        W 6017   2.183   7.056   3.432
 1954W        W 6018   5.135   4.685   9.220
 1955W        W 6019   8.750   6.222   9.907
 1956W        W 6020   2.243   7.354   0.429
 1957W        W 6021   6.848   4.219   9.841
 1958W        W 6022   4.665   6.091  10.970
 1959W        W 6023   7.461   4.514   4.195
 1960W        W 6024   2.760   0.989  11.804
 1961W        W 6025   8.991   8.026  11.091
 1962W        W 6026   8.868   6.318   9.017
 1963W        W 6027   7.628   4.143  11.434
 1964W        W 6028   9.745   6.242   2.892
 1965W        W 6029   9.316   2.351  10.525
 1966W        W 6030   8.143   4.645   2.436
 1967W        W 6031   0.398   6.973   2.374
 1968W        W 6032  10.453   2.248  11.349
 1969W        W 6033   2.679   6.972   3.648
 1970W        W 6034   8.105   9.033   3.504
 1971W        W 6035   5.479   8.848   0.315
 1972W        W 6036   2.555   9.895  11.788
 1973W        W 6037   4.501   3.178   9.882
 1974W        W 6038   2.217  10.301   0.975
 1975W        W 6039   0.858   9.003  11.784
 1976W        W 6040   3.599  10.489   1.207
 1977W        W 6041   8.314   5.145   0.791
 1978W        W 6042   7.545   0.694   8.484
 1979W        W 6043   0.717   1.129   2.378
 1980W        W 6044   9.493   0.167  10.022
 1981W        W 6045   8.892   2.880   3.527
 1982W        W 6046   6.599   7.128  11.012
 1983W        W 6047   5.590   7.923   9.253
 1984W        W 6048   1.987   6.966   0.223
 1985W        W 6049   6.004   4.073   3.551
 1986W        W 6050   2.783  10.040   0.972
 1987W        W 6051   9.693   3.423   9.565
 1988W        W 6052   0.652   8.561   2.454
 1989W        W 6053   0.663   8.658   0.827
 1990W        W 6054   5.845   9.947   8.991
 1991W        W 6055   7.634   3.182  10.753
 1992W        W 6056   3.573   0.272   9.058
 1993W        W 6057   2.887   2.117  10.448
 1994W        W 6058   3.901   1.314   0.326
 1995W        W 6059   0.352   5.858  10.643
 1996W        W 6060   8.337   4.740  11.027
 1997W        W 6061   3.324   9.462  10.362
 1998W        W 6062   5.102   6.253   3.738
 1999W        W 6063   7.156   4.278  11.340
 2000W        W 6064   5.457   0.944   2.635
 2001W        W 6065   7.944   2.727   3.289
 2002W        W 6066   0.355   2.529   9.671
 2003W        W 6067  10.336   7.372   3.410
 2004W        W 6068   5.756   2.710   0.940
 2005W        W 6069   7.431   2.713  10.524
 2006W        W 6070   2.238   2.888   8.997
 2007W        W 6071   6.870   8.081   1.504
 2008W        W 6072   6.552   0.595   1.678
 2009W        W 6073  10.035   8.331   9.100
 2010W        W 6074   7.361   8.713   9.256
 2011W        W 6075   3.370   3.114   3.792
 2012W        W 6076   8.351   1.313   2.813
 2013W        W 6077   9.483   1.546   3.229
 2014W        W 6078   7.246   7.627   1.384
 2015W        W 6079   0.800   1.916   2.885
 2016W        W 6080   1.288   8.070   2.026
 2017W        W 6081   5.765   3.895   2.295
 2018W        W 6082   5.006   0.422   9.689
 2019W        W 6083  10.316   7.456   9.520
 2020W        W 6084   9.666  10.316   3.104
 2021W        W 6085   5.121   8.009   9.452
 2022W        W 6086   0.482   4.546  10.009
 2023W        W 6087   5.223   8.958  11.488
 2024W        W 6088   9.145   8.323  11.473
 2025W        W 6089   2.843   9.232   2.263
 2026W        W 6090   7.793   9.357   3.228
 2027W        W 6091  10.225   8.398   9.978
 2028W        W 6092   2.724   0.724   0.242
 2029W        W 6093   1.480   7.603   0.731
 2030W        W 6094   8.063   1.417  10.378
 2031W        W 6095   3.823   7.587  11.026
 2032W        W 6096   4.248   4.452   2.298
 2033W        W 6097   7.413   7.957   0.741
 2034W        W 6098   9.042   1.566  11.626
 2035W        W 6099   1.246   8.592   3.235
 2036W        W 6100   0.459   1.396  11.356
 2037W        W 6101   9.884   8.374  10.962
 2038W        W 6102   3.792   0.396   0.949
 2039W        W 6103   8.549   1.379   0.581
 2040W        W 6104   5.732   2.875   2.352
 2041W        W 6105   3.398   5.745   3.214
 2042W        W 6106   8.419   2.802   9.538
 2043W        W 6107   8.865   6.202   1.776
 2044W        W 6108   2.373   0.291   3.257
 2045W        W 6109   8.655   9.035   1.780
 2046W        W 6110   6.706   1.800   9.184
 2047W        W 6111   1.478   9.952   9.449
 2048W        W 6112   1.880   8.078  11.463
 2049W        W 6113   1.713   6.172   8.522
 2050W        W 6114   1.345   1.067   1.859
 2051W        W 6115  10.095   6.972  11.605
 2052W        W 6116   3.578   2.274   9.114
 2053W        W 6117   2.320   5.692   2.726
 2054W        W 6118   7.427   2.588   9.529
 2055W        W 6119   2.394   9.680  11.327
 2056W        W 6120   1.238   9.403  11.035
 2057W        W 6121  10.435   5.722  10.898
 2058W        W 6122   9.959   1.369  11.547
 2059W        W 6123   0.313   1.472   9.510
 2060W        W 6124  10.386   2.408   9.533
 2061W        W 6125   6.180   6.525   0.721
 2062W        W 6126   2.369   9.632  10.128
 2063W        W 6127   1.104   7.367  10.453
 2064W        W 6128   4.610   5.133   8.863
 2065W        W 6129   5.147   9.533   2.657
 2066W        W 6130   2.367   2.112   0.514
 2067W        W 6131   3.944   4.228   4.038
 2068W        W 6132   4.704   2.448   3.110
 2069W        W 6133   2.777   4.637   8.494
 2070W        W 6134   5.554   4.386   3.573
 2071W        W 6135   5.238   0.887  11.434
 2072W        W 6136   4.522   4.652   1.429
 2073W        W 6137   5.695   0.772   3.070
 2074W        W 6138   1.453   8.936   1.493
 2075W        W 6139   1.115   8.988  11.329
 2076W        W 6140   2.348   6.035   2.351
 2077W        W 6141   0.810   2.636   9.274
 2078W        W 6142   3.903   1.897  10.249
 2079W        W 6143   0.834   7.701   1.873
 2080W        W 6144   5.293   4.446  11.508
 2081W        W 6145   5.255   0.003  10.842
 2082W        W 6146   2.864   3.998   1.399
 2083W        W 6147   7.459   6.102  11.020
 2084W        W 6148   5.915   3.188   9.760
 2085W        W 6149   8.489   9.515   9.523
 2086W        W 6150   9.620  10.176  11.600
 2087W        W 6151   8.302   5.104  10.474
 2088W        W 6152   2.660   7.118   9.212
 2089W        W 6153   6.317   9.424   8.803
 2090W        W 6154   0.823   5.251   0.522
 2091W        W 6155  10.106   1.430   9.703
 2092W        W 6156   6.508   1.092   1.823
 2093W        W 6157   0.072   9.556   2.949
 2094W        W 6158   9.469   2.895  11.788
 2095W        W 6159   3.672   9.342  11.786
 2096W        W 6160   9.860   5.289   2.939
 2097W        W 6161   6.559   4.332   0.432
 2098W        W 6162   8.295  10.470  11.271
 2099W        W 6163   9.163   6.152   2.185
 2100W        W 6164   0.454   2.057   0.384
 2101W        W 6165   3.016   8.713  11.737
 2102W        W 6166   5.484   2.147   0.456
 2103W        W 6167   8.984   7.523  11.028
 2104W        W 6168   8.738   3.563  11.250
 2105W        W 6169   5.068   5.196   9.109
 2106W        W 6170   8.997   8.331  10.646
 2107W        W 6171   2.326   4.903   8.463
 2108W        W 6172   3.691   0.859   0.183
 2109W        W 6173   4.295   9.257   3.734
 2110W        W 6174   9.113   2.383   9.062
 2111W        W 6175   2.652   0.528   2.473
 2112W        W 6176   8.493   7.938  10.979
 2113W        W 6177   7.026   3.599   2.253
 2114W        W 6178   3.671  10.378   8.727
 2115W        W 6179   6.271   6.724  11.067
 2116W        W 6180   3.529   1.718   2.163
 2117W        W 6181   9.826   1.512  11.061
 2118W        W 6182   3.768   0.402   1.468
 2119W        W 6183  10.137  10.238   3.516
 2120W        W 6184   8.376   8.120   1.021
 2121W        W 6185   8.847   9.249  11.849
 2122W        W 6186   2.936   7.650   2.914
 2123W        W 6187   9.957   9.258  10.778
 2124W        W 6188   5.682   6.701   9.753
 2125W        W 6189   7.953   6.227  11.210
 2126W        W 6190   7.468   0.334   1.897
 2127W        W 6191   6.821   9.399  11.583
 2128W        W 6192   8.144   1.330   0.874
 2129W        W 6193   1.180   2.632  11.563
 2130W        W 6194   8.907   9.964   2.500
 2131W        W 6195   4.966   6.009  10.089
 2132W        W 6196   1.011   4.702   2.226
 2133W        W 6197   2.799   8.904  10.898
 2134W        W 6198   4.264   0.330   0.716
 2135W        W 6199  10.365   0.393  10.525
 2136W        W 6200   4.052   9.848   2.293
 2137W        W 6201   9.107   3.847  10.416
 2138W        W 6202   5.743   0.219   1.483
 2139W        W 6203   3.161   3.312   8.614
 2140W        W 6204   3.645   9.048   0.807
 2141W        W 6205   0.838   0.783   9.382
 2142W        W 6206   2.376   1.241   0.363
 2143W        W 6207   0.861   6.967   9.766
 2144W        W 6208   1.776   2.107   8.799
 2145W        W 6209   3.423   1.415  11.368
 2146W        W 6210   5.777   7.404   1.243
 2147W        W 6211   0.806   5.850   0.778
 2148W        W 6212   6.047   7.892   9.041
 2149W        W 6213   1.936  10.414  10.152
 2150W        W 6214   6.130   1.679   2.499
 2151W        W 6215   1.813   6.730   3.565
 2152W        W 6216   1.390   5.929  10.956
 2153W        W 6217   1.488   2.655   1.765
 2154W        W 6218   7.871   1.698   0.583
 2155W        W 6219   9.751   1.824   0.376
 2156W        W 6220   2.077   5.424   0.917
 2157W        W 6221   3.991   6.510   3.319
 2158W        W 6222   4.262   9.555   1.873
 2159W        W 6223   2.879   5.567  11.722
 2160W        W 6224   9.243   9.844   3.326
 2161W        W 6225   8.033   2.264   3.040
 2162W        W 6226   2.224   2.261   3.310
 2163W        W 6227   7.993  10.153   2.334
 2164W        W 6228   6.907  10.337  11.455
 2165W        W 6229   2.730   3.601   8.744
 2166W        W 6230   7.822   8.502  11.610
 2167W        W 6231   9.112  10.295  11.559
 2168W        W 6232   6.973   2.718   0.332
 2169W        W 6233   3.140   0.886   1.455
 2170W        W 6234   1.019   5.011   8.909
 2171W        W 6235   0.705  10.341   1.421
 2172W        W 6236   7.094   2.310   0.049
 2173W        W 6237   6.518   4.665   2.589
 2174W        W 6238   8.610   2.857  10.027
 2175W        W 6239   3.592   7.969  10.402
 2176W        W 6240   9.062   6.973   1.166
 2177W        W 6241   7.936   4.349   3.150
 2178W        W 6242   1.413   4.657  11.469
 2179W        W 6243   4.714   8.934  10.750
 2180W        W 6244   6.712   7.211  11.901
 2181W        W 6245   8.011   9.849   8.551
 2182W        W 6246   9.485   4.089   2.251
 2183W        W 6247   9.392   7.991  10.461
 2184W        W 6248   5.004   3.286  10.757
 2185W        W 6249   5.657   5.830  11.672
 2186W        W 6250   3.688   9.552   8.968
 2187W        W 6251   4.075  10.455   9.050
 2188W        W 6252   5.647   8.495   2.201
 2189W        W 6253   3.316   6.645  10.863
 2190W        W 6254   1.646   6.622   0.065
 2191W        W 6255   8.060   1.223  10.878
 2192W        W 6256   3.264   6.643  10.339
 2193W        W 6257   9.524   1.750   2.509
 2194W        W 6258   8.917   0.874   3.364
 2195W        W 6259   7.339   4.373  11.833
 2196W        W 6260   1.189   2.735  10.672
 2197W        W 6261   1.169   4.505   0.521
 2198W        W 6262   3.356   2.037   1.817
 2199W        W 6263   2.175   7.035  10.941
 2200W        W 6264   4.505   3.190   0.798
 2201W        W 6265   5.638   6.023   0.557
 2202W        W 6266   5.354   6.824   1.889
 2203W        W 6267   1.761   3.624   1.361
 2204W        W 6268   7.606   4.048   9.577
 2205W        W 6269   9.387   7.623   1.768
 2206W        W 6270   6.975   1.941  11.713
 2207W        W 6271   1.710   5.215  10.799
 2208W        W 6272   2.834   0.571   0.807
 2209W        W 6273   9.508   7.002   9.391
 2210W        W 6274   2.628   4.142   1.842
 2211W        W 6275   2.438   6.265  11.940
 2212W        W 6276   6.174   4.758   1.553
 2213W        W 6277   0.603   8.155   0.795
 2214W        W 6278   8.976   8.366   9.202
 2215W        W 6279   9.828   1.753   8.178
 2216W        W 6280   6.440   5.203   9.107
 2217W        W 6281   3.686   5.716  11.214
 2218W        W 6282   2.556   5.582  10.443
 2219W        W 6283   5.355   1.747  10.389
 2220W        W 6284   5.276   1.280   0.159
 2221W        W 6285   8.836   7.837   1.000
 2222W        W 6286   8.786   5.089  10.332
 2223W        W 6287   6.710   5.682   2.862
 2224W        W 6288   3.171   5.304   0.428
 2225W        W 6289   8.647   2.245   0.817
 2226W        W 6290   0.704   7.935  10.947
 2227W        W 6291   8.507   9.038   8.623
 2228W        W 6292   3.334   3.022   3.191
 2229W        W 6293   2.296   0.248   2.751
 2230W        W 6294   5.234   2.156   2.622
 2231W        W 6295   6.935   8.035   9.879
 2232W        W 6296   1.856   0.103   2.231
 2233W        W 6297   2.878   9.888  10.873
 2234W        W 6298   4.040   9.121  11.481
 2235W        W 6299   1.886   2.235   3.714
 2236W        W 6300   7.019   4.018   3.537
 2237W        W 6301   0.324   0.503   9.770
 2238W        W 6302   8.998   2.275   2.830
 2239W        W 6303   2.857   2.686   1.403
 2240W        W 6304   7.116   7.883   2.991
 2241W        W 6305   3.259   1.811   9.194
 2242W        W 6306   4.628   1.300   2.013
 2243W        W 6307   9.394   9.283   9.586
 2244W        W 6308   0.411   0.733   8.765
 2245W        W 6309  10.310   8.309  11.249
 2246W        W 6310   5.407   0.415   8.846
 2247W        W 6311   0.824  10.322  11.485
 2248W        W 6312   8.439   9.486   0.734
 2249W        W 6313   8.016   2.272   3.553
 2250W        W 6314   3.482   8.893  10.328
 2251W        W 6315   4.212   6.051   0.954
 2252W        W 6316   5.284   0.000   9.756
 2253W        W 6317   7.347   8.333   3.139
 2254W        W 6318   6.636   0.190   2.465
 2255W        W 6319   1.609   9.560   2.081
 2256W        W 6320   4.366   1.962  10.469
 2257W        W 6321   1.525   4.700   2.253
 2258W        W 6322   3.163   9.482   9.014
 2259W        W 6323   8.948   1.109  11.385
 2260W        W 6324   3.074   2.199  11.735
 2261W        W 6325   3.376   8.347   9.359
 2262W        W 6326   1.398   7.575   9.492
 2263W        W 6327   0.920   7.389  11.885
 2264W        W 6328   5.150   9.042   2.817
 2265W        W 6329   6.937   6.947   1.838
 2266W        W 6330   1.865   2.130  10.359
 2267W        W 6331   9.008   0.539   0.283
 2268W        W 6332   7.560   6.814   9.815
 2269W        W 6333   6.666   1.155   0.008
 2270W        W 6334   1.423   5.139  11.791
 2271W        W 6335   4.555   9.297  11.067
 2272W        W 6336   4.708   9.335   3.432
 2273W        W 6337   3.371   7.871  11.561
 2274W        W 6338   1.058  10.478  11.928
 2275W        W 6339   8.915   1.521   0.259
 2276W        W 6340   3.646   5.553   1.975
 2277W        W 6341   6.195   1.864  10.452
 2278W        W 6342   3.034   6.962   3.185
 2279W        W 6343   1.078   1.879   1.372
 2280W        W 6344   7.339   9.660  11.060
 2281W        W 6345   8.120   9.423   2.819
 2282W        W 6346   3.268   4.282   8.808
 2283W        W 6347   2.267   9.077  11.442
 2284W        W 6348   1.543   6.169   2.900
 2285W        W 6349   8.192   2.563  10.996
 2286W        W 6350   5.661   2.040  11.994
 2287W        W 6351   1.576   1.770   1.287
 2288W        W 6352   0.436   7.143  10.663
 2289W        W 6353   0.447   2.112  11.442
 2290W        W 6354   1.354   3.960   8.656
 2291W        W 6355   1.958   7.009   0.952
 2292W        W 6356   0.965   0.278   0.618
 2293W        W 6357   3.656   2.205   3.041
 2294W        W 6358   8.966   4.169   0.421
 2295W        W 6359   2.400   8.595   0.326
 2296W        W 6360   1.765   4.241  10.969
 2297W        W 6361   1.917   8.438   8.570
 2298W        W 6362   4.254   7.046   0.190
 2299W        W 6363   9.202   7.485   2.231
 2300W        W 6364   0.685   3.998   2.925
 2301W        W 6365   2.153   7.979   9.689
 2302W        W 6366   7.282   6.445   4.090
 2303W        W 6367   9.439   6.160   0.717
 2304W        W 6368   7.662   9.725   0.842
 2305W        W 6369   1.074   9.434   2.785
 2306W        W 6370   6.860   1.305   2.211
 2307W        W 6371   2.300   4.789   3.248
 2308W        W 6372   3.844   8.470   1.408
 2309W        W 6373   8.897   8.377   0.977
 2310W        W 6374   3.959   6.729   1.976
 2311W        W 6375   9.222   3.602   8.916
 2312W        W 6376   5.563   9.882   2.195
 2313W        W 6377   0.454   6.150  11.659
 2314W        W 6378   8.812   6.686   0.561
 2315W        W 6379   6.138   1.846  11.545
 2316W        W 6380  10.447   1.327   1.941
 2317W        W 6381   9.840   1.743  10.005
 2318W        W 6382   9.998   1.160   0.020
 2319W        W 6383   8.978   1.974   1.613
 2320W        W 6384   7.974   2.717   1.731
 2321W        W 6385   1.561   5.380   0.219
 2322W        W 6386   0.844   8.094  10.493
 2323W        W 6387   6.691   8.006   0.266
 2324W        W 6388   5.472   5.209   2.648
 2325W        W 6389   0.023   8.401   2.634
 2326W        W 6390   9.875   2.555   3.398
 2327W        W 6391   3.158   3.548   1.732
 2328W        W 6392   9.847   3.242  11.824
 2329W        W 6393   7.195   2.994   9.314
 2330W        W 6394   1.398   0.555   8.609
 2331W        W 6395   3.466   4.164  10.760
 2332W        W 6396   7.620   6.007   8.358
 2333W        W 6397   4.827   2.797   0.933
 2334W        W 6398   1.723   5.849   9.722
 2335W        W 6399   7.357   6.022   1.785
 2336W        W 6400   4.117   8.836   2.396
 2337W        W 6401   4.535   3.631  10.128
 2338W        W 6402   0.753   1.663   0.458
 2339W        W 6403   1.564   6.410   1.909
 2340W        W 6404   4.334   1.004  11.408
 2341W        W 6405   7.040   7.622  10.171
 2342W        W 6406   1.690   0.060   0.351
 2343W        W 6407   4.389   2.641  11.065
 2344W        W 6408   4.233   3.402  11.423
 2345W        W 6409   3.539   1.726   0.868
 2346W        W 6410   6.451   0.195   1.992
 2347W        W 6411   5.062   4.059   8.138
 2348W        W 6412   3.190   4.627  10.058
 2349W        W 6413   1.455   0.773  11.878
 2350W        W 6414   8.991   8.488  10.136
 2351W        W 6415   9.002   7.912   1.527
 2352W        W 6416   2.920   0.274   0.407
 2353W        W 6417   9.974   8.777  11.933
 2354W        W 6418   2.217   6.037  10.993
 2355W        W 6419   3.630   2.600   0.744
 2356W        W 6420  10.157   8.745  10.727
 2357W        W 6421   1.880   7.428  11.174
 2358W        W 6422   0.244   0.240   8.862
 2359W        W 6423   7.462   7.548  11.431
 2360W        W 6424   8.517   6.535  11.799
 2361W        W 6425   9.627   6.625   0.902
 2362W        W 6426   7.251   3.209   1.013
 2363W        W 6427   7.694   9.120   9.098
 2364W        W 6428   8.922   7.821  10.604
 2365W        W 6429   3.369   7.096   8.572
 2366W        W 6430   6.706   1.657  10.261
 2367W        W 6431   3.288   7.888   0.668
 2368W        W 6432   4.585   9.844   3.170
 2369W        W 6433   9.704  10.252   9.803
 2370W        W 6434   9.872   5.438  11.529
 2371W        W 6435   7.925  10.193   0.848
 2372W        W 6436   6.645   8.718   3.015
 2373W        W 6437   0.340   1.379   2.685
 2374W        W 6438   0.145   6.757  10.885
 2375W        W 6439   7.603   5.554   1.693
 2376W        W 6440   6.700   1.662   9.730
 2377W        W 6441   6.385   5.719   1.611
 2378W        W 6442   3.386   9.762  11.629
 2379W        W 6443   4.762   1.242  11.877
 2380W        W 6444   1.185   6.084   3.255
 2381W        W 6445   6.284   3.653   0.941
 2382W        W 6446   8.138   3.058  10.827
 2383W        W 6447   7.164   5.469   2.804
 2384W        W 6448   5.660  10.295   2.470
 2385W        W 6449   1.391   6.552  10.193
 2386W        W 6450   8.080   7.549  10.333
 2387W        W 6451   8.011   2.227   2.510
 2388W        W 6452   7.049   3.366  11.582
 2389W        W 6453   2.751   8.792  10.063
 2390W        W 6454  10.071   0.159   1.626
 2391W        W 6455   1.854   6.441   3.169
 2392W        W 6456   1.660   9.228  10.768
 2393W        W 6457   2.699   4.478   0.042
 2394W        W 6458   4.484   6.610   2.706
 2395W        W 6459   1.415   7.225   1.521
 2396W        W 6460   2.240   6.009  10.451
 2397W        W 6461   7.409   4.550   1.314
 2398W        W 6462   4.692   9.359   0.074
 2399W        W 6463   8.761   5.210   3.209
 2400W        W 6464   9.843   6.965   0.593
 2401W        W 6465   4.843   5.039   1.209
 2402W        W 6466   3.168   6.292   8.328
 2403W        W 6467   2.585   3.857  11.939
 2404W        W 6468   7.506   7.517   1.861
 2405W        W 6469   6.949   0.869   1.917
 2406W        W 6470   9.515   1.532   0.765
 2407W        W 6471   7.536   5.462   1.197
 2408W        W 6472   5.038   9.666   2.174
 2409W        W 6473   1.996   2.854   9.446
 2410W        W 6474   6.908   5.596  11.526
 2411W        W 6475   9.821   5.604   0.048
 2412W        W 6476   4.228   8.391   9.154
 2413W        W 6477   2.347   2.268   2.799
 2414W        W 6478   6.994   4.199   0.186
 2415W        W 6479   0.381   7.460   3.414
 2416W        W 6480   7.012   9.857  11.770
 2417W        W 6481   5.102   5.391  11.505
 2418W        W 6482   3.813   6.486   9.625
 2419W        W 6483   2.939   9.870   9.478
 2420W        W 6484   7.929   3.334  11.617
 2421W        W 6485   3.534   4.314   9.507
 2422W        W 6486   0.802   1.129   0.982
 2423W        W 6487   6.963   5.741   4.149
 2424W        W 6488   3.785   9.894   8.565
 2425W        W 6489   4.213   7.941   0.675
 2426W        W 6490   9.057   2.364   0.550
 2427W        W 6491   8.455   2.835   1.555
 2428W        W 6492   9.389   4.576   2.083
 2429W        W 6493   8.237   1.035   1.850
 2430W        W 6494   2.978   9.238   3.135
 2431W        W 6495   5.000   0.378   3.071
 2432W        W 6496   8.545   7.984   1.885
 2433W        W 6497   8.129   6.606   9.516
 2434W        W 6498   5.201   4.635  10.518
 2435W        W 6499   6.043  10.138   9.445
 2436W        W 6500   8.326   1.715   0.278
 2437W        W 6501   1.908   7.364   1.801
 2438W        W 6502   3.247   9.407   0.566
 2439W        W 6503   3.951   1.029   3.516
 2440W        W 6504   9.934   1.332   9.216
 2441W        W 6505   5.901   4.106  11.428
 2442W        W 6506   8.056   5.621   1.888
 2443W        W 6507   7.452   8.183   2.672
 2444W        W 6508  10.319   7.917   2.671
 2445W        W 6509  10.146   6.736   0.956
 2446W        W 6510   5.721  10.293  10.675
 2447W        W 6511   5.659   0.727  11.696
 2448W        W 6512   4.220  10.328  10.837
 2449W        W 6513   3.706   6.955   2.415
 2450W        W 6514   7.023   9.949   3.633
 2451W        W 6515   3.256   3.815  11.504
 2452W        W 6516   1.202   5.656  11.355
 2453W        W 6517   2.115   3.160   0.778
 2454W        W 6518  10.490   7.025  10.419
 2455W        W 6519   4.011   2.259   9.884
 2456W        W 6520   5.912   2.652   9.536
 2457W        W 6521   3.578   6.574  11.325
 2458W        W 6522   4.735   3.199   9.390
 2459W        W 6523   3.840   2.368   2.595
 2460W        W 6524   6.385   6.718   3.642
 2461W        W 6525   0.104   6.503   2.625
 2462W        W 6526   8.654   6.488   3.420
 2463W        W 6527   4.574   7.940   9.481
 2464W        W 6528   3.662   1.361  11.843
 2465W        W 6529   5.651   7.971   8.726
 2466W        W 6530   0.827   5.023   1.261
 2467W        W 6531   0.978   3.295  10.929
 2468W        W 6532   6.517   4.378   1.376
 2469W        W 6533   7.003   2.029  10.950
 2470W        W 6534   7.609   6.680  10.349
 2471W        W 6535   4.123   9.616   9.247
 2472W        W 6536   5.015   7.748   1.607
 2473W        W 6537   1.151   8.962   3.573
 2474W        W 6538   4.096   3.093   1.059
 2475W        W 6539   1.448   1.452   3.305
 2476W        W 6540   3.849   9.843   9.620
 2477W        W 6541   3.295   1.356   1.692
 2478W        W 6542   8.465  10.248   0.275
 2479W        W 6543   3.281   8.952   2.852
 2480W        W 6544   8.018   8.192   1.986
 2481W        W 6545   0.728   8.997  10.385
 2482W        W 6546   7.273   2.868   3.439
 2483W        W 6547   9.236  10.310   0.562
 2484W        W 6548   5.965   0.342   1.922
 2485W        W 6549   7.178   4.175   1.571
 2486W        W 6550   6.133   9.124   3.213
 2487W        W 6551   8.649   3.600   8.987
 2488W        W 6552  10.483   5.308   0.384
 2489W        W 6553   8.965   2.491   1.488
 2490W        W 6554   6.471   1.934   8.703
 2491W        W 6555   6.198   7.806   3.142
 2492W        W 6556  10.004   9.215   0.854
 2493W        W 6557  10.443   7.990  10.256
 2494W        W 6558   7.977   7.310   0.799
 2495W        W 6559   3.336   9.969   8.879
 2496W        W 6560   5.997   9.100   9.537
 2497W        W 6561   8.844   0.421   3.027
 2498W        W 6562   4.294   7.015   8.371
 2499W        W 6563   1.134   8.524   2.295
 2500W        W 6564   8.633   7.028  11.778
 2501W        W 6565   5.241   8.694   1.164
 2502W        W 6566   3.722   3.864   3.107
 2503W        W 6567   6.027   1.208   1.739
 2504W        W 6568  10.382   5.718   3.228
 2505W        W 6569   3.293   0.235   2.127
 2506W        W 6570  10.415   5.757   0.699
 2507W        W 6571   9.368   2.685   3.373
 2508W        W 6572  10.075   3.036   0.367
 2509W        W 6573   1.690   7.046   3.197
 2510W        W 6574   3.632   6.745   0.697
 2511W        W 6575   8.156   7.080   9.701
 2512W        W 6576   4.206   7.043   2.335
 2513W        W 6577   5.638   8.895   9.203
 2514W        W 6578   9.308   3.310   1.405
 2515W        W 6579   8.827   7.136   2.202
 2516W        W 6580   3.528   7.520   0.027
 2517W        W 6581   2.783   6.458   1.362
 2518W        W 6582   3.074   3.139   0.911
 2519W        W 6583   8.595   3.306   0.622
 2520W        W 6584   7.440   1.391   9.180
 2521W        W 6585   0.482   9.415  10.573
 2522W        W 6586   7.351   6.746   1.521
 2523W        W 6587   5.338   3.888   4.305
 2524W        W 6588   1.250   9.449   1.740
 2525W        W 6589   8.026   3.791   9.806
 2526W        W 6590   8.155   7.070   9.152
 2527W        W 6591   1.259   0.485   9.480
 2528W        W 6592   5.583   3.179   1.010
 2529W        W 6593   1.699   2.195   0.960
 2530W        W 6594   8.520   0.202   3.437
 2531W        W 6595   2.859   8.355   1.221
 2532W        W 6596   5.482   9.881   8.602
 2533W        W 6597   0.779   6.119  10.379
 2534W        W 6598   6.704   0.137   3.352
 2535W        W 6599   2.290   6.269   1.285
 2536W        W 6600   8.491   2.191   3.308
 2537W        W 6601   2.258   0.450  10.741
 2538W        W 6602   3.138   2.789   2.796
 2539W        W 6603   0.367   0.186   2.019
 2540W        W 6604   7.522   7.700  10.043
 2541W        W 6605   6.998   8.393   9.096
 2542W        W 6606   7.326   9.582   3.396
 2543W        W 6607   2.380   0.801  10.398
 2544W        W 6608   4.693   8.376   1.925
 2545W        W 6609   5.537   8.131  11.751
 2546W        W 6610   0.187   3.615  11.512
 2547W        W 6611   8.884   9.117  11.092
 2548W        W 6612  10.394   6.514  10.520
 2549W        W 6613   0.323   2.835   8.822
 2550W        W 6614   0.042   1.657   9.898
 2551W        W 6615   1.415  10.039  11.222
 2552W        W 6616   4.472   5.168   1.540
 2553W        W 6617   6.142   2.554   2.168
 2554W        W 6618   3.252   0.901  11.925
 2555W        W 6619   2.158   6.632   9.844
 2556W        W 6620   8.081   4.112   1.802
 2557W        W 6621   7.947   8.142   2.522
 2558W        W 6622   7.041   8.567  10.506
 2559W        W 6623   7.590   2.304   1.714
 2560W        W 6624   9.282   4.066   2.730
 2561W        W 6625   9.978   4.227   0.956
 2562W        W 6626   7.450   9.455   0.433
 2563W        W 6627   9.062   0.776   0.806
 2564W        W 6628   3.081   5.619  10.350
 2565W        W 6629   6.428   5.406   8.644
 2566W        W 6630   5.680   3.022  11.943
 2567W        W 6631   4.271   0.802   1.411
 2568W        W 6632   2.761   9.277  11.285
 2569W        W 6633   3.616   2.723  11.259
 2570W        W 6634   7.179   9.365   0.928
 2571W        W 6635   5.700   1.870   9.982
 2572W        W 6636   3.673   2.132   0.544
 2573W        W 6637   0.006   5.202   9.081
 2574W        W 6638   4.642   9.869  11.275
 2575W        W 6639  10.115   4.978   1.977
 2576W        W 6640   7.454   9.325   1.768
 2577W        W 6641   4.287   7.587  10.793
 2578W        W 6642   3.175   4.590  11.905
 2579W        W 6643  10.220   4.963  10.510
 2580W        W 6644   5.604   5.520  11.228
 2581W        W 6645   0.500   4.642   2.913
 2582W        W 6646   8.123   3.891   0.282
 2583W        W 6647   2.430   8.456   2.468
 2584W        W 6648   1.278   4.213   9.296
 2585W        W 6649   7.968   0.786  11.376
 2586W        W 6650   3.375   0.896   1.926
 2587W        W 6651   5.655   5.006   0.711
 2588W        W 6652   1.978   1.602   1.593
 2589W        W 6653   4.067   5.758   9.191
 2590W        W 6654   6.557   8.446   1.258
 2591W        W 6655   3.663   6.736   8.796
 2592W        W 6656   1.800   1.061   0.175
 2593W        W 6657   5.092   7.354   3.009
 2594W        W 6658   6.150   8.657   2.926
 2595W        W 6659   1.384   5.878   0.259
 2596W        W 6660   3.057   6.531  11.354
 2597W        W 6661   0.875   9.303   8.982
 2598W        W 6662   3.103   9.961  10.272
 2599W        W 6663   2.514   7.206   1.920
 2600W        W 6664   0.392   7.763  10.111
 2601W        W 6665   7.272   3.660   0.750
 2602W        W 6666   2.928   1.728   1.454
 2603W        W 6667   1.978   3.084   3.185
 2604W        W 6668   3.731   1.872  10.752
 2605W        W 6669   9.345   2.858  10.402
 2606W        W 6670   0.844   1.378   1.446
 2607W        W 6671   1.287   3.480   2.012
 2608W        W 6672   3.096   8.814   2.409
 2609W        W 6673  10.279   9.869  10.316
 2610W        W 6674   3.788  10.423  11.694
 2611W        W 6675   1.408   5.211   9.180
 2612W        W 6676   1.313   8.295   0.060
 2613W        W 6677   6.080   4.798  10.143
 2614W        W 6678   1.311   2.323   3.578
 2615W        W 6679   3.421   5.024   3.604
 2616W        W 6680   3.976   5.722   0.174
 2617W        W 6681   6.695   3.668  10.534
 2618W        W 6682   8.461   1.849   9.897
 2619W        W 6683   2.712   6.707   2.754
 2620W        W 6684   4.236   9.872   0.723
 2621W        W 6685   8.208   6.522   1.290
 2622W        W 6686   8.918   0.028   9.528
 2623W        W 6687   5.065   9.400  10.244
 2624W        W 6688   6.515  10.313  11.105
 2625W        W 6689   7.230   7.278  11.800
 2626W        W 6690   6.593   1.246  11.021
 2627W        W 6691   2.021   1.839  11.224
 2628W        W 6692   9.572   5.520  10.779
 2629W        W 6693   0.504   4.654   2.359
 2630W        W 6694   9.416   4.721   1.554
 2631W        W 6695   8.474   4.300   8.994
 2632W        W 6696   8.298   8.788  10.420
 2633W        W 6697   6.753   8.425   9.590
 2634W        W 6698   6.408   8.166   9.313
 2635W        W 6699   2.258   3.398  11.977
 2636W        W 6700   6.441   7.919   9.905
 2637W        W 6701   0.690   5.404   2.840
 2638W        W 6702   2.781   0.751   8.568
 2639W        W 6703   8.613   0.486  10.805
 2640W        W 6704   7.505   6.216  11.512
 2641W        W 6705   1.969   0.838  10.932
 2642W        W 6706   6.038   9.982   3.298
 2643W        W 6707   8.897  10.400   2.199
 2644W        W 6708   6.417   5.506  11.655
 2645W        W 6709   7.067   4.415   9.407
 2646W        W 6710   8.616   5.901   0.461
 2647W        W 6711   5.805   9.916   0.890
 2648W        W 6712   2.094   3.896   2.648
 2649W        W 6713   7.390   2.268  11.217
 2650W        W 6714   5.650   7.805   1.848
 2651W        W 6715  10.291   0.760   8.621
 2652W        W 6716   1.439   8.464   8.693
 2653W        W 6717   9.836   3.850   0.650
 2654W        W 6718   0.868   2.222  11.727
 2655W        W 6719   9.714   0.267  11.748
 2656W        W 6720   2.174   0.887   3.316
 2657W        W 6721   4.836   6.866   1.873
 2658W        W 6722   0.262  10.376   0.311
 2659W        W 6723   1.624   0.747   9.978
 2660W        W 6724   9.238   2.719   0.206
 2661W        W 6725   8.889   0.652   2.124
 2662W        W 6726   4.376   6.524   8.174
 2663W        W 6727   4.035   2.889   9.023
 2664W        W 6728   8.549   3.366  10.791
 2665W        W 6729   9.963   3.518  10.539
 2666W        W 6730   8.905   4.563   9.148
 2667W        W 6731   0.494   9.052   1.658
 2668W        W 6732   5.152   0.407   0.210
 2669W        W 6733   8.270   8.087   8.641
 2670W        W 6734   4.459   1.680   3.571
 2671W        W 6735   7.696   0.337   9.395
 2672W        W 6736   8.923   4.725   3.119
 2673W        W 6737   3.816   5.366  11.864
 2674W        W 6738   2.843   2.115   1.776
 2675W        W 6739   7.520  10.499   9.019
 2676W        W 6740   2.528  10.163   9.369
 2677W        W 6741   7.817   5.304   0.762
 2678W        W 6742   6.559   7.724  11.845
 2679W        W 6743   3.078   4.311   9.286
 2680W        W 6744   4.780   7.344   0.380
 2681W        W 6745   7.923   8.046  11.799
 2682W        W 6746   3.799   3.313  10.552
 2683W        W 6747   2.195   5.714   9.062
 2684W        W 6748   0.013   6.102  11.906
 2685W        W 6749  10.189   0.337   2.551
 2686W        W 6750   3.206   9.111   9.960
 2687W        W 6751   9.448   4.734   1.028
 2688W        W 6752   5.981   1.243   2.262
 2689W        W 6753   8.707   6.674   8.651
 2690W        W 6754   2.843   2.869  10.803
 2691W        W 6755   5.085   8.106  11.966
 2692W        W 6756   9.314   2.884   0.668
 2693W        W 6757   1.381   4.179   1.452
 2694W        W 6758   7.362   9.501  10.247
 2695W        W 6759   4.078   0.590  10.368
 2696W        W 6760   4.262   1.901   8.885
 2697W        W 6761   8.987   5.598   2.937
 2698W        W 6762   4.507   2.840  10.586
 2699W        W 6763   2.829   4.606   1.993
 2700W        W 6764   7.651   8.496  11.138
 2701W        W 6765  10.247   2.355   1.976
 2702W        W 6766  10.257  10.403   0.340
 2703W        W 6767  10.163   2.672  11.500
 2704W        W 6768   7.820   2.267   8.986
 2705W        W 6769   8.093   0.911  11.914
 2706W        W 6770   4.086   5.154   2.802
 2707W        W 6771   3.322   4.650   8.452
 2708W        W 6772   8.485  10.228  10.440
 2709W        W 6773   8.150   5.688   9.784
 2710W        W 6774   3.229   3.957   3.448
 2711W        W 6775   9.512   6.233   1.243
 2712W        W 6776   5.005   1.261   9.714
 2713W        W 6777   3.002   8.292   3.149
 2714W        W 6778   0.417  10.005  11.383
 2715W        W 6779   0.702   4.819   9.267
 2716W        W 6780   1.808   4.748   2.997
 2717W        W 6781   8.413  10.125   3.592
 2718W        W 6782   2.448   8.223  11.280
 2719W        W 6783   7.183  10.445   1.719
 2720W        W 6784   2.875   1.850  10.995
 2721W        W 6785   1.166   5.096   0.890
 2722W        W 6786   6.382   5.284  10.801
 2723W        W 6787   5.644   6.525   2.213
 2724W        W 6788   4.544   1.477  10.433
 2725W        W 6789   2.423   1.248   2.668
 2726W        W 6790   4.140   7.405   9.922
 2727W        W 6791   5.446   1.323   8.934
 2728W        W 6792   3.720   6.003   2.208
 2729W        W 6793   6.147   0.796   2.024
 2730W        W 6794   0.266   6.351   9.748
 2731W        W 6795   6.264   8.498  11.458
 2732W        W 6796  10.337   8.976   1.178
 2733W        W 6797   4.104   2.639   3.566
 2734W        W 6798   7.651   1.170  10.095
 2735W        W 6799  10.190   2.630   0.684
 2736W        W 6800   3.660   6.518   1.181
 2737W        W 6801   6.227   6.945   2.822
 2738W        W 6802   9.048   1.311   0.742
 2739W        W 6803   9.099   7.948   2.034
 2740W        W 6804   2.773   8.991   1.651
 2741W        W 6805   2.643   1.479  11.802
 2742W        W 6806   0.298   9.447   1.998
 2743W        W 6807   1.312   6.843   0.429
 2744W        W 6808   4.784   2.094   3.566
 2745W        W 6809  10.227   3.052   1.205
 2746W        W 6810   5.506   3.793   9.966
 2747W        W 6811   7.802   4.200  10.035
 2748W        W 6812   4.873   1.679  11.475
 2749W        W 6813   6.470  10.338   0.402
 2750W        W 6814   2.535   1.866   0.982
 2751W        W 6815   7.011   7.891   8.874
 2752W        W 6816   0.310  10.212  10.944
 2753W        W 6817  10.452   6.102   9.368
 2754W        W 6818   3.801   7.936  11.867
 2755W        W 6819   1.218   0.895   0.832
 2756W        W 6820   5.273   1.311   3.421
 2757W        W 6821   2.284   5.243   1.391
 2758W        W 6822   2.728   4.996   1.354
 2759W        W 6823   0.783   9.587   9.397
 2760W        W 6824   3.342   4.408   4.260
 2761W        W 6825   4.048   9.310  10.959
 2762W        W 6826   3.035   7.119  10.877
 2763W        W 6827   0.829   2.061   3.630
 2764W        W 6828   9.604   5.114   9.573
 2765W        W 6829   8.603   3.792   0.402
 2766W        W 6830   0.411  10.481   9.280
 2767W        W 6831   4.540   5.707  10.052
 2768W        W 6832   3.156  10.454   8.713
 2769W        W 6833   7.108   8.778   3.230
 2770W        W 6834   7.902   2.790   9.494
 2771W        W 6835   9.328   9.078  11.712
 2772W        W 6836   5.602   0.912   9.730
 2773W        W 6837   8.265   4.176  11.779
 2774W        W 6838   8.817   5.588   9.142
 2775W        W 6839   5.072   3.422   4.214
 2776W        W 6840   4.382   4.307  11.326
 2777W        W 6841   9.501   5.930  11.804
 2778W        W 6842   2.774   4.394   9.782
 2779W        W 6843   2.178   6.045   3.274
 2780W        W 6844   5.145   1.081   1.414
 2781W        W 6845   7.760  10.444   9.866
 2782W        W 6846   4.689   2.208   8.850
 2783W        W 6847   0.412   0.004   9.800
 2784W        W 6848   8.486   0.796   2.790
 2785W        W 6849   6.553   7.433  11.427
 2786W        W 6850   4.380   8.775  11.650
 2787W        W 6851   3.778   9.963   0.942
 2788W        W 6852   8.403   2.634   2.021
 2789W        W 6853   9.570   8.658   1.625
 2790W        W 6854   2.079   9.406  10.512
 2791W        W 6855   0.054   4.500   2.585
 2792W        W 6856   8.428   4.683   3.227
 2793W        W 6857   8.495   9.612   8.542
 2794W        W 6858   2.665   7.845  10.846
 2795W        W 6859   4.428   2.002   1.012
 2796W        W 6860   6.012   7.683   2.682
 2797W        W 6861   1.705   6.346   9.855
 2798W        W 6862   7.955   0.327   1.102
 2799W        W 6863   1.837   0.445   1.200
 2800W        W 6864   8.048   1.420   9.872
 2801W        W 6865   7.457   2.654  10.027
 2802W        W 6866   8.873   3.968   2.450
 2803W        W 6867   3.133   0.208   3.160
 2804W        W 6868   9.971   5.654  11.065
 2805W        W 6869   2.876   5.681   3.450
 2806W        W 6870   8.790   4.223   9.988
 2807W        W 6871   9.895   7.060  11.137
 2808W        W 6872   8.381   5.813   2.653
 2809W        W 6873   8.357   3.520   2.363
 2810W        W 6874   4.591   2.752   9.591
 2811W        W 6875   4.538   6.170   9.825
 2812W        W 6876   0.419   9.769   0.766
 2813W        W 6877   0.512   4.638  11.049
 2814W        W 6878   1.745   4.607   1.475
 2815W        W 6879   5.225   8.384   9.910
 2816W        W 6880   5.511   4.634   1.739
 2817W        W 6881   0.944   4.482   8.982
 2818W        W 6882   2.803   8.624   8.888
 2819W        W 6883   0.979   0.989  10.717
 2820W        W 6884   0.347   7.479   9.675
 2821W        W 6885   4.779   4.598   3.002
 2822W        W 6886   5.100   5.900   1.817
 2823W        W 6887   8.430   4.247  10.337
 2824W        W 6888   6.970   9.405   1.959
 2825W        W 6889   2.254   6.485   3.512
 2826W        W 6890   5.252   1.396  11.180
 2827W        W 6891   7.410   4.190   0.509
 2828W        W 6892   0.276   8.844   2.660
 2829W        W 6893   2.443   0.271   1.023
 2830W        W 6894   7.891   1.392   2.601
 2831W        W 6895   8.188   5.995   2.209
 2832W        W 6896  10.204   8.861  10.237
 2833W        W 6897   1.394   8.811  10.898
 2834W        W 6898   4.264   1.251  10.969
 2835W        W 6899   1.868   8.464   1.166
 2836W        W 6900   3.927   8.807   9.546
 2837W        W 6901   5.195   2.349   3.713
 2838W        W 6902   0.813   9.036   1.146
 2839W        W 6903   7.380   1.840   1.873
 2840W        W 6904   7.641   9.540   8.761
 2841W        W 6905   5.920   0.414   8.626
 2842W        W 6906   8.021   3.829  11.465
 2843W        W 6907   1.314   4.463  10.941
 2844W        W 6908   0.415   4.980   0.677
 2845W        W 6909   8.914   5.787   0.068
 2846W        W 6910   6.963   1.359   8.968
 2847W        W 6911   7.812   9.858  11.144
 2848W        W 6912   6.854   8.494   0.405
 2849W        W 6913   5.159   0.838   9.967
 2850W        W 6914   5.596   5.030  10.336
 2851W        W 6915   3.652   8.572   9.941
 2852W        W 6916   8.786  10.381   1.686
 2853W        W 6917   2.568   3.557   0.340
 2854W        W 6918   8.436   1.460   9.543
 2855W        W 6919   5.034   5.691  10.908
 2856W        W 6920   8.596   9.086   1.012
 2857W        W 6921   3.354   2.650  11.691
 2858W        W 6922   0.122   7.522   2.529
 2859W        W 6923   5.699   2.160  10.413
 2860W        W 6924   5.885   6.043   9.034
 2861W        W 6925   9.464   6.622   9.732
 2862W        W 6926   1.157   4.711   9.946
 2863W        W 6927   9.385   2.254   2.500
 2864W        W 6928   4.688   4.609   8.901
 2865W        W 6929   4.224   2.745   2.684
 2866W        W 6930   3.111   5.322   1.402
 2867W        W 6931   0.903   6.995   2.256
 2868W        W 6932   8.406   0.255   0.257
 2869W        W 6933   1.740   1.239  10.734
 2870W        W 6934  10.435   8.108   0.531
 2871W        W 6935   7.209  10.018   9.738
 2872W        W 6936   3.563   2.857  10.527
 2873W        W 6937   4.108   4.739   4.164
 2874W        W 6938   3.940  10.315  10.342
 2875W        W 6939   0.442   9.969   9.318
 2876W        W 6940   6.078  10.426   2.197
 2877W        W 6941   6.522   8.612  10.589
 2878W        W 6942   2.463   0.549   8.976
 2879W        W 6943   5.602   5.991   1.961
 2880W        W 6944   7.593   4.048   1.926
 2881W        W 6945   9.474   8.565  11.822
 2882W        W 6946   1.899   0.328   9.827
 2883W        W 6947   8.872   7.522   1.840
 2884W        W 6948   7.486   4.167   3.340
 2885W        W 6949   3.210   7.884   9.088
 2886W        W 6950   3.711   8.710   0.406
 2887W        W 6951   1.304   2.339   8.686
 2888W        W 6952   1.223   2.426   0.944
 2889W        W 6953   3.732   9.072   9.923
 2890W        W 6954   0.361   3.244   0.302
 2891W        W 6955   4.368   2.620  11.722
 2892W        W 6956   0.210   7.526   9.172
 2893W        W 6957   8.508   7.526  10.614
 2894W        W 6958   5.254   6.167   2.275
 2895W        W 6959  10.408   0.472   0.687
 2896W        W 6960   1.353   1.215   9.972
 2897W        W 6961   7.037   5.692   8.228
 2898W        W 6962   4.205   8.275  11.704
 2899W        W 6963  10.371   5.406   2.173
 2900W        W 6964   4.467   6.539   9.005
 2901W        W 6965   4.229   4.895   9.114
 2902W        W 6966   1.382   8.460   1.322
 2903W        W 6967   3.447   5.368  11.519
 2904W        W 6968   3.240   3.326  10.455
 2905W        W 6969   3.651   4.027   9.918
 2906W        W 6970   1.794   9.864   1.698
 2907W        W 6971   4.035   2.100   9.380
 2908W        W 6972   9.323   7.523  10.130
 2909W        W 6973   7.633   0.628   3.580
 2910W        W 6974   2.050   9.591   2.360
 2911W        W 6975   0.620   5.378   0.970
 2912W        W 6976   0.419   3.331   8.971
 2913W        W 6977   6.609   5.960   8.318
 2914W        W 6978   2.446   1.676  10.785
 2915W        W 6979   9.226   7.535   0.784
 2916W        W 6980   8.974   1.128  11.914
 2917W        W 6981   6.053   4.640   9.586
 2918W        W 6982   3.114   5.680   9.409
 2919W        W 6983   6.740   6.414   0.430
 2920W        W 6984  10.494   0.745   9.088
 2921W        W 6985   5.429   1.796   2.981
 2922W        W 6986   3.777   5.479   9.818
 2923W        W 6987   6.963   9.387   9.504
 2924W        W 6988   5.661   7.490   8.541
 2925W        W 6989   8.420   9.356   1.424
 2926W        W 6990   2.124   8.889  10.565
 2927W        W 6991   1.696   9.391   1.468
 2928W        W 6992   9.893   5.890   3.242
 2929W        W 6993   1.122   9.422   3.321
 2930W        W 6994   6.466   4.222   3.737
 2931W        W 6995   6.515   8.925  11.006
 2932W        W 6996   6.782   3.621   0.851
 2933W        W 6997   1.749   3.566  11.940
 2934W        W 6998   1.502   8.045   1.018
 2935W        W 6999   0.763   5.691   1.976
 2936W        W 7000   1.683   1.761   2.954
 2937W        W 7001   7.228   6.730   9.404
 2938W        W 7002   2.162   5.690  11.384
 2939W        W 7003   4.777   9.961  10.784
 2940W        W 7004   7.808   5.090  10.364
 2941W        W 7005   9.763   5.034   0.434
 2942W        W 7006   3.417   8.829   9.546
 2943W        W 7007  10.406   8.865  11.712
 2944W        W 7008   6.415   5.589   9.932
 2945W        W 7009   1.172   4.063   2.826
 2946W        W 7010   9.508   9.132   1.853
 2947W        W 7011   1.856  10.236   9.248
 2948W        W 7012   8.362   4.651  11.939
 2949W        W 7013   4.066  10.459   0.133
 2950W        W 7014   2.562   1.615   1.814
 2951W        W 7015   0.350   9.093   9.876
 2952W        W 7016   8.498   1.214   0.085
 2953W        W 7017   5.062  10.384   0.911
 2954W        W 7018   7.434   0.360   9.834
 2955W        W 7019   6.039   9.572   2.979
 2956W        W 7020   8.788   4.523  11.005
 2957W        W 7021   8.504   4.710  10.046
 2958W        W 7022   0.979   2.610   0.060
 2959W        W 7023   6.661   2.415   1.253
 2960W        W 7024   3.835   2.201   0.054
 2961W        W 7025   7.039   4.613   2.478
 2962W        W 7026   6.011   6.149  10.873
 2963W        W 7027   2.445   3.216   3.386
 2964W        W 7028   6.656   7.277   9.113
 2965W        W 7029  10.258   8.773   0.708
 2966W        W 7030   4.146   0.022  11.308
 2967W        W 7031   2.644  10.436   0.687
 2968W        W 7032   7.922   6.333   8.617
 2969W        W 7033   2.741   9.017   2.716
 2970W        W 7034   0.713   2.194   9.523
 2971W        W 7035   5.979   3.781   1.825
 2972W        W 7036   2.146   2.889  10.430
 2973W        W 7037   7.618   6.028   7.844
 2974W        W 7038  10.430   3.883   3.224
 2975W        W 7039   1.355   1.204  11.040
 2976W        W 7040   2.625   8.392  11.757
 2977W        W 7041   2.909   4.198   2.296
 2978W        W 7042   1.366   7.202   2.252
 2979W        W 7043   9.350   4.254   9.090
 2980W        W 7044   9.018   7.099   8.597
 2981W        W 7045   9.955   5.731   0.950
 2982W        W 7046   7.570   6.784   2.372
 2983W        W 7047   7.089   5.248   7.962
 2984W        W 7048   4.095   3.649   9.360
 2985W        W 7049   2.150   7.971   3.030
 2986W        W 7050   8.560   0.209   8.854
 2987W        W 7051   0.271   8.429   2.162
 2988W        W 7052   9.605   8.081  11.431
 2989W        W 7053   2.820   9.549  10.349
 2990W        W 7054   3.853   2.670  11.771
 2991W        W 7055   8.954   7.363   2.649
 2992W        W 7056   2.358   2.535   0.191
 2993W        W 7057   8.544   8.718   3.494
 2994W        W 7058   1.793   3.307  10.541
 2995W        W 7059  10.377   0.596  10.987
 2996W        W 7060   1.134   0.688  10.004
 2997W        W 7061   9.430   1.306  11.349
 2998W        W 7062   9.529   6.110   9.473
 2999W        W 7063   6.114   4.268   1.708
 3000W        W 7064   5.391   7.114   8.239
 3001W        W 7065   5.587   9.340   2.849
 3002W        W 7066   0.926   8.175   1.688
 3003W        W 7067   4.628   7.530   0.822
 3004W        W 7068   4.133   3.806  10.388
 3005W        W 7069   0.278   0.730   0.443
 3006W        W 7070   3.674   7.478   1.389
 3007W        W 7071   3.952   5.237   8.094
 3008W        W 7072   1.251   8.572   1.804
 3009W        W 7073   4.735   2.262   1.724
 3010W        W 7074   6.525   2.207  10.982
 3011W        W 7075   8.983   8.214   2.470
 3012W        W 7076   9.054   3.753   3.366
 3013W        W 7077  10.420   3.805   9.338
 3014W        W 7078   6.607   8.188   0.777
 3015W        W 7079   8.854   9.466   0.301
 3016W        W 7080   5.632   8.393   9.035
 3017W        W 7081   2.222   3.753   9.272
 3018W        W 7082   9.119   6.525  10.085
 3019W        W 7083   3.353   3.148   9.580
 3020W        W 7084   5.225   1.782   9.340
 3021W        W 7085   3.988   8.016  10.752
 3022W        W 7086   6.925   4.220  10.875
 3023W        W 7087   0.805   8.040   3.160
 3024W        W 7088   8.343   9.729  10.404
 3025W        W 7089   5.003   7.075  10.456
 3026W        W 7090   0.969   0.922   0.011
 3027W        W 7091   0.893  10.460   9.074
 3028W        W 7092   7.844   4.027   8.959
 3029W        W 7093   3.714   5.473   3.963
 3030W        W 7094   6.522   2.643  11.401
 3031W        W 7095   8.788   7.678   3.561
 3032W        W 7096   6.921   1.771   0.227
 3033W        W 7097   1.247   3.962  10.918
 3034W        W 7098   4.073   3.050   8.506
 3035W        W 7099  10.370   9.728   1.940
 3036W        W 7100   3.057   2.620   0.086
 3037W        W 7101   0.488   0.990   3.558
 3038W        W 7102   0.058   2.647   2.839
 3039W        W 7103   7.570   2.249   2.235
 3040W        W 7104   1.285   8.125   3.040
 3041W        W 7105   9.442   7.317  11.126
 3042W        W 7106   1.922   4.419   3.388
 3043W        W 7107   3.102   1.858   2.454
 3044W        W 7108   4.397   2.014  11.408
 3045W        W 7109   4.500   1.333   8.919
 3046W        W 7110   2.218   0.709   0.905
 3047W        W 7111   9.975   5.843  10.086
 3048W        W 7112   9.382   3.793   9.354
 3049W        W 7113   3.443   4.295   3.123
 3050W        W 7114   6.661   1.149   3.060
 3051W        W 7115   9.331   1.979   9.381
 3052W        W 7116   5.641   0.326   0.468
 3053W        W 7117   8.382   7.350   0.356
 3054W        W 7118   3.632   4.630   3.903
 3055W        W 7119   0.830   6.171   1.787
 3056W        W 7120   0.179   5.607   8.753
 3057W        W 7121   9.023   6.226   0.381
 3058W        W 7122   8.735   3.522  10.242
 3059W        W 7123   8.569   6.938  11.252
 3060W        W 7124   9.862   6.614  11.931
 3061W        W 7125   3.802   4.651   2.915
 3062W        W 7126   4.965   9.033   0.363
 3063W        W 7127   6.724  10.035   9.879
 3064W        W 7128   6.204   5.878   8.666
 3065W        W 7129   8.958   7.442   1.338
 3066W        W 7130   5.559   7.945   0.805
 3067W        W 7131   5.308   3.103  10.405
 3068W        W 7132   5.939   1.379   0.732
 3069W        W 7133   5.787   3.635   0.950
 3070W        W 7134   1.379   6.346   0.453
 3071W        W 7135   3.636   3.105  11.569
 3072W        W 7136   0.559   6.408   2.916
 3073W        W 7137   4.611   6.997   0.928
 3074W        W 7138   0.820   6.904  11.815
 3075W        W 7139   9.439   3.797   0.951
 3076W        W 7140   7.518   1.177   2.939
 3077W        W 7141   7.026   2.154   1.012
 3078W        W 7142   8.899   4.027  10.991
 3079W        W 7143   3.513   7.608   8.762
 3080W        W 7144   3.273   0.746   9.285
 3081W        W 7145   3.688   4.159   1.077
 3082W        W 7146  10.335   7.457   1.703
 3083W        W 7147   6.057   9.937   1.319
 3084W        W 7148  10.446  10.327   9.074
 3085W        W 7149   8.612   8.089   0.584
 3086W        W 7150   7.584   7.565   1.006
 3087W        W 7151   5.191   7.416   8.788
 3088W        W 7152   2.202   1.425   2.184
 3089W        W 7153   6.443   4.061  10.776
 3090W        W 7154   9.947   8.413  10.424
 3091W        W 7155   1.636   4.274   2.759
 3092W        W 7156   2.323   8.159   1.913
 3093W        W 7157   8.366   3.132  11.803
 3094W        W 7158   6.727  10.236  11.944
 3095W        W 7159   9.916   3.520  10.035
 3096W        W 7160   5.249   4.540   1.281
 3097W        W 7161   2.963   1.791   3.494
 3098W        W 7162   0.908   4.261   8.513
 3099W        W 7163   7.196   7.937   3.500
 3100W        W 7164   6.848   8.282   3.161
 3101W        W 7165   5.552   6.377  10.725
 3102W        W 7166   2.141   8.928   3.174
 3103W        W 7167   6.063   8.511   1.381
 3104W        W 7168   1.858   4.534  11.981
 3105W        W 7169   9.978   0.387   9.715
 3106W        W 7170   6.123   8.162   2.791
 3107W        W 7171   3.916   5.935   4.096
 3108W        W 7172   5.038   5.128   9.617
 3109W        W 7173   7.003   9.006  10.784
 3110W        W 7174   8.908   1.701  10.109
 3111W        W 7175   7.327   0.973   1.589
 3112W        W 7176   9.881   4.838   9.112
 3113W        W 7177   2.769   2.843   3.178
 3114W        W 7178   7.916   2.443  10.012
 3115W        W 7179   4.703   1.077  10.705
 3116W        W 7180   7.127   5.697  10.510
 3117W        W 7181   2.729   3.279   2.478
 3118W        W 7182   6.012   5.221   9.849
 3119W        W 7183   1.323   6.733   2.519
 3120W        W 7184   7.814   5.179   3.229
 3121W        W 7185   9.766   1.742   9.481
 3122W        W 7186   6.526   3.144  11.214
 3123W        W 7187   7.173   0.911   3.458
 3124W        W 7188   5.981   0.032   0.241
 3125W        W 7189   7.412   8.528   0.381
 3126W        W 7190   8.430   4.831   8.953
 3127W        W 7191   8.589   5.752   1.296
 3128W        W 7192   8.860   6.461   2.481
 3129W        W 7193   7.462   2.689   2.492
 3130W        W 7194   3.723   5.117  11.141
 3131W        W 7195   3.006   9.383  10.811
 3132W        W 7196   4.046   0.436   9.222
 3133W        W 7197   3.997   1.862   2.311
 3134W        W 7198   8.135   0.540   1.954
 3135W        W 7199   8.137   5.554  10.284
 3136W        W 7200   3.793  10.381   3.234
 3137W        W 7201   5.116   9.004   9.462
 3138W        W 7202   0.183   3.096  11.536
 3139W        W 7203   8.829   5.074  10.892
 3140W        W 7204   0.891   9.986   0.672
 3141W        W 7205   5.430   5.138   3.165
 3142W        W 7206   7.916   0.784   9.194
 3143W        W 7207   9.546   1.167   9.817
 3144W        W 7208   2.270   4.325   9.077
 3145W        W 7209   9.298   8.051  11.865
 3146W        W 7210   5.134   9.964   3.056
 3147W        W 7211   5.572   5.358  10.739
 3148W        W 7212   2.255   6.552   2.547
 3149W        W 7213   5.696   2.139  11.494
 3150W        W 7214   5.916   1.403   9.109
 3151W        W 7215   7.677   5.147   8.464
 3152W        W 7216   9.923   0.196   3.366
 3153W        W 7217   0.476   4.257   8.802
 3154W        W 7218  10.381   2.327  10.371
 3155W        W 7219   4.810   6.924   3.004
 3156W        W 7220   9.422   1.012  10.920
 3157W        W 7221   9.906   9.402   2.008
 3158W        W 7222   3.674   2.639   8.713
 3159W        W 7223   7.881   6.823   8.782
 3160W        W 7224   4.660   5.264  11.295
 3161W        W 7225   1.879   7.554  11.666
 3162W        W 7226   4.607   7.314   3.275
 3163W        W 7227   6.239   6.414  11.880
 3164W        W 7228   8.490   5.544   2.210
 3165W        W 7229   0.803   0.323  11.319
 3166W        W 7230   5.180   2.306  11.512
 3167W        W 7231   5.011   8.462   3.498
 3168W        W 7232   2.640   0.816   9.964
 3169W        W 7233   8.773   7.731   2.351
 3170W        W 7234   1.041   1.917   9.927
 3171W        W 7235   8.397  10.353   9.192
 3172W        W 7236   6.134   3.777   2.703
 3173W        W 7237   9.808  10.008   2.688
 3174W        W 7238   7.398   9.845   2.963
 3175W        W 7239   6.894   5.206  10.740
 3176W        W 7240   9.442   3.695   3.034
 3177W        W 7241   4.179   7.252  10.410
 3178W        W 7242   8.537   7.854  10.239
 3179W        W 7243   9.356   1.073   3.158
 3180W        W 7244   1.381   2.767   9.970
 3181W        W 7245   2.175   3.973  10.816
 3182W        W 7246   2.206   5.442   0.343
 3183W        W 7247   4.753   2.746   1.484
 3184W        W 7248   6.195   5.567   9.479
 3185W        W 7249   6.921   0.228  11.776
 3186W        W 7250   0.619   6.390   8.548
 3187W        W 7251   1.825   3.387   9.294
 3188W        W 7252   5.100   6.109   9.601
 3189W        W 7253   6.398   5.107  11.301
 3190W        W 7254   2.335   5.551  10.905
 3191W        W 7255   8.692   5.529  10.584
 3192W        W 7256   0.733   7.442  11.028
 3193W        W 7257   4.530   1.747   0.556
 3194W        W 7258   1.945   2.742   1.554
 3195W        W 7259   0.705   5.205   3.300
 3196W        W 7260   8.582   7.566  11.941
 3197W        W 7261   9.696   1.218   3.550
 3198W        W 7262   2.424   9.101   0.288
 3199W        W 7263   6.040   6.534   8.984
 3200W        W 7264   4.706   2.441  11.390
 3201W        W 7265   2.331   9.151  10.957
 3202W        W 7266   9.073   0.240  10.950
 3203W        W 7267   1.041   1.257   0.526
 3204W        W 7268   7.192   6.196   8.096
 3205W        W 7269   0.531   0.299   3.221
 3206W        W 7270   9.126   8.398   1.524
 3207W        W 7271   6.952   5.915   3.639
 3208W        W 7272   8.318   7.099  10.224
 3209W        W 7273   1.427   3.534  11.114
 3210W        W 7274   3.719   3.588  11.439
 3211W        W 7275   8.057   1.827   9.558
 3212W        W 7276   1.244   2.339   2.309
 3213W        W 7277   5.240   2.400   1.634
 3214W        W 7278   1.276   1.916   2.648
 3215W        W 7279   8.928   9.780   9.735
 3216W        W 7280   9.890  10.448   2.416
 3217W        W 7281   3.423   9.896   0.519
 3218W        W 7282   4.532   5.561  10.884
 3219W        W 7283   3.812   4.366   0.590
 3220W        W 7284   5.304   2.852   0.712
 3221W        W 7285   7.910   7.920   8.980
 3222W        W 7286   0.185   6.452   0.236
 3223W        W 7287   5.220   6.711  10.941
 3224W        W 7288   3.450   5.486   4.404
 3225W        W 7289   7.815   4.402   0.993
 3226W        W 7290   4.737   5.545   3.476
 3227W        W 7291   9.824   3.619   2.194
 3228W        W 7292   7.999   1.305  11.376
 3229W        W 7293   2.176   5.244   2.496
 3230W        W 7294   5.781   0.335   0.951
 3231W        W 7295   0.207   9.099   3.104
 3232W        W 7296   0.845   8.266   9.261
 3233W        W 7297   3.841   8.298   2.859
 3234W        W 7298   2.746  10.480   2.706
 3235W        W 7299   8.643   4.993   1.764
 3236W        W 7300   3.586   3.065   0.952
 3237W        W 7301  10.027   0.813   2.706
 3238W        W 7302   6.126   4.348  10.497
 3239W        W 7303   8.465   4.160   3.268
 3240W        W 7304   0.025  10.365   8.553
 3241W        W 7305   7.358   3.493   9.452
 3242W        W 7306   9.284   8.089   1.130
 3243W        W 7307   5.570   5.237   8.973
 3244W        W 7308   4.164   8.510  10.712
 3245W        W 7309   1.951   0.291   0.727
 3246W        W 7310   1.007   0.809   2.685
 3247W        W 7311   2.717   0.233   8.663
 3248W        W 7312   8.406   9.040   9.767
 3249W        W 7313   9.915   7.561   0.277
 3250W        W 7314  10.298   9.350  11.729
 3251W        W 7315   0.250   4.727   9.034
 3252W        W 7316   3.777   9.440   1.141
 3253W        W 7317   4.729  10.356  11.094
 3254W        W 7318   2.673   6.010   1.064
 3255W        W 7319   2.430   0.380   0.520
 3256W        W 7320   9.381   0.881  10.391
 3257W        W 7321   5.962   9.531  11.480
 3258W        W 7322   0.722   1.467  10.793
 3259W        W 7323   6.894   7.209  10.434
 3260W        W 7324   6.161   7.485   9.824
 3261W        W 7325  10.059   1.772   0.799
 3262W        W 7326   6.250   3.929   9.233
 3263W        W 7327   8.512   6.672   9.854
 3264W        W 7328   2.167   0.506   2.318
 3265W        W 7329   4.122   8.466   3.298
 3266W        W 7330   4.156   5.653   3.705
 3267W        W 7331   1.303   3.255   9.244
 3268W        W 7332   8.848   3.136   2.734
 3269W        W 7333   9.185   2.280  11.307
 3270W        W 7334   8.973   5.443   1.484
 3271W        W 7335   6.210   4.480  11.025
 3272W        W 7336   0.440   3.252  10.809
 3273W        W 7337   5.615   6.144   3.841
 3274W        W 7338   1.719   8.924   2.744
 3275W        W 7339   8.014   5.557   2.904
 3276W        W 7340   5.661   1.206  11.446
 3277W        W 7341   2.897   5.502   2.470
 3278W        W 7342   0.519  10.261   2.425
 3279W        W 7343   1.910   8.398   9.089
 3280W        W 7344   3.108   6.153  10.982
 3281W        W 7345   3.255   5.330   9.767
 3282W        W 7346   7.834   3.662   1.620
 3283W        W 7347   6.775  10.108   0.795
 3284W        W 7348   1.175   0.502  10.521
 3285W        W 7349   0.230  10.091  10.066
 3286W        W 7350   0.976  10.373   2.745
 3287W        W 7351   3.313   8.927  10.803
 3288W        W 7352   8.124   8.902   8.964
 3289W        W 7353  10.351   8.365  11.760
 3290W        W 7354   2.163   2.754  11.379
 3291W        W 7355   6.401   0.858   1.240
 3292W        W 7356   0.744   9.475   1.409
 3293W        W 7357   6.614   8.209   8.808
 3294W        W 7358   7.523   8.683   9.754
 3295W        W 7359   6.240  10.115   0.014
 3296W        W 7360   9.544   1.970   1.009
 3297W        W 7361   0.900   6.504   1.388
 3298W        W 7362  10.367   2.417  10.865
 3299W        W 7363   6.942  10.368   2.200
 3300W        W 7364   1.876   2.371   1.915
 3301W        W 7365   1.971   4.591   9.900
 3302W        W 7366   5.164   9.439   3.176
 3303W        W 7367   5.506   0.840   3.554
 3304W        W 7368   8.934   3.243   9.857
 3305W        W 7369  10.192   4.903   0.216
 3306W        W 7370   3.842   7.796   2.763
 3307W        W 7371   3.844   8.236   0.455
 3308W        W 7372   8.683   9.960   9.333
 3309W        W 7373   4.595   6.879   1.422
 3310W        W 7374   3.788   5.933  10.516
 3311W        W 7375   9.283   4.427  11.017
 3312W        W 7376   8.355   7.547   9.890
 3313W        W 7377   9.882   4.615   1.278
 3314W        W 7378   9.459   7.623   1.241
 3315W        W 7379   3.170   4.014   0.867
 3316W        W 7380   2.897   4.392   0.533
 3317W        W 7381   0.490   2.835  11.119
 3318W        W 7382   8.809   2.580  11.577
 3319W        W 7383   8.160   6.016   0.199
 3320W        W 7384   3.409   0.269  11.690
 3321W        W 7385   6.448   7.954   1.258
 3322W        W 7386   0.793   3.512   1.558
 3323W        W 7387   9.502   6.658  11.171
 3324W        W 7388   6.487   5.708   0.631
 3325W        W 7389   7.463   9.808   0.032
 3326W        W 7390   4.283   0.867   2.066
 3327W        W 7391   3.675   2.294  11.023
 3328W        W 7392   7.806   4.816   0.638
 3329W        W 7393  10.395   1.363   0.802
 3330W        W 7394   4.610   3.198   1.292
 3331W        W 7395   8.040   0.893   8.695
 3332W        W 7396   2.059   1.803   3.483
 3333W        W 7397   5.938   4.053  10.918
 3334W        W 7398   3.977   8.419   8.655
 3335W        W 7399   8.779   4.287  11.886
 3336W        W 7400   6.019   5.100   8.779
 3337W        W 7401   1.543   9.415   2.561
 3338W        W 7402   2.236   8.902   2.663
 3339W        W 7403   8.066   8.379  10.226
 3340W        W 7404   1.063   0.239   3.140
 3341W        W 7405   7.300   4.002   9.989
 3342W        W 7406   1.698   2.160   3.256
 3343W        W 7407   0.920   5.295   9.308
 3344W        W 7408   8.155   5.048   1.596
 3345W        W 7409   2.536   9.872   3.291
 3346W        W 7410   5.458   4.824  11.831
 3347W        W 7411  10.302   9.817   3.284
 3348W        W 7412  10.491   6.114   1.504
 3349W        W 7413   4.208   7.507   2.552
 3350W        W 7414   6.610   9.743   2.131
 3351W        W 7415  10.408   1.427  11.891
 3352W        W 7416   8.932   7.020   1.669
 3353W        W 7417   0.231   9.444   1.474
 3354W        W 7418   7.883   3.612   2.138
 3355W        W 7419   2.967   5.123  11.991
 3356W        W 7420   5.484   6.560   8.914
 3357W        W 7421   6.037   2.239   8.770
 3358W        W 7422   3.864   7.254   8.617
 3359W        W 7423   3.824   8.900  10.749
 3360W        W 7424   8.124   9.003   0.870
 3361W        W 7425   5.214   2.667  10.101
 3362W        W 7426   0.980   9.480  10.565
 3363W        W 7427   3.145   1.365  11.794
 3364W        W 7428   7.509   5.555   8.122
 3365W        W 7429   6.743  10.459  10.159
 3366W        W 7430   6.751   4.987   2.265
 3367W        W 7431   0.329   0.282   2.511
 3368W        W 7432   6.891   9.411  11.060
 3369W        W 7433   5.980   8.958   2.216
 3370W        W 7434  10.074   4.315   9.257
 3371W        W 7435   9.154   6.416   2.911
 3372W        W 7436   7.128   1.918  10.449
 3373W        W 7437   5.941   5.132  11.029
 3374W        W 7438   2.680   5.522   1.218
 3375W        W 7439   6.919   2.523  11.057
 3376W        W 7440   9.508   1.144   1.733
 3377W        W 7441   1.769   0.341  10.867
 3378W        W 7442   4.970  10.073  11.597
 3379W        W 7443   6.484   3.099   9.828
 3380W        W 7444   1.188   3.961   0.577
 3381W        W 7445   0.465   6.251   1.167
 3382W        W 7446   5.144   5.732   0.740
 3383W        W 7447   2.580   8.647  10.512
 3384W        W 7448   9.496   9.617   2.925
 3385W        W 7449   1.317   7.038  11.945
 3386W        W 7450   2.284   8.136   8.754
 3387W        W 7451   6.438   8.844   1.974
 3388W        W 7452   9.358   8.664   0.558
 3389W        W 7453  10.311   5.050   2.883
 3390W        W 7454   4.612   7.807   3.209
 3391W        W 7455   7.559   8.074  11.434
 3392W        W 7456   4.721   7.055  11.960
 3393W        W 7457   3.346   2.160   0.131
 3394W        W 7458   4.664   9.424   2.453
 3395W        W 7459   4.979   9.065   0.904
 3396W        W 7460   1.097  10.460   1.811
 3397W        W 7461   6.309   9.303  11.791
 3398W        W 7462   4.616   0.812   8.150
 3399W        W 7463   8.101   6.725  11.039
 3400W        W 7464  10.339   2.326   3.516
 3401W        W 7465   8.763   8.105   8.783
 3402W        W 7466   4.671   3.634  10.625
 3403W        W 7467   7.224   4.729   9.002
 3404W        W 7468   4.140   8.143   1.143
 3405W        W 7469   3.525   5.601   1.467
 3406W        W 7470   8.487   2.175   2.782
 3407W        W 7471  10.393   1.816   3.369
 3408W        W 7472   6.525   6.133  10.431
 3409W        W 7473   8.993   2.324   3.337
 3410W        W 7474   4.245   4.910   0.483
 3411W        W 7475   5.064   7.571  11.519
 3412W        W 7476   8.893   0.634  11.220
 3413W        W 7477   5.143   0.461   3.555
 3414W        W 7478   2.041   8.861   9.322
 3415W        W 7479   5.583   1.424   2.536
 3416W        W 7480   5.058   4.298   1.684
 3417W        W 7481   7.161  10.458   3.653
 3418W        W 7482   9.401   4.535  11.643
 3419W        W 7483   4.601   1.509   1.022
 3420W        W 7484   6.595  10.371  10.622
 3421W        W 7485   6.499   3.530   9.509
 3422W        W 7486   6.099   5.102   0.414
 3423W        W 7487   2.883   1.273   3.505
 3424W        W 7488   4.460   8.579  10.309
 3425W        W 7489   3.463   1.884   3.407
 3426W        W 7490   5.731   5.577   3.184
 3427W        W 7491   7.035   7.361  11.170
 3428W        W 7492   7.398   3.391   0.289
 3429W        W 7493   3.677   5.979   1.140
 3430W        W 7494   6.299   6.399   8.562
 3431W        W 7495   5.381   1.720   2.153
 3432W        W 7496   4.748   2.174   2.245
 3433W        W 7497   1.054   7.875   0.767
 3434W        W 7498   7.201   8.406   2.251
 3435W        W 7499   5.881   5.633   1.704
 3436W        W 7500   8.006   0.897   3.330
 3437W        W 7501   5.437   4.310   8.968
 3438W        W 7502   7.737   6.447   1.414
 3439W        W 7503   6.070   5.999   3.262
 3440W        W 7504  10.186   3.178  11.451
 3441W        W 7505   9.888   7.051   1.347
 3442W        W 7506   8.028   6.686  10.025
 3443W        W 7507   9.827   1.873  11.421
 3444W        W 7508   6.424   5.153   0.012
 3445W        W 7509   9.419   5.427  11.768
 3446W        W 7510   4.053   0.422   2.790
 3447W        W 7511  10.304   4.418   0.199
 3448W        W 7512   1.786   2.122   9.303
 3449W        W 7513   0.263   0.415  11.713
 3450W        W 7514   1.306   1.383   1.019
 3451W        W 7515  10.338   5.211  10.920
 3452W        W 7516   4.375   2.594   1.134
 3453W        W 7517   1.759   8.409  10.020
 3454W        W 7518   4.793   4.515   1.005
 3455W        W 7519   1.256   6.754  11.536
 3456W        W 7520   3.326   7.379   3.186
 3457W        W 7521   1.252   1.399  10.548
 3458W        W 7522   1.403  10.382  10.811
 3459W        W 7523   0.421   3.761   0.395
 3460W        W 7524   3.793   7.955   8.496
 3461W        W 7525   2.528   1.223  11.386
 3462W        W 7526   5.113   4.600   2.103
 3463W        W 7527   2.850   9.368   0.250
 3464W        W 7528   3.914   1.878  11.239
 3465W        W 7529   9.290   4.698   8.790
 3466W        W 7530   2.874   8.444   9.381
 3467W        W 7531  10.274   5.190   1.238
 3468W        W 7532   6.079   0.932  11.444
 3469W        W 7533  10.368   7.726  10.867
 3470W        W 7534   3.223   0.348  10.269
 3471W        W 7535   4.724   0.468   0.507
 3472W        W 7536   6.912   5.716  10.043
 3473W        W 7537   7.202   9.033  11.698
 3474W        W 7538   6.525   7.784   1.742
 3475W        W 7539   1.593   9.435   9.646
 3476W        W 7540   4.282   6.121   2.445
 3477W        W 7541   8.493   6.795   2.451
 3478W        W 7542   5.188   0.345   0.717
 3479W        W 7543   8.508   0.425   9.937
 3480W        W 7544   1.438   7.239  11.445
 3481W        W 7545   9.940   6.977   9.070
 3482W        W 7546   7.120   7.373   8.652
 3483W        W 7547   4.170   9.379   8.788
 3484W        W 7548   2.611   6.679   1.831
 3485W        W 7549   6.192   2.312  11.779
 3486W        W 7550   5.023   3.343   1.805
 3487W        W 7551   9.329   6.627   0.492
 3488W        W 7552   8.873   2.822   1.909
 3489W        W 7553  10.228   7.405   9.019
 3490W        W 7554   4.886   6.366   8.236
 3491W        W 7555   9.813   5.762   2.742
 3492W        W 7556   7.946   1.401   3.133
 3493W        W 7557   5.534   6.110   8.662
 3494W        W 7558   0.269   8.111   9.749
 3495W        W 7559   1.014   2.709   1.921
 3496W        W 7560   8.401   8.536   1.807
 3497W        W 7561   6.812   6.431   8.433
 3498W        W 7562   1.054   2.620   1.411
 3499W        W 7563   7.415   0.011  11.386
 3500W        W 7564   9.558   2.019  10.855
 3501W        W 7565   8.382   5.218   9.959
 3502W        W 7566   2.073   7.356  10.536
 3503W        W 7567   0.259   2.755  10.661
 3504W        W 7568   5.734   3.870   0.092
 3505W        W 7569   2.822   7.869   0.453
 3506W        W 7570   7.463   0.522   8.983
 3507W        W 7571   3.233   1.496   3.160
 3508W        W 7572   2.401   0.623  11.817
 3509W        W 7573   4.657   6.373  10.284
 3510W        W 7574   2.110  10.353   1.874
 3511W        W 7575   3.337   5.049   8.779
 3512W        W 7576   9.156   8.691   2.843
 3513W        W 7577   8.453   7.424   9.412
 3514W        W 7578   4.256   0.812   8.948
 3515W        W 7579  10.458   9.787   9.321
 3516W        W 7580   1.361   8.916   9.948
 3517W        W 7581   7.416   3.568   1.916
 3518W        W 7582   1.667   5.724   9.221
 3519W        W 7583   5.649   2.190   0.936
 3520W        W 7584   6.832   9.124   0.610
 3521W        W 7585   6.049   7.505   0.786
 3522W        W 7586   4.193   2.224   0.443
 3523W        W 7587   5.146   5.153  10.560
 3524W        W 7588   9.662  10.393   1.428
 3525W        W 7589   4.047   1.240   9.122
 3526W        W 7590   0.479   1.806   9.137
 3527W        W 7591   3.018   7.398   8.871
 3528W        W 7592   1.427   7.591   1.872
 3529W        W 7593   6.406   4.023   8.151
 3530W        W 7594   7.648   5.943   1.375
 3531W        W 7595   6.906   2.195   0.510
 3532W        W 7596   8.419   4.612   1.482
 3533W        W 7597   9.010   3.641   0.678
 3534W        W 7598   3.287   6.985  11.297
 3535W        W 7599   7.403   7.053  11.336
 3536W        W 7600   5.539   1.250   2.038
 3537W        W 7601  10.402   8.750   2.274
 3538W        W 7602  10.244   1.514  10.699
 3539W        W 7603   0.344   8.834   1.204
 3540W        W 7604   2.911   1.131   1.986
 3541W        W 7605   2.647   3.599   1.630
 3542W        W 7606   3.142   5.779   1.134
 3543W        W 7607   8.443   8.409   0.227
 3544W        W 7608   0.348   0.519  11.184
 3545W        W 7609   9.849   3.728   2.698
 3546W        W 7610   2.357   8.635  10.977
 3547W        W 7611   0.335   6.761  11.687
 3548W        W 7612  10.398   7.040   1.391
 3549W        W 7613   4.124   6.174   3.671
 3550W        W 7614   3.888  10.424   2.712
 3551W        W 7615  10.038  10.469  11.514
 3552W        W 7616   6.041   9.105   2.701
 3553W        W 7617   0.021   9.911   0.404
 3554W        W 7618   8.563   1.889  11.206
 3555W        W 7619   9.109   6.492   0.952
 3556W        W 7620  10.468   5.680  10.134
 3557W        W 7621   4.529   6.432   0.696
 3558W        W 7622   8.140   4.875  11.497
 3559W        W 7623   9.548   5.023  11.473
 3560W        W 7624   9.468   3.571   0.456
 3561W        W 7625   7.543   6.042   3.454
 3562W        W 7626  10.393   1.166   9.371
 3563W        W 7627  10.477   4.779  11.788
 3564W        W 7628   5.314   9.496   3.679
 3565W        W 7629   8.328   9.847   3.143
 3566W        W 7630   5.075   9.528   9.758
 3567W        W 7631   4.692   8.427   2.513
 3568W        W 7632   5.852   4.028   9.590
 3569W        W 7633   6.495   6.209   3.529
 3570W        W 7634   8.689   8.588   2.702
 3571W        W 7635   1.693   6.522  11.553
 3572W        W 7636   5.470   7.833   1.336
 3573W        W 7637   8.886  10.328   3.442
 3574W        W 7638   0.856   3.189   1.964
 3575W        W 7639   2.844  10.279   3.169
 3576W        W 7640  10.303   9.158   2.785
 3577W        W 7641   4.246   3.174   0.362
 3578W        W 7642   5.448   9.883  11.522
 3579W        W 7643   9.762   0.398   8.689
 3580W        W 7644   6.890   0.088   0.267
 3581W        W 7645   3.698   4.657   3.400
 3582W        W 7646   8.565   6.893   9.384
 3583W        W 7647   7.525   6.109   8.860
 3584W        W 7648   8.845   0.067   0.398
 3585W        W 7649   4.431   5.944   3.309
 3586W        W 7650   2.074   5.208  11.198
 3587W        W 7651   7.675   4.114   1.423
 3588W        W 7652   1.606   1.284   1.452
 3589W        W 7653   7.688   8.529   2.336
 3590W        W 7654   6.875   5.109   8.855
 3591W        W 7655   1.789   6.033   1.263
 3592W        W 7656   0.983   2.829  11.111
 3593W        W 7657   5.902   5.150   2.924
 3594W        W 7658   5.464  10.378   8.871
 3595W        W 7659   2.177   3.353  10.199
 3596W        W 7660   9.766   0.365   2.906
 3597W        W 7661   6.165   8.494   2.391
 3598W        W 7662   2.191   1.805   2.988
 3599W        W 7663   6.040   7.923   9.567
 3600W        W 7664   7.678   3.141   2.276
 3601W        W 7665   7.442  10.122   3.414
 3602W        W 7666   4.488   3.615   0.527
 3603W        W 7667   3.849   6.682  10.928
 3604W        W 7668   7.042   1.299   2.714
 3605W        W 7669   1.476   8.300  10.790
 3606W        W 7670   8.275   9.902  11.399
 3607W        W 7671  10.415   0.275  11.376
 3608W        W 7672   9.362   9.158   9.077
 3609W        W 7673   6.446   2.601   9.552
 3610W        W 7674   3.569   1.259   8.932
 3611W        W 7675   5.966   9.035   0.671
 3612W        W 7676   9.340   9.884  11.298
 3613W        W 7677   4.169   6.701   3.765
 3614W        W 7678   4.659   9.190   8.718
 3615W        W 7679   0.134   1.850   2.577
 3616W        W 7680   7.183   9.717   8.906
 3617W        W 7681   6.681   4.474  11.254
 3618W        W 7682   0.937   6.572  10.566
 3619W        W 7683   9.003   4.273  11.423
 3620W        W 7684   6.528   7.691   0.833
 3621W        W 7685   9.762   2.639   2.513
 3622W        W 7686   8.081  10.412   2.785
 3623W        W 7687  10.043   0.054   8.423
 3624W        W 7688   6.400   9.266   2.302
 3625W        W 7689   4.121   4.283   8.550
 3626W        W 7690   1.111   6.477   2.112
 3627W        W 7691   1.984   8.964   1.354
 3628W        W 7692   4.240   7.014   8.890
 3629W        W 7693   2.130   0.756   1.876
 3630W        W 7694   9.967   0.804   9.016
 3631W        W 7695   6.973   5.001   3.422
 3632W        W 7696   5.251   5.298   0.968
 3633W        W 7697   8.799   9.936  11.277
 3634W        W 7698   8.606   5.697  10.039
 3635W        W 7699   4.714   0.832   9.167
 3636W        W 7700   4.281   9.494   0.376
 3637W        W 7701   0.364   9.433   9.100
 3638W        W 7702   5.657   8.280   1.696
 3639W        W 7703   7.070   4.545   2.979
 3640W        W 7704   4.674   8.130   9.021
 3641W        W 7705   2.130   5.552   1.810
 3642W        W 7706  10.288   3.598   2.458
 3643W        W 7707   5.575   2.249  10.982
 3644W        W 7708   7.431   5.634   8.641
 3645W        W 7709   5.151   3.515   2.296
 3646W        W 7710   0.693   9.433  11.988
 3647W        W 7711   0.892   5.985   8.733
 3648W        W 7712   7.342   8.913   2.401
 3649W        W 7713   3.743   7.944   0.891
 3650W        W 7714   1.773   3.384   2.151
 3651W        W 7715   0.820   0.759   0.501
 3652W        W 7716   6.933   3.464   1.294
 3653W        W 7717   3.848   3.202   0.013
 3654W        W 7718   8.068   7.902   9.469
 3655W        W 7719   4.318   0.151  10.439
 3656W        W 7720   0.967   4.693  11.237
 3657W        W 7721   5.312   6.625   8.052
 3658W        W 7722   3.718   4.831   0.418
 3659W        W 7723   2.866   5.958   1.555
 3660W        W 7724   7.194   8.077   0.294
 3661W        W 7725   3.175   1.372   0.692
 3662W        W 7726   5.020   6.659  11.833
 3663W        W 7727   8.038   1.240   1.404
 3664W        W 7728   7.040   3.597   2.768
 3665W        W 7729   1.175   9.850  10.247
 3666W        W 7730   5.084   0.872   0.469
 3667W        W 7731  10.457   6.663  10.057
 3668W        W 7732   6.070   6.001   0.825
 3669W        W 7733   7.117   0.493   1.539
 3670W        W 7734   4.297  10.449   3.131
 3671W        W 7735   4.029   1.775   0.709
 3672W        W 7736   0.469   9.516  11.497
 3673W        W 7737   6.034   3.646   8.866
 3674W        W 7738   0.513   2.795   1.957
 3675W        W 7739   8.886   7.132  10.703
 3676W        W 7740   9.075   2.159   1.087
 3677W        W 7741   6.845   8.044   2.034
 3678W        W 7742   5.734   7.575  10.930
 3679W        W 7743   0.764   0.528  10.853
 3680W        W 7744   5.546   6.923  11.481
 3681W        W 7745   1.984   9.519   3.276
 3682W        W 7746   4.998   8.821   1.901
 3683W        W 7747   2.270   3.325   1.339
 3684W        W 7748   0.749   0.365   2.763
 3685W        W 7749   1.214   6.942   3.516
 3686W        W 7750   5.204   4.101   3.840
 3687W        W 7751   6.286   3.334   1.795
 3688W        W 7752   8.827   7.617   0.460
 3689W        W 7753   5.850   3.083   3.222
 3690W        W 7754   3.089   9.897   1.389
 3691W        W 7755  10.384   8.378   9.494
 3692W        W 7756   7.445   8.161   8.952
 3693W        W 7757   5.951   4.931  11.920
 3694W        W 7758   1.930   3.431   2.786
 3695W        W 7759   0.901   8.482   2.885
 3696W        W 7760   0.071   7.659  11.676
 3697W        W 7761   4.089   3.386   8.916
 3698W        W 7762   8.374   4.576   9.434
 3699W        W 7763   4.550   2.147   9.358
 3700W        W 7764   2.621   4.288  11.023
 3701W        W 7765   2.858   6.671  10.014
 3702W        W 7766   4.976   2.808   9.104
 3703W        W 7767   8.788   4.821   3.597
 3704W        W 7768   3.282  10.162   0.973
 3705W        W 7769   1.893   2.836   0.373
 3706W        W 7770   7.404  10.164  10.997
 3707W        W 7771  10.126   7.814   0.879
 3708W        W 7772   1.480   4.137  11.366
 3709W        W 7773   6.834   5.483   2.417
 3710W        W 7774   9.470   6.325   0.118
 3711W        W 7775   2.363   1.344   3.522
 3712W        W 7776   2.248   2.184  10.030
 3713W        W 7777   8.561   4.550  11.473
 3714W        W 7778   8.519   8.094   9.257
 3715W        W 7779   5.009   6.186   8.702
 3716W        W 7780   5.180  10.050   2.498
 3717W        W 7781   1.091   4.126   3.615
 3718W        W 7782   7.466   1.674   2.809
 3719W        W 7783   7.475   4.758   2.701
 3720W        W 7784   0.682   0.863   9.867
 3721W        W 7785   5.079   2.444  11.029
 3722W        W 7786   7.576   2.191   0.233
 3723W        W 7787   1.377   2.412   0.434
 3724W        W 7788   1.259   8.454   9.802
 3725W        W 7789   8.179   0.944  10.030
 3726W        W 7790   5.970   8.653  10.465
 3727W        W 7791   8.903   8.483   0.436
 3728W        W 7792   3.174   2.247   3.614
 3729W        W 7793   0.936   6.050  11.882
 3730W        W 7794  10.139   7.937  11.568
 3731W        W 7795   5.623   3.903   8.633
 3732W        W 7796   6.948   7.507   2.683
 3733W        W 7797   6.856   5.133  11.748
 3734W        W 7798   9.827   6.465   0.446
 3735W        W 7799   1.003   2.586  10.240
 3736W        W 7800   3.604   0.296   2.986
 3737W        W 7801   8.650   9.727   1.144
 3738W        W 7802   6.116   5.983   3.788
 3739W        W 7803   6.690   7.574   2.207
 3740W        W 7804   5.316   4.062   9.445
 3741W        W 7805   9.486   2.268   0.292
 3742W        W 7806   0.526   7.678   0.956
 3743W        W 7807   6.949   1.792   2.860
 3744W        W 7808   8.214   0.125  10.670
 3745W        W 7809   3.753   1.369  10.929
 3746W        W 7810   7.806   3.587   0.031
 3747W        W 7811   4.131   0.833   3.088
 3748W        W 7812   3.609   5.537   9.337
 3749W        W 7813   2.720   6.616   9.008
 3750W        W 7814   8.913   2.997   1.413
 3751W        W 7815   5.503   2.636  10.537
 3752W        W 7816   5.186   3.057   0.226
 3753W        W 7817   4.270   1.652   9.328
 3754W        W 7818   4.314   5.118  10.496
 3755W        W 7819   1.311   7.689   3.324
 3756W        W 7820  10.211   2.992   3.073
 3757W        W 7821   5.746   7.406   9.055
 3758W        W 7822   4.806   8.019   2.799
 3759W        W 7823   3.723   4.194   9.050
 3760W        W 7824   4.791   2.871  11.909
 3761W        W 7825   4.680   5.090   2.031
 3762W        W 7826   1.396   5.286   8.657
 3763W        W 7827   3.829   3.228  11.080
 3764W        W 7828   5.565   4.132   8.015
 3765W        W 7829   1.468   3.096  10.869
 3766W        W 7830   0.052   4.243   9.093
 3767W        W 7831   2.409   8.890   9.694
 3768W        W 7832   9.931   1.340   1.014
 3769W        W 7833   3.159   1.159  10.592
 3770W        W 7834   6.765   0.445   1.172
 3771W        W 7835   7.883   7.443   0.304
 3772W        W 7836   7.947   1.884  10.560
 3773W        W 7837   1.511   7.731  11.366
 3774W        W 7838   0.004  10.259   3.131
 3775W        W 7839   4.171   1.335   2.807
 3776W        W 7840   0.967   4.953   1.731
 3777W        W 7841   5.555   5.675   0.161
 3778W        W 7842   2.770   7.452   1.262
 3779W        W 7843  10.269   1.826  10.294
 3780W        W 7844   1.518   4.473   9.678
 3781W        W 7845   8.638   8.290   1.428
 3782W        W 7846   7.818   0.449  10.573
 3783W        W 7847   5.162   3.619  10.360
 3784W        W 7848   4.983   5.480   9.967
 3785W        W 7849   1.589   5.635   0.974
 3786W        W 7850   1.950   2.888   2.056
 3787W        W 7851  10.216  10.080   2.279
 3788W        W 7852   1.797   4.097   9.908
 3789W        W 7853   6.133   5.526   3.531
 3790W        W 7854   5.548   6.973   1.433
 3791W        W 7855   7.641   5.017   1.693
 3792W        W 7856   5.694   5.615  10.313
 3793W        W 7857   1.919   4.305   2.327
 3794W        W 7858   7.703   3.771   0.508
 3795W        W 7859   3.009   9.045  10.421
 3796W        W 7860   0.052   4.622  10.823
 3797W        W 7861   3.534   9.967   2.295
 3798W        W 7862   3.296   0.451   1.671
 3799W        W 7863   9.758   7.404   8.777
 3800W        W 7864   2.473   4.783   8.925
 3801W        W 7865   0.205   1.342  10.882
 3802W        W 7866   6.934   5.432   0.540
 3803W        W 7867   0.888   9.932   1.181
 3804W        W 7868   6.408   8.850   0.454
 3805W        W 7869   7.159   7.619   9.672
 3806W        W 7870   7.455   3.232  11.302
 3807W        W 7871   9.871   1.817   1.855
 3808W        W 7872   3.086   7.953  11.104
 3809W        W 7873   0.492   7.351   2.823
 3810W        W 7874   4.495   6.423   1.208
 3811W        W 7875   4.993   3.030   9.820
 3812W        W 7876   0.895   3.920   1.243
 3813W        W 7877   2.004   9.547  10.989
 3814W        W 7878   1.163   2.235   1.809
 3815W        W 7879   7.912   2.402  10.538
 3816W        W 7880   5.722   1.606  11.758
 3817W        W 7881   5.599   1.282   3.028
 3818W        W 7882  10.228   7.667   2.204
 3819W        W 7883   9.395   5.439   2.159
 3820W        W 7884   0.876   4.136   0.199
 3821W        W 7885   0.362   7.231  10.143
 3822W        W 7886   4.716   5.056  10.822
 3823W        W 7887  10.349   3.447   9.710
 3824W        W 7888   9.375   2.648   2.178
 3825W        W 7889   4.960   6.464   2.856
 3826W        W 7890   7.444   6.620   8.958
 3827W        W 7891   8.941   5.583   9.645
 3828W        W 7892   7.332   5.209  10.492
 3829W        W 7893   8.376   4.242  10.861
 3830W        W 7894   8.191   1.814  11.577
 3831W        W 7895  10.462   7.091  11.953
 3832W        W 7896   3.256   7.218   2.316
 3833W        W 7897   6.026   0.403   3.323
 3834W        W 7898   9.400   3.381  10.505
 3835W        W 7899   0.799   0.268   9.480
 3836W        W 7900   8.321   9.891   8.962
 3837W        W 7901   5.880   0.367   2.826
 3838W        W 7902   0.367   0.199  10.781
 3839W        W 7903   9.409   9.215  11.167
 3840W        W 7904   2.027   9.381   1.888
 3841W        W 7905   0.875   6.529  10.057
 3842W        W 7906   7.019   5.617  11.030
 3843W        W 7907   2.108   5.220   3.003
 3844W        W 7908   8.679   7.238   8.990
 3845W        W 7909   4.747  10.298   2.427
 3846W        W 7910   7.599   9.980  10.114
 3847W        W 7911   2.380   8.452   2.980
 3848W        W 7912   8.747   1.998   0.347
 3849W        W 7913   0.174   5.611   0.026
 3850W        W 7914   6.419   8.929   1.419
 3851W        W 7915   9.165   5.774  10.509
 3852W        W 7916   7.787   4.104  11.962
 3853W        W 7917   2.389   6.012   1.805
 3854W        W 7918   4.140   1.852   2.803
 3855W        W 7919   5.931   6.921   3.822
 3856W        W 7920   2.104   7.152   9.856
 3857W        W 7921   4.005   7.921   2.280
 3858W        W 7922   4.667   0.945   8.649
 3859W        W 7923   7.324   9.960   1.627
 3860W        W 7924   7.076   2.261   3.046
 3861W        W 7925   1.932   3.341  11.028
 3862W        W 7926   1.199   9.721   8.821
 3863W        W 7927   7.428   3.742  11.147
 3864W        W 7928   5.958   3.489   1.416
 3865W        W 7929   2.385   3.182   2.867
 3866W        W 7930   7.387  10.498   0.290
 3867W        W 7931   7.990   6.586   2.755
 3868W        W 7932   2.885   6.957  11.833
 3869W        W 7933   4.971   4.678   0.428
 3870W        W 7934   2.381   4.830   2.724
 3871W        W 7935   0.645   0.625   2.291
 3872W        W 7936   9.961   4.527  10.478
 3873W        W 7937   7.151   0.433   3.299
 3874W        W 7938   1.660   1.648  11.792
 3875W        W 7939  10.215   0.618   1.406
 3876W        W 7940   9.383   4.654   9.792
 3877W        W 7941   2.825   7.031   0.412
 3878W        W 7942   8.426   6.497   0.829
 3879W        W 7943   1.444   4.197   3.235
 3880W        W 7944   3.611   6.480   1.695
 3881W        W 7945   1.318   0.255   9.025
 3882W        W 7946  10.247   6.730   0.328
 3883W        W 7947   6.935   3.682   0.345
 3884W        W 7948   4.409   0.099   2.647
 3885W        W 7949   7.481   8.797  10.765
 3886W        W 7950   3.397   1.025  11.027
 3887W        W 7951   4.653   2.351  10.728
 3888W        W 7952   4.948   8.458  10.401
 3889W        W 7953   9.497   8.393   3.364
 3890W        W 7954   4.705   9.385   2.938
 3891W        W 7955   6.127   4.070   8.612
 3892W        W 7956   9.243   7.982   8.932
 3893W        W 7957   8.122   8.366   9.078
 3894W        W 7958   7.134   2.300   1.483
 3895W        W 7959   3.378   0.580   9.787
 3896W        W 7960   2.314   7.805  11.573
 3897W        W 7961   0.447   5.205   0.183
 3898W        W 7962   1.962   4.569   0.883
 3899W        W 7963   2.818   5.964   0.059
 3900W        W 7964   6.161   1.937   3.492
 3901W        W 7965   2.603   2.545  10.288
 3902W        W 7966   6.671   0.310   9.367
 3903W        W 7967   2.926  10.341  10.648
 3904W        W 7968   8.652   4.220   1.233
 3905W        W 7969  10.271   4.594   8.813
 3906W        W 7970   6.729   1.235  10.538
 3907W        W 7971   7.553   5.622   3.107
 3908W        W 7972   5.259   6.169   9.136
 3909W        W 7973   2.360   6.769   1.165
 3910W        W 7974   4.733   3.294   0.210
 3911W        W 7975   6.054   7.536   1.681
 3912W        W 7976   7.006   6.438   1.765
 3913W        W 7977   9.658   3.440   8.640
 3914W        W 7978   4.158   1.251  11.829
 3915W        W 7979   7.968   7.483   2.646
 3916W        W 7980   7.826   9.937   9.086
 3917W        W 7981  10.219   3.658  11.309
 3918W        W 7982   2.643   5.087   2.341
 3919W        W 7983   1.308   1.873   9.060
 3920W        W 7984   5.084   4.630  11.039
 3921W        W 7985   9.360   6.478   1.825
 3922W        W 7986   5.159   8.555  11.111
 3923W        W 7987   3.713  10.436   2.218
 3924W        W 7988   9.393   7.190   1.517
 3925W        W 7989   7.437   2.077   0.704
 3926W        W 7990   5.188   7.683  11.048
 3927W        W 7991  10.383   0.697   9.584
 3928W        W 7992   4.051  10.400   0.893
 3929W        W 7993   7.541   3.568   9.918
 3930W        W 7994   4.740   1.748   9.081
 3931W        W 7995   0.226   8.649  11.387
 3932W        W 7996   0.891   5.697   0.287
 3933W        W 7997   7.074   6.692   2.332
 3934W        W 7998  10.088   3.723  11.800
 3935W        W 7999   5.662   0.781   2.183
 3936W        W 8000   4.273   9.086  10.537
 3937W        W 8001   1.264  10.448   9.440
 3938W        W 8002   6.974   9.960  10.765
 3939W        W 8003   7.931   4.127   2.316
 3940W        W 8004   2.662   0.706   3.408
 3941W        W 8005   1.702   8.330   1.810
 3942W        W 8006   9.003   0.880   2.845
 3943W        W 8007   6.959   9.023   2.752
 3944W        W 8008   2.646   2.803   2.678
 3945W        W 8009   4.619   3.644   1.574
 3946W        W 8010   0.475   0.780  11.984
 3947W        W 8011   0.352   5.360   9.887
 3948W        W 8012   2.296   8.971   1.766
 3949W        W 8013   3.718   8.965   1.345
 3950W        W 8014   8.478   0.295   9.427
 3951W        W 8015   7.009   0.324  11.271
 3952W        W 8016  10.366   4.935   2.401
 3953W        W 8017   4.584   6.894  10.265
 3954W        W 8018   7.211   9.002   0.279
 3955W        W 8019   6.228   4.333  11.754
 3956W        W 8020   4.184   0.830   8.455
 3957W        W 8021   1.933  10.413  10.656
 3958W        W 8022   7.944   0.005   0.373
 3959W        W 8023   4.391   5.787   8.261
 3960W        W 8024   9.900  10.331  11.985
 3961W        W 8025   6.110   2.327  11.267
 3962W        W 8026   8.920   4.750   2.166
 3963W        W 8027   5.170   6.708   8.533
 3964W        W 8028   6.976   2.429  10.561
 3965W        W 8029   1.059   9.103   0.238
 3966W        W 8030   5.473   4.683   0.344
 3967W        W 8031   6.963   7.720   0.578
 3968W        W 8032  10.016   3.182   2.621
 3969W        W 8033   2.407   2.926  11.837
 3970W        W 8034   2.642   6.134   3.506
 3971W        W 8035   9.432   9.046   2.526
 3972W        W 8036   6.851   9.054   1.154
 3973W        W 8037   2.336   7.669   1.743
 3974W        W 8038   9.523   8.316   9.222
 3975W        W 8039   3.692  10.324  10.809
 3976W        W 8040   9.769   4.283  10.911
 3977W        W 8041   6.561   1.453   2.665
 3978W        W 8042   5.697   2.366   2.334
 3979W        W 8043   1.204   9.566  11.985
 3980W        W 8044   6.277   7.460   1.234
 3981W        W 8045   5.560   7.367   2.765
 3982W        W 8046   8.268   0.089   8.402
 3983W        W 8047   1.716   0.472   2.556
 3984W        W 8048   7.383   5.209   8.950
 3985W        W 8049   2.730   3.596   9.259
 3986W        W 8050   2.722   0.283  10.889
 3987W        W 8051   5.081   2.255   9.189
 3988W        W 8052   2.348  10.287   2.978
 3989W        W 8053   4.297   1.690   1.925
 3990W        W 8054   4.348   6.626   9.692
 3991W        W 8055   0.810   8.885   9.890
 3992W        W 8056   6.920   9.871  11.273
 3993W        W 8057   7.237   1.749  11.316
 3994W        W 8058   9.318   5.661   9.286
 3995W        W 8059   6.223   3.128   3.571
 3996W        W 8060   0.752   8.571   1.947
 3997W        W 8061   9.442   1.838   8.571
 3998W        W 8062   4.761   8.869  11.284
 3999W        W 8063   5.282   9.863  10.103
 4000W        W 8064   1.373   7.983   1.522
 4001W        W 8065   1.227   2.925   0.400
 4002W        W 8066   1.759   5.969  10.213
 4003W        W 8067   9.367   0.706   1.948
 4004W        W 8068   2.259   2.239  11.516
 4005W        W 8069   4.544   3.911  11.020
 4006W        W 8070   0.913   7.036  10.800
 4007W        W 8071   1.540   0.284   3.393
 4008W        W 8072   0.557   1.792   9.831
 4009W        W 8073   9.516   7.124   1.008
 4010W        W 8074   0.325   7.308   1.465
 4011W        W 8075   3.202   4.822   1.277
 4012W        W 8076   2.824   5.923   2.095
 4013W        W 8077   4.213   7.976   8.817
 4014W        W 8078   6.000   4.345   8.191
 4015W        W 8079   6.484   3.336   0.569
 4016W        W 8080   3.034   7.845   8.608
 4017W        W 8081   7.112   0.934  11.862
 4018W        W 8082   3.184   0.244   9.406
 4019W        W 8083   2.694   9.944   2.782
 4020W        W 8084   8.619   7.974   3.183
 4021W        W 8085   6.987   9.503   2.966
 4022W        W 8086   6.077   7.112   1.997
 4023W        W 8087   6.533   7.421   3.114
 4024W        W 8088   1.151   0.695   2.202
 4025W        W 8089   4.556   9.780  11.784
 4026W        W 8090   0.032   4.624  10.304
 4027W        W 8091  10.476   7.568   1.216
 4028W        W 8092   2.638   4.348  11.537
 4029W        W 8093   5.216   1.718   9.849
 4030W        W 8094   4.544   0.401   9.442
 4031W        W 8095   5.113   1.201   2.327
 4032W        W 8096   6.132   7.274  10.817
 4033W        W 8097   0.402   0.673   1.846
 4034W        W 8098   5.726   5.164   1.642
 4035W        W 8099   4.908   0.510   8.654
 4036W        W 8100   7.964   9.413   0.580
 4037W        W 8101   4.222   5.631  10.477
 4038W        W 8102   9.727   8.931  10.456
 4039W        W 8103   4.240   6.195  10.517
 4040W        W 8104   8.593   9.201   3.615
 4041W        W 8105   0.735   3.588  10.282
 4042W        W 8106   2.285   7.690   1.228
 4043W        W 8107   1.009   8.734   9.448
 4044W        W 8108   4.592   4.063   8.794
 4045W        W 8109   3.361   3.823   1.328
 4046W        W 8110   7.535   2.769   1.467
 4047W        W 8111   9.574   5.573  10.266
 4048W        W 8112   3.161   6.539   2.943
 4049W        W 8113   9.539   9.342  10.113
 4050W        W 8114   2.564   7.647   8.968
 4051W        W 8115   7.489   3.661  11.641
 4052W        W 8116  10.382   5.697   1.226
 4053W        W 8117   4.531   4.722   3.442
 4054W        W 8118   2.790   1.315  10.932
 4055W        W 8119   7.885   0.254   1.612
 4056W        W 8120   1.549   5.653  10.546
 4057W        W 8121   7.538   7.067   0.173
 4058W        W 8122   0.418   9.005  10.860
 4059W        W 8123   2.874   7.500  11.170
 4060W        W 8124   6.559   9.448   1.325
 4061W        W 8125   5.634  10.429   1.937
 4062W        W 8126   7.424   5.322   9.504
 4063W        W 8127   8.006   2.279   1.409
 4064W        W 8128   6.017   3.673   9.933
 4065W        W 8129   5.818   7.482   0.327
 4066W        W 8130   3.419   7.952   1.875
 4067W        W 8131   5.731   6.900   9.190
 4068W        W 8132   6.056   9.086  10.848
 4069W        W 8133   8.411   6.437   2.064
 4070W        W 8134   0.348   8.558   1.667
 4071W        W 8135   6.897   5.010   2.777
 4072W        W 8136   4.123   3.899   8.922
 4073W        W 8137   9.050   4.032   1.520
 4074W        W 8138   4.799   6.845   8.071
 4075W        W 8139   6.136   1.394  11.246
 4076W        W 8140   7.983   8.934   3.007
 4077W        W 8141   3.259   7.113   0.731
 4078W        W 8142   4.962   0.421  10.783
 4079W        W 8143   4.056   3.943   1.388
 4080W        W 8144   6.541   2.971   0.242
 4081W        W 8145   2.300   3.622   3.101
 4082W        W 8146   1.679   7.164   0.570
 4083W        W 8147   6.033   3.153  11.108
 4084W        W 8148   4.736   3.813   3.025
 4085W        W 8149  10.268   4.088   2.805
 4086W        W 8150   7.974   3.625   3.195
 4087W        W 8151   8.459   0.679   3.291
 4088W        W 8152   8.550   1.731   3.052
 4089W        W 8153   1.373   6.450  10.838
 4090W        W 8154   4.070   5.626   1.636
 4091W        W 8155   3.238   2.453   3.165
 4092W        W 8156   2.670   9.283   9.889
 4093W        W 8157   6.224   1.766   9.939
 4094W        W 8158   0.766   4.103   1.706
 4095W        W 8159   5.528   7.033   8.722
 4096W        W 8160   6.171   8.558   0.836
 4097W        W 8161   9.173   5.961  10.000
 4098W        W 8162   3.787   3.571   1.158
 4099W        W 8163   9.057   4.607   2.639
 4100W        W 8164   9.847   0.916   1.257
 4101W        W 8165   5.038   9.504   9.260
 4102W        W 8166   2.379   2.584  10.784
 4103W        W 8167   1.370   6.572   0.918
 4104W        W 8168   2.908   8.912   9.597
 4105W        W 8169   0.919   3.764   3.293
 4106W        W 8170   4.214   1.236   1.704
 4107W        W 8171   0.646   7.306   9.001
 4108W        W 8172   5.569   3.827   1.422
 4109W        W 8173   9.004   0.327   9.945
 4110W        W 8174   1.003   3.052   2.860
 4111W        W 8175   2.942   7.172   2.723
 4112W        W 8176   3.157   3.845   9.091
 4113W        W 8177   8.364   0.310   2.929
 4114W        W 8178   9.787   8.998  11.510
 4115W        W 8179   5.023   6.685   0.775
 4116W        W 8180  10.492   2.821   1.927
 4117W        W 8181   8.656   6.645  10.788
 4118W        W 8182   4.248   9.106   2.827
 4119W        W 8183   9.991   3.055   9.328
 4120W        W 8184   7.453   9.314  10.704
 4121W        W 8185   5.975   5.286  11.509
 4122W        W 8186   9.431   4.285  10.540
 4123W        W 8187   6.682   4.268   2.307
 4124W        W 8188   3.722   9.833  10.293
 4125W        W 8189   7.289   2.231   9.213
 4126W        W 8190   9.742   0.765   0.234
 4127W        W 8191   5.069   3.733  10.998
 4128W        W 8192   0.472   8.277  10.179
 4129W        W 8193   0.787   7.809   2.677
 4130W        W 8194   5.214   3.071   3.097
 4131W        W 8195   9.937   0.277   0.734
 4132W        W 8196   7.485   6.304   0.027
 4133W        W 8197   3.547   1.095   9.830
 4134W        W 8198   8.275   4.277   9.849
 4135W        W 8199   2.255   3.255  11.471
 4136W        W 8200   4.132   6.158   8.891
 4137W        W 8201   4.597   4.654   0.102
 4138W        W 8202   7.875   1.406   8.850
 4139W        W 8203   9.531   0.852   2.733
 4140W        W 8204   6.670   2.353   1.746
 4141W        W 8205   4.773   1.878   1.396
 4142W        W 8206   5.792  10.415   3.434
 4143W        W 8207   4.354   7.453   9.448
 4144W        W 8208   5.799   3.201   1.878
 4145W        W 8209  10.426   3.283  10.613
 4146W        W 8210   5.161   9.082  10.985
 4147W        W 8211   8.620   2.884  10.965
 4148W        W 8212   5.555   0.671   1.238
 4149W        W 8213   4.220   7.762  10.310
 4150W        W 8214   2.456   5.592   8.380
 4151W        W 8215   1.377   6.146   2.419
 4152W        W 8216   4.703   4.965   0.736
 4153W        W 8217   0.324   8.016  10.592
 4154W        W 8218   7.440   6.073   0.920
 4155W        W 8219   4.596   5.238   2.566
 4156W        W 8220   5.239  10.070  10.568
 4157W        W 8221   5.759   6.216   9.879
 4158W        W 8222  10.443   1.103   2.957
 4159W        W 8223   7.605   1.161   3.468
 4160W        W 8224   5.683   9.027  10.172
 4161W        W 8225   2.720   5.728   9.058
 4162W        W 8226   3.629   1.595   9.928
 4163W        W 8227   5.703   2.386   1.403
 4164W        W 8228   3.402   5.782   9.971
 4165W        W 8229   8.032   2.935   0.675
 4166W        W 8230   3.407   6.112  11.394
 4167W        W 8231   2.457   6.497   8.583
 4168W        W 8232   2.377   1.962   1.505
 4169W        W 8233   4.571   5.595   1.804
 4170W        W 8234   6.921   2.166   9.591
 4171W        W 8235   0.369   0.030  11.353
 4172W        W 8236   8.394   6.967   1.991
 4173W        W 8237   6.453   3.366   1.320
 4174W        W 8238   9.403   6.214  10.412
 4175W        W 8239   8.973   6.826   9.070
 4176W        W 8240   2.439   2.903   1.656
 4177W        W 8241   0.745   8.378   9.750
 4178W        W 8242   1.949   8.459   2.658
 4179W        W 8243   2.709   9.263   8.855
 4180W        W 8244   8.893   9.111   9.569
 4181W        W 8245   5.994   6.757  11.604
 4182W        W 8246   8.668   4.986   9.376
 4183W        W 8247   5.032   2.720   3.416
 4184W        W 8248   1.699   3.201   1.682
 4185W        W 8249   4.300   6.445  10.997
 4186W        W 8250   2.683   9.104  11.795
 4187W        W 8251   0.780   9.412   1.906
 4188W        W 8252   7.453  10.297   2.118
 4189W        W 8253   9.762   4.354  10.010
 4190W        W 8254   4.077   0.374   3.340
 4191W        W 8255   4.528   8.936   0.660
 4192W        W 8256   7.214   5.720   2.181
 4193W        W 8257   0.771   3.737  10.774
 4194W        W 8258   3.134   2.295   2.192
 4195W        W 8259  10.427   9.860   1.441
 4196W        W 8260   5.959   9.565   3.563
 4197W        W 8261   6.946   8.132  10.779
 4198W        W 8262   0.781   5.168   2.154
 4199W        W 8263   0.451   1.946   2.184
 4200W        W 8264   1.144   6.422   8.617
 4201W        W 8265   4.493   1.731   2.400
 4202W        W 8266   0.869   3.064   8.968
 4203W        W 8267   2.744   6.472   0.843
 4204W        W 8268   0.479   7.747  11.368
 4205W        W 8269   3.719   0.439   1.974
 4206W        W 8270   0.837   1.789  11.404
 4207W        W 8271   4.945   4.220   9.125
 4208W        W 8272   7.770   0.853   1.785
 4209W        W 8273   5.504   6.720   3.577
 4210W        W 8274   1.257   6.078   9.929
 4211W        W 8275   9.998   4.021   0.213
 4212W        W 8276   8.423   1.200   3.311
 4213W        W 8277  10.241   5.504   2.669
 4214W        W 8278   5.778   7.103  10.043
 4215W        W 8279   7.482   2.726   1.981
 4216W        W 8280   9.187  10.260   9.881
 4217W        W 8281   0.314   5.432  11.066
 4218W        W 8282   4.791   7.938  10.340
 4219W        W 8283   8.901   1.612   9.361
 4220W        W 8284   1.218   3.985   1.933
 4221W        W 8285   3.737   5.837  11.721
 4222W        W 8286   6.575   8.347   2.709
 4223W        W 8287   3.212   6.968   9.057
 4224W        W 8288   1.357   2.272  11.882
 4225W        W 8289   7.838   9.530  10.423
 4226W        W 8290   6.751   3.998   9.319
 4227W        W 8291   8.393   2.614  11.900
 4228W        W 8292   8.027   9.997   0.382
 4229W        W 8293   7.582   6.619   0.477
 4230W        W 8294   8.741   9.545   2.253
 4231W        W 8295   4.636   4.223   3.341
 4232W        W 8296   6.054   8.566   9.303
 4233W        W 8297   3.747   1.315   1.942
 4234W        W 8298   0.892   6.915   9.245
 4235W        W 8299   7.869   1.807   0.058
 4236W        W 8300   6.675   6.492  11.367
 4237W        W 8301  10.480   8.247   3.117
 4238W        W 8302   9.687   3.894   8.884
 4239W        W 8303   4.229   7.408  11.275
 4240W        W 8304  10.420   9.396   0.606
 4241W        W 8305   4.642   8.908   3.123
 4242W        W 8306   3.197   3.723  10.090
 4243W        W 8307   6.063   9.584  10.975
 4244W        W 8308  10.482   9.704  11.418
 4245W        W 8309   1.540   3.744   2.934
 4246W        W 8310   7.615   1.304  10.630
 4247W        W 8311   8.372   7.071  10.773
 4248W        W 8312   4.347   5.268   8.431
 4249W        W 8313   2.306   3.910   8.774
 4250W        W 8314   4.755   6.029   1.014
 4251W        W 8315   1.899   3.058  11.907
 4252W        W 8316   3.316   7.145  10.462
 4253W        W 8317   9.334   2.817   1.689
 4254W        W 8318   3.511   2.692   2.324
 4255W        W 8319   4.714   7.027   2.486
 4256W        W 8320   6.142   2.250  10.133
 4257W        W 8321   1.849   5.993   1.771
 4258W        W 8322   7.819   9.758  11.657
 4259W        W 8323   6.680   6.165  11.959
 4260W        W 8324   9.376   9.054   1.341
 4261W        W 8325   9.450   0.019   2.649
 4262W        W 8326   1.944   9.761   0.689
 4263W        W 8327   2.054   9.944  10.406
 4264W        W 8328   0.390   2.893   0.698
 4265W        W 8329   2.171   4.499  10.859
 4266W        W 8330   3.269   4.447   3.593
 4267W        W 8331   0.038   2.822   0.334
 4268W        W 8332  10.318   8.208  10.735
 4269W        W 8333   5.236   9.477   0.779
 4270W        W 8334   4.807   2.336   1.186
 4271W        W 8335   1.712   8.476  11.782
 4272W        W 8336   3.220   7.214   1.412
 4273W        W 8337   0.296   5.212   3.613
 4274W        W 8338   8.923   6.204   8.511
 4275W        W 8339   6.942   4.075   0.682
 4276W        W 8340   1.340   7.854   0.305
 4277W        W 8341   2.851   9.836   1.865
 4278W        W 8342   2.110   6.636  11.805
 4279W        W 8343   1.933   9.442  11.485
 4280W        W 8344   5.955   4.312   9.091
 4281W        W 8345   7.998   9.691   9.902
 4282W        W 8346   8.154   8.593   2.653
 4283W        W 8347   9.356   1.718   9.854
 4284W        W 8348   3.622   3.547   2.159
 4285W        W 8349   3.541   9.545   9.900
 4286W        W 8350   1.391   3.184  11.849
 4287W        W 8351   2.191   3.739   9.815
 4288W        W 8352   3.183   8.849   3.407
 4289W        W 8353   8.365   5.244  10.956
 4290W        W 8354   3.239   0.676   2.978
 4291W        W 8355   3.852   4.675   8.302
 4292W        W 8356  10.239   6.081   2.855
 4293W        W 8357   6.563   4.882   1.260
 4294W        W 8358   3.737   4.550   1.946
 4295W        W 8359   2.574   2.047   8.859
 4296W        W 8360   4.416  10.104  10.431
 4297W        W 8361   7.074   2.315  10.066
 4298W        W 8362   9.586   2.994  10.823
 4299W        W 8363   1.692   7.552   9.063
 4300W        W 8364   6.680   6.168   4.010
 4301W        W 8365   1.797   7.046  11.757
 4302W        W 8366   0.031  10.227   9.585
 4303W        W 8367   0.269   3.105   1.194
 4304W        W 8368   9.514   5.630   0.715
 4305W        W 8369   8.919   5.062   8.920
 4306W        W 8370   8.552   6.644   1.634
 4307W        W 8371   0.898   4.760  10.730
 4308W        W 8372   2.348   4.755  11.252
 4309W        W 8373   3.857   8.302   9.533
 4310W        W 8374   2.083   1.051   1.325
 4311W        W 8375   6.346   9.786   9.230
 4312W        W 8376   5.064   4.223   8.624
 4313W        W 8377   6.132   2.321   1.690
 4314W        W 8378   4.651   5.894  10.503
 4315W        W 8379  10.313   2.984  11.902
 4316W        W 8380   8.428   4.266   0.257
 4317W        W 8381   7.847   9.020   2.518
 4318W        W 8382   2.849   8.522   2.745
 4319W        W 8383   3.388  10.343   2.913
 4320W        W 8384   0.016  10.482   0.773
 4321W        W 8385   2.763  10.337  11.669
 4322W        W 8386   8.207   6.721   3.228
 4323W        W 8387   0.245   6.523   9.258
 4324W        W 8388   4.146   9.237   1.428
 4325W        W 8389   3.481   0.359   8.554
 4326W        W 8390   6.565   3.717   2.002
 4327W        W 8391   8.954  10.178   0.059
 4328W        W 8392   0.368   8.946   2.148
 4329W        W 8393   1.338   1.304   0.041
 4330W        W 8394   8.827   9.960   3.018
 4331W        W 8395   0.561   0.979  11.031
 4332W        W 8396   5.950   6.433   3.574
 4333W        W 8397   6.173   0.963  10.941
 4334W        W 8398   7.868   0.843   0.379
 4335W        W 8399   9.556   7.367  11.889
 4336W        W 8400   2.381   1.084   8.969
 4337W        W 8401   2.051   9.826  11.808
 4338W        W 8402   3.370   7.492  11.228
 4339W        W 8403   0.048   2.660   1.049
 4340W        W 8404   2.753   2.189  11.363
 4341W        W 8405   5.232   9.991   0.015
 4342W        W 8406   6.509   8.357   1.763
 4343W        W 8407   4.720   5.504  11.822
 4344W        W 8408   1.661   7.916   9.864
 4345W        W 8409   1.308   2.761   2.603
 4346W        W 8410  10.171   7.251   0.968
 4347W        W 8411   6.544  10.271   9.387
 4348W        W 8412   4.193   8.499   9.872
 4349W        W 8413   5.970   0.000  11.758
 4350W        W 8414   0.115   5.337   0.888
 4351W        W 8415  10.249   6.516   9.077
 4352W        W 8416   8.110   4.114   9.386
 4353W        W 8417   3.342   2.403  10.408
 4354W        W 8418   7.676   5.274  11.421
 4355W        W 8419   6.631   6.909   0.376
 4356W        W 8420   6.125   1.853   0.052
 4357W        W 8421   9.299   0.291   1.293
 4358W        W 8422   5.907   5.730   9.866
 4359W        W 8423   9.039   5.705   2.431
 4360W        W 8424   9.541  10.499   0.934
 4361W        W 8425   0.488   6.080   9.374
 4362W        W 8426   7.490   6.107   2.934
 4363W        W 8427   6.093   6.084   9.498
 4364W        W 8428   6.713   3.061   9.375
 4365W        W 8429   0.794   8.986   2.702
 4366W        W 8430   4.951   2.652   1.975
 4367W        W 8431   3.062   0.197  11.311
 4368W        W 8432   4.238   1.066  10.473
 4369W        W 8433  10.352   6.897   8.753
 4370W        W 8434   3.692   3.294   2.969
 4371W        W 8435   7.531   4.010   4.360
 4372W        W 8436   9.343   6.154  11.377
 4373W        W 8437   2.695   7.417  11.659
 4374W        W 8438   0.522   7.735  11.913
 4375W        W 8439   7.164   5.000   1.925
 4376W        W 8440   0.319   5.044   2.655
 4377W        W 8441   4.138   6.287   2.898
 4378W        W 8442   3.616   3.758  10.373
 4379W        W 8443   5.545   1.670   0.923
 4380W        W 8444   3.737   0.746   8.894
 4381W        W 8445   7.546   1.349  11.129
 4382W        W 8446   2.723   9.774   9.023
 4383W        W 8447   4.705  10.047   0.799
 4384W        W 8448   6.690   8.481   2.238
 4385W        W 8449   5.050   4.011   9.876
 4386W        W 8450   6.903   0.784   9.618
 4387W        W 8451   2.122   6.900   1.901
 4388W        W 8452   8.822   2.916  11.984
 4389W        W 8453   5.091   6.663   2.318
 4390W        W 8454   0.781   2.239   1.174
 4391W        W 8455   9.032   8.883   0.874
 4392W        W 8456   9.878   8.175   2.792
 4393W        W 8457   3.314   7.582  10.219
 4394W        W 8458   4.917   6.197  11.548
 4395W        W 8459   7.045   5.398   1.035
 4396W        W 8460   7.913   6.290   0.930
 4397W        W 8461   8.340   5.924  11.367
 4398W        W 8462   6.335   2.704  10.919
 4399W        W 8463   8.375   6.315   2.557
 4400W        W 8464  10.019   6.160  10.981
 4401W        W 8465   2.097   8.586   2.125
 4402W        W 8466   8.949   2.642   0.992
 4403W        W 8467   9.469   5.478   1.671
 4404W        W 8468   4.089   8.892   0.992
 4405W        W 8469   2.582  10.006  10.440
 4406W        W 8470   5.086   9.558   1.301
 4407W        W 8471   7.140   7.488   9.169
 4408W        W 8472  10.146   6.656  10.963
 4409W        W 8473   4.125   3.763  11.795
 4410W        W 8474   9.916   2.980   8.814
 4411W        W 8475   2.912   9.919  11.408
 4412W        W 8476   5.525   0.744   0.728
 4413W        W 8477   0.212   6.936   3.393
 4414W        W 8478   5.588  10.337   9.374
 4415W        W 8479   7.915   3.298   9.683
 4416W        W 8480   7.365   1.427   8.629
 4417W        W 8481   5.431   5.522   1.896
 4418W        W 8482   9.534   4.485   2.584
 4419W        W 8483   9.956   4.063   1.966
 4420W        W 8484   9.271   8.840  10.830
 4421W        W 8485   5.997   3.510   9.363
 4422W        W 8486   2.853   8.329   0.258
 4423W        W 8487   1.477   4.704   0.910
 4424W        W 8488   9.753   8.862  11.012
 4425W        W 8489   9.825   5.202   0.974
 4426W        W 8490   1.457   6.163   9.436
 4427W        W 8491   8.103   6.094   9.471
 4428W        W 8492   5.193   0.274  10.333
 4429W        W 8493   4.984   3.758   0.512
 4430W        W 8494   2.712   1.184  10.331
 4431W        W 8495   8.546   1.709   2.516
 4432W        W 8496   4.570   3.852  11.529
 4433W        W 8497   5.184  10.029   9.638
 4434W        W 8498   1.383   6.660   3.043
 4435W        W 8499   0.458   8.201   2.809
 4436W        W 8500   6.134   4.289   2.617
 4437W        W 8501   8.088   0.198  10.160
 4438W        W 8502   3.539   9.911   3.186
 4439W        W 8503   5.455   8.567  10.358
 4440W        W 8504   9.478   7.269   0.383
 4441W        W 8505   2.356   7.074   2.506
 4442W        W 8506   2.817   1.762   9.476
 4443W        W 8507   2.348   7.763  10.462
 4444W        W 8508   6.111   4.171   0.247
 4445W        W 8509   4.288   8.052   2.881
 4446W        W 8510   2.669   4.610   9.346
 4447W        W 8511  10.368   8.447   1.812
 4448W        W 8512   1.821   0.307   8.885
 4449W        W 8513   2.242   4.123  11.301
 4450W        W 8514   4.778   6.058   0.006
 4451W        W 8515   5.980   0.834   2.589
 4452W        W 8516   4.653   9.146   9.236
 4453W        W 8517   8.533   1.065   1.419
 4454W        W 8518   8.378   2.620   2.533
 4455W        W 8519   4.683  10.345   1.931
 4456W        W 8520   9.074   0.695  10.748
 4457W        W 8521   0.774   8.512   3.403
 4458W        W 8522   6.110   1.646   1.464
 4459W        W 8523   5.260   8.210   2.707
 4460W        W 8524   0.305   1.681   1.753
 4461W        W 8525   7.397   7.146  10.491
 4462W        W 8526   8.293   5.163   3.046
 4463W        W 8527   7.042   5.366   3.793
 4464W        W 8528  10.305   4.193  11.754
 4465W        W 8529   0.319   7.563   1.911
 4466W        W 8530   9.934   5.533   1.427
 4467W        W 8531   5.651   3.505  11.750
 4468W        W 8532   4.057   2.393  11.367
 4469W        W 8533   6.024   4.083   0.761
 4470W        W 8534   8.031   3.543  10.652
 4471W        W 8535   3.136   0.310   2.634
 4472W        W 8536   5.754   9.149  11.747
 4473W        W 8537   2.836   0.739  10.593
 4474W        W 8538   6.674   1.384   0.458
 4475W        W 8539   7.402   5.572   9.958
 4476W        W 8540   4.184   3.434   1.440
 4477W        W 8541   3.568  10.055   0.008
 4478W        W 8542   4.263   9.615   2.743
 4479W        W 8543   5.646   6.592  10.259
 4480W        W 8544   9.378   1.517  10.803
 4481W        W 8545   8.263   3.749  10.256
 4482W        W 8546   0.702   5.496  11.383
 4483W        W 8547   0.431   1.892   0.872
 4484W        W 8548   4.130   7.051   0.710
 4485W        W 8549   4.229   0.737  11.836
 4486W        W 8550   5.289   8.531   9.420
 4487W        W 8551   1.794   2.107   9.839
 4488W        W 8552   3.326   6.122   9.570
 4489W        W 8553   7.048  10.085   0.301
 4490W        W 8554   1.590   7.786   3.740
 4491W        W 8555   8.414   3.310   9.818
 4492W        W 8556   6.568   2.139  11.491
 4493W        W 8557   1.784   6.982  10.292
 4494W        W 8558   0.350   6.019   2.000
 4495W        W 8559   5.967   7.093   9.580
 4496W        W 8560   2.679   5.157   3.329
 4497W        W 8561   1.873   0.331   1.778
 4498W        W 8562   1.697   7.967  11.939
 4499W        W 8563   6.274   8.264  10.278
 4500W        W 8564   7.061   2.216   2.515
 4501W        W 8565   6.170   8.982   9.045
 4502W        W 8566   8.886   6.198  10.415
 4503W        W 8567   6.224   2.741   3.232
 4504W        W 8568   7.084   2.741   1.195
 4505W        W 8569   9.926   6.500  11.428
 4506W        W 8570   9.517   3.772   1.445
 4507W        W 8571   0.892   6.053   2.312
 4508W        W 8572   7.786   8.153   1.033
 4509W        W 8573   4.277   3.256   3.550
 4510W        W 8574   0.540   8.952   0.204
 4511W        W 8575   5.673   0.289   2.341
 4512W        W 8576   2.166   0.351  10.259
 4513W        W 8577   9.842   6.567   9.397
 4514W        W 8578   3.788   2.973   0.461
 4515W        W 8579   8.860   4.603   9.657
 4516W        W 8580   0.968   9.435  11.534
 4517W        W 8581   1.408   1.411   2.723
 4518W        W 8582   1.861   5.730   0.014
 4519W        W 8583   7.903   7.171  11.192
 4520W        W 8584   9.217   0.058   3.103
 4521W        W 8585   1.509   9.521   0.866
 4522W        W 8586   8.559   0.248   2.022
 4523W        W 8587  10.426   4.191   1.743
 4524W        W 8588   7.199   5.083   1.411
 4525W        W 8589   8.443  10.445   2.426
 4526W        W 8590   3.183   3.324  11.555
 4527W        W 8591   4.645   6.855   0.442
 4528W        W 8592   3.392   5.730  10.781
 4529W        W 8593   9.716   5.678   8.935
 4530W        W 8594   7.853   9.088  10.973
 4531W        W 8595   2.940   0.493  11.767
 4532W        W 8596   9.096   3.747   9.912
 4533W        W 8597   5.748   5.271   2.214
 4534W        W 8598   4.251  10.319   2.238
 4535W        W 8599   0.463   8.077   1.861
 4536W        W 8600   0.917   6.614  11.091
 4537W        W 8601   1.040   3.822   8.270
 4538W        W 8602   5.731   6.880   2.760
 4539W        W 8603   8.366   2.123  10.774
 4540W        W 8604   6.748   0.788  10.847
 4541W        W 8605   5.820   1.517  10.329
 4542W        W 8606   8.273   7.275  11.520
 4543W        W 8607   5.063   9.126   2.312
 4544W        W 8608   7.018   5.252   9.846
 4545W        W 8609   9.842   5.948   0.469
 4546W        W 8610   6.985   3.249   9.797
 4547W        W 8611   4.807   3.820   2.509
 4548W        W 8612   8.659   7.150   9.821
 4549W        W 8613   5.487   7.605   3.221
 4550W        W 8614   3.558   7.148  10.900
 4551W        W 8615   3.032   0.659  11.054
 4552W        W 8616   8.053   8.964  11.916
 4553W        W 8617   9.818   5.097  11.916
 4554W        W 8618   8.931   1.983   9.692
 4555W        W 8619   6.137   3.783  11.792
 4556W        W 8620   7.379   0.330  10.346
 4557W        W 8621   1.124   2.220  10.906
 4558W        W 8622   3.315   3.309   1.323
 4559W        W 8623   8.977   7.842   2.835
 4560W        W 8624   4.732   9.412   0.603
 4561W        W 8625   7.078   1.784   1.455
 4562W        W 8626   2.241   8.632  10.125
 4563W        W 8627   4.344   9.731  10.882
 4564W        W 8628   3.133   5.565   1.852
 4565W        W 8629   5.720   3.075   9.295
 4566W        W 8630   7.208   8.093  10.310
 4567W        W 8631   6.725   5.342   1.440
 4568W        W 8632   9.826   0.771  11.708
 4569W        W 8633   3.915   9.819  11.693
 4570W        W 8634   3.692   6.963   1.513
 4571W        W 8635   1.482   0.202   1.497
 4572W        W 8636   6.064   5.784  11.330
 4573W        W 8637   3.867   4.029   2.221
 4574W        W 8638   4.043   4.199   2.712
 4575W        W 8639   3.236   4.764   3.189
 4576W        W 8640   9.068   6.879   2.704
 4577W        W 8641   2.614   8.414   3.468
 4578W        W 8642   3.848   0.867   1.708
 4579W        W 8643   4.844   6.657   9.899
 4580W        W 8644   2.559   0.231  11.446
 4581W        W 8645   3.358   3.132  10.911
 4582W        W 8646   9.636   9.355   3.323
 4583W        W 8647   6.959   2.922  11.365
 4584W        W 8648   1.259   1.553   1.719
 4585W        W 8649   5.065   6.934   1.227
 4586W        W 8650   7.062   7.201   2.267
 4587W        W 8651   8.026   6.984   2.349
 4588W        W 8652   5.433   3.789   2.678
 4589W        W 8653   8.714   9.710   3.480
 4590W        W 8654   3.654   4.719   1.485
 4591W        W 8655   5.955   8.348  11.934
 4592W        W 8656   1.227   8.084   2.541
 4593W        W 8657   7.877   0.407   2.821
 4594W        W 8658   1.900   8.834  11.016
 4595W        W 8659   1.886   9.482  10.050
 4596W        W 8660   4.744   2.913   2.816
 4597W        W 8661   9.928   1.367   1.544
 4598W        W 8662   6.179   0.410   2.396
 4599W        W 8663   6.576   7.058   1.310
 4600W        W 8664   3.826   4.087   0.149
 4601W        W 8665   3.662   0.690   3.290
 4602W        W 8666   7.839   5.299   9.879
 4603W        W 8667   7.104   8.513   9.998
 4604W        W 8668   4.710   9.032  10.249
 4605W        W 8669   0.841   0.939   1.894
 4606W        W 8670   4.251   7.477   0.474
 4607W        W 8671   2.754   1.051   0.670
 4608W        W 8672   2.751   0.481   2.961
 4609W        W 8673   7.662   3.302   0.719
 4610W        W 8674   4.194   5.335  10.050
 4611W        W 8675   0.543   2.791   2.816
 4612W        W 8676   4.230   4.387   9.037
 4613W        W 8677   7.369   3.865   0.110
 4614W        W 8678   1.934   6.467  10.312
 4615W        W 8679   3.702   4.579  11.953
 4616W        W 8680   8.433   9.011   2.787
 4617W        W 8681   6.425   8.117  10.793
 4618W        W 8682  10.445   6.503  11.353
 4619W        W 8683   6.015   5.541   9.023
 4620W        W 8684   0.746   5.908   2.796
 4621W        W 8685   0.080   6.592   1.249
 4622W        W 8686   8.660  10.455  10.875
 4623W        W 8687   0.048   2.681  10.049
 4624W        W 8688   9.830   5.165  11.051
 4625W        W 8689   5.068   2.814  11.422
 4626W        W 8690   0.607   9.006  11.328
 4627W        W 8691   2.723   2.297   8.446
 4628W        W 8692   8.747   1.113   9.349
 4629W        W 8693   3.493   4.166  11.768
 4630W        W 8694   8.783   8.815  10.625
 4631W        W 8695   8.492   5.010   2.261
 4632W        W 8696   1.128   2.936   0.932
 4633W        W 8697   9.339   6.521   9.241
 4634W        W 8698   7.116   8.353   0.820
 4635W        W 8699   9.849   2.302   1.649
 4636W        W 8700   5.621   4.745   2.830
 4637W        W 8701   2.935  10.430  10.154
 4638W        W 8702   4.513   0.578   2.525
 4639W        W 8703   6.771   6.179   9.931
 4640W        W 8704   5.897   8.549   3.393
 4641W        W 8705   3.051   8.035   2.600
 4642W        W 8706   5.107   9.067   8.957
 4643W        W 8707   6.555   3.618  10.016
 4644W        W 8708   2.547   3.309   9.846
 4645W        W 8709   0.951   6.153  10.869
 4646W        W 8710   8.921   7.424   3.154
 4647W        W 8711   6.969   6.446   3.675
 4648W        W 8712  10.350   4.726   9.843
 4649W        W 8713   5.475   0.444   1.846
 4650W        W 8714   5.493   3.611   1.926
 4651W        W 8715   8.523   7.752   1.407
 4652W        W 8716   6.480   4.554   4.134
 4653W        W 8717   1.813   9.823   1.173
 4654W        W 8718   8.624   4.146   9.480
 4655W        W 8719   0.368   2.880  11.946
 4656W        W 8720   4.975   8.566   2.933
 4657W        W 8721   8.363   5.117   3.526
 4658W        W 8722   8.039  10.325   8.818
 4659W        W 8723  10.435   2.493  11.936
 4660W        W 8724   4.302   8.584   2.821
 4661W        W 8725   9.582  10.078  10.895
 4662W        W 8726   3.888   4.639   9.375
 4663W        W 8727   1.149   7.419   9.066
 4664W        W 8728   4.780   2.095  11.766
 4665W        W 8729   8.773   0.147  11.362
 4666W        W 8730   3.959   5.608   8.480
 4667W        W 8731   3.718   2.276   1.518
 4668W        W 8732   2.190   2.369   9.009
 4669W        W 8733   7.378   4.595   0.815
 4670W        W 8734   5.161   0.848   9.437
 4671W        W 8735   7.022   8.480   1.783
 4672W        W 8736   9.359   3.203   3.307
 4673W        W 8737   0.839   1.003   8.893
 4674W        W 8738   1.185   8.000  11.084
 4675W        W 8739   0.019   0.519   2.183
 4676W        W 8740   5.659   7.040  10.945
 4677W        W 8741   6.544  10.115   3.476
 4678W        W 8742   8.504   1.479  10.863
 4679W        W 8743   7.533   4.797  10.742
 4680W        W 8744   4.684   4.695  10.461
 4681W        W 8745   3.765   0.895  11.678
 4682W        W 8746   9.603   3.836  10.331
 4683W        W 8747   8.670   3.235   9.349
 4684W        W 8748   3.333   5.527  11.999
 4685W        W 8749   5.666   4.811   9.864
 4686W        W 8750   0.257   0.823  10.175
 4687W        W 8751   3.269   5.847   8.538
 4688W        W 8752   1.766   7.955  10.397
 4689W        W 8753   6.564  10.211   1.886
 4690W        W 8754   8.092   9.880   1.889
 4691W        W 8755   4.581   7.856  11.196
 4692W        W 8756   2.631   0.910   1.169
 4693W        W 8757   6.211   7.413   0.016
 4694W        W 8758   9.286   2.468   9.549
 4695W        W 8759   1.814   6.765   2.770
 4696W        W 8760   1.676   6.845   9.809
 4697W        W 8761   0.230   2.022   9.511
 4698W        W 8762   8.535   6.037  11.841
 4699W        W 8763   3.196   2.849   8.905
 4700W        W 8764   9.933   0.888   1.765
 4701W        W 8765   5.479   8.988   0.809
 4702W        W 8766   6.115   3.257  11.659
 4703W        W 8767   9.990   1.732  11.928
 4704W        W 8768   3.000   4.107  11.834
 4705W        W 8769   1.770   1.286  10.239
 4706W        W 8770   3.576   0.062  11.241
 4707W        W 8771   0.381   6.875   8.924
 4708W        W 8772   7.148   5.784   1.346
 4709W        W 8773   5.492   2.857   9.713
 4710W        W 8774   8.412   2.067   1.686
 4711W        W 8775   8.443   9.739   0.284
 4712W        W 8776   6.428   9.347   0.363
 4713W        W 8777   6.960   4.648   4.353
 4714W        W 8778   8.556   3.803   9.852
 4715W        W 8779   3.218   2.325   1.434
 4716W        W 8780   1.386   5.207   1.378
 4717W        W 8781   0.225   0.712   3.174
 4718W        W 8782   7.896   5.000  11.048
 4719W        W 8783   0.713   4.977   9.772
 4720W        W 8784  10.282   5.667   9.645
 4721W        W 8785  10.098   3.649   8.520
 4722W        W 8786   9.119   4.742  10.648
 4723W        W 8787   7.602   0.427   0.367
 4724W        W 8788   5.263   4.084   2.291
 4725W        W 8789   9.780   9.854   3.295
 4726W        W 8790   1.935   8.313  11.018
 4727W        W 8791   9.253   4.052  11.801
 4728W        W 8792   1.395   5.565  10.041
 4729W        W 8793   2.163   8.466   9.645
 4730W        W 8794   8.443   6.435  11.281
 4731W        W 8795   8.370   8.437   3.104
 4732W        W 8796   7.715   9.969   1.302
 4733W        W 8797   7.080   3.585  10.189
 4734W        W 8798   9.400   6.014  10.896
 4735W        W 8799   7.774  10.243   1.732
 4736W        W 8800   4.738   5.774   9.562
 4737W        W 8801   6.183   6.250   2.283
 4738W        W 8802   7.542   2.171  10.233
 4739W        W 8803   6.631   0.201   0.712
 4740W        W 8804   6.163   0.859   8.459
 4741W        W 8805   7.373   0.888   0.408
 4742W        W 8806   9.595   3.866   9.820
 4743W        W 8807  10.370   9.211   2.079
 4744W        W 8808   6.114   8.040   1.874
 4745W        W 8809  10.196   1.541   0.347
 4746W        W 8810   7.106   5.082   0.197
 4747W        W 8811   8.597   3.043   2.286
 4748W        W 8812   2.806   5.200   9.058
 4749W        W 8813   8.248   6.197   9.933
 4750W        W 8814   4.221   6.714  10.559
 4751W        W 8815   3.631   3.661   8.926
 4752W        W 8816   0.849   3.523   8.679
 4753W        W 8817   4.317   3.307  10.463
 4754W        W 8818   3.669   6.725  10.051
 4755W        W 8819   0.805   0.730   3.170
 4756W        W 8820   2.774   8.346  10.870
 4757W        W 8821   4.676   4.907   9.345
 4758W        W 8822   5.517   5.866  10.766
 4759W        W 8823   5.312   5.049   1.935
 4760W        W 8824   7.534   0.800   9.553
 4761W        W 8825   5.159   6.215  11.053
 4762W        W 8826   6.530   6.111   3.024
 4763W        W 8827   5.476   1.339   9.472
 4764W        W 8828  10.434   3.514   0.467
 4765W        W 8829   2.485   5.257  11.504
 4766W        W 8830  10.126   3.986   3.642
 4767W        W 8831   9.319   6.615   2.332
 4768W        W 8832   2.659   1.224   9.433
 4769W        W 8833  10.435   9.133  10.880
 4770W        W 8834   0.864   3.106   0.072
 4771W        W 8835   4.613   6.434   3.724
 4772W        W 8836   2.441   5.142  11.999
 4773W        W 8837   7.762   0.641  10.091
 4774W        W 8838   0.847   0.220   3.621
 4775W        W 8839   3.129  10.421   1.418
 4776W        W 8840   8.414   7.299   2.461
 4777W        W 8841   8.529   7.594   2.846
 4778W        W 8842   0.854   7.652   0.331
 4779W        W 8843   0.869   9.511   0.917
 4780W        W 8844   0.925   9.864  11.265
 4781W        W 8845   8.732   9.773  11.787
 4782W        W 8846   1.055   6.327   2.782
 4783W        W 8847  10.457   9.981   0.923
 4784W        W 8848   4.582   2.985  11.427
 4785W        W 8849   1.829   0.943   2.879
 4786W        W 8850   1.707   2.551   2.369
 4787W        W 8851   5.977   0.528   0.127
 4788W        W 8852   8.087   4.843   1.119
 4789W        W 8853   2.677   2.394   2.390
 4790W        W 8854   0.279   3.654  10.517
 4791W        W 8855   3.630   6.220  10.046
 4792W        W 8856   6.569   5.242   0.885
 4793W        W 8857   6.590   5.911   9.546
 4794W        W 8858   6.702   8.688   0.845
 4795W        W 8859   2.310   0.759   2.803
 4796W        W 8860   6.750   9.119   0.033
 4797W        W 8861   1.773   3.067   8.888
 4798W        W 8862   4.969   7.304   9.982
 4799W        W 8863   1.920  10.023   0.263
 4800W        W 8864   8.946   1.659   8.524
 4801W        W 8865   6.599   0.635   2.206
 4802W        W 8866   9.636   6.569   3.271
 4803W        W 8867   2.234   3.394   8.857
 4804W        W 8868   1.768   7.443   0.165
 4805W        W 8869   1.307   6.115  10.457
 4806W        W 8870   3.835   4.647   8.821
 4807W        W 8871   3.751   8.592   9.103
 4808W        W 8872   4.067   2.378   8.950
 4809W        W 8873   1.169   8.009   9.599
 4810W        W 8874   4.326   4.832   8.121
 4811W        W 8875   3.937   2.744  10.869
 4812W        W 8876   4.026   0.007   1.827
 4813W        W 8877   6.576   9.958   1.265
 4814W        W 8878   7.004   6.187   2.198
 4815W        W 8879   4.295  10.056   9.454
 4816W        W 8880   3.664   0.827   0.688
 4817W        W 8881  10.415   3.563   0.986
 4818W        W 8882   1.236   1.082  11.560
 4819W        W 8883   9.581   7.886   0.770
 4820W        W 8884   5.549   3.440   8.970
 4821W        W 8885   7.007   2.424  11.546
 4822W        W 8886   0.990   4.203  11.324
 4823W        W 8887   9.468   0.026  10.698
 4824W        W 8888   1.237  10.222   9.896
 4825W        W 8889   4.333   0.507  11.330
 4826W        W 8890   2.705   9.989   9.936
 4827W        W 8891   4.116   2.955   3.141
 4828W        W 8892  10.462   9.435  10.492
 4829W        W 8893   3.300   8.420   1.571
 4830W        W 8894   3.369   3.193   2.598
 4831W        W 8895   3.244   5.120  10.239
 4832W        W 8896   5.230   0.017   2.281
 4833W        W 8897   9.472   1.884   1.524
 4834W        W 8898   4.136   8.967   3.319
 4835W        W 8899   2.346   5.289   8.815
 4836W        W 8900   7.934   8.460   0.116
 4837W        W 8901   0.492   4.344   9.311
 4838W        W 8902   4.564   6.987   3.961
 4839W        W 8903   9.875   4.670   0.756
 4840W        W 8904   8.137   9.053   1.780
 4841W        W 8905   0.678   9.875  10.820
 4842W        W 8906   5.176   0.421  11.666
 4843W        W 8907   4.949   7.007   9.543
 4844W        W 8908   9.751   4.161  11.801
 4845W        W 8909   1.345   5.796   8.529
 4846W        W 8910   5.725   9.891  10.345
 4847W        W 8911   2.381   4.627   2.251
 4848W        W 8912   4.124   6.908  10.058
 4849W        W 8913   6.928   4.421   1.049
 4850W        W 8914   5.738  10.067   0.023
 4851W        W 8915   9.406   2.992   8.645
 4852W        W 8916   8.115   4.333  11.310
 4853W        W 8917   6.623   9.939  10.376
 4854W        W 8918   5.479   3.579   3.924
 4855W        W 8919   2.949   6.433  11.874
 4856W        W 8920   6.773   7.096   3.618
 4857W        W 8921   2.349  10.499   2.311
 4858W        W 8922   9.728   2.178  10.248
 4859W        W 8923   6.970   4.601   0.538
 4860W        W 8924   3.704   9.495   2.170
 4861W        W 8925   0.243   4.202   2.996
 4862W        W 8926   3.087   0.441   8.924
 4863W        W 8927   0.683   6.679   1.916
 4864W        W 8928   6.645   2.585  11.902
 4865W        W 8929   6.370   9.203   3.680
 4866W        W 8930   4.704   1.835  10.070
 4867W        W 8931   0.673   3.684   2.543
 4868W        W 8932   4.496   0.362   8.921
 4869W        W 8933   0.883   6.357   0.879
 4870W        W 8934   0.336   2.350  11.007
 4871W        W 8935  10.371   0.887   0.993
 4872W        W 8936   3.602   3.671  11.937
 4873W        W 8937   7.562   8.773  11.948
 4874W        W 8938   8.514   1.361  10.081
 4875W        W 8939   7.088   7.604  10.676
 4876W        W 8940   0.374   9.999   1.226
 4877W        W 8941   5.136   6.907   0.289
 4878W        W 8942   4.916   0.035   1.409
 4879W        W 8943   4.339   7.012   1.830
 4880W        W 8944   6.469   0.304   9.844
 4881W        W 8945   0.766  10.386   0.360
 4882W        W 8946   8.364   3.175  10.352
 4883W        W 8947   2.990   5.302   0.896
 4884W        W 8948   6.017   3.194   2.693
 4885W        W 8949   2.424   6.469   9.424
 4886W        W 8950   4.884   3.234   3.444
 4887W        W 8951   6.940   0.788  10.380
 4888W        W 8952   6.358   4.596   2.080
 4889W        W 8953   1.894   8.447  10.513
 4890W        W 8954   2.645   0.722  11.381
 4891W        W 8955   7.745   1.191   8.381
 4892W        W 8956   9.473   6.722   1.361
 4893W        W 8957   0.990   0.250   1.376
 4894W        W 8958   7.193   7.692   2.240
 4895W        W 8959   5.145   7.570  10.414
 4896W        W 8960   9.414   9.521   1.558
 4897W        W 8961  10.489   8.487   1.314
 4898W        W 8962   7.449   6.622   2.823
 4899W        W 8963   8.655   2.197   8.924
 4900W        W 8964   8.227   9.965  11.893
 4901W        W 8965   2.348   2.640   8.577
 4902W        W 8966   6.626   4.931   1.771
 4903W        W 8967   0.172   8.484   0.829
 4904W        W 8968   9.274   2.737   2.693
 4905W        W 8969   4.418   6.184  11.442
 4906W        W 8970   3.124  10.313   0.487
 4907W        W 8971   8.933   1.164  10.804
 4908W        W 8972   2.799   1.262   8.630
 4909W        W 8973   8.867   2.613  10.417
 4910W        W 8974   7.793   4.978   9.161
 4911W        W 8975   0.858   4.465   9.637
 4912W        W 8976   6.419   2.848  10.428
 4913W        W 8977   0.227   8.952   0.626
 4914W        W 8978   6.433   1.075   2.365
 4915W        W 8979   5.889   3.633   4.235
 4916W        W 8980   6.446   7.398   2.618
 4917W        W 8981   7.510   3.755   2.960
 4918W        W 8982   9.632   3.228   1.795
 4919W        W 8983   9.355   1.803  11.272
 4920W        W 8984   9.423   7.761   0.292
 4921W        W 8985   1.457   8.778   0.138
 4922W        W 8986   7.010   5.480   9.183
 4923W        W 8987   0.036   4.148  10.517
 4924W        W 8988   7.717   8.068  10.390
 4925W        W 8989   0.717   7.037   3.283
 4926W        W 8990   0.626   9.836   2.149
 4927W        W 8991   2.195   1.308  11.013
 4928W        W 8992   3.283   6.010  11.867
 4929W        W 8993   0.033   3.317  11.104
 4930W        W 8994   8.555   3.314   1.192
 4931W        W 8995   4.487   6.472   1.720
 4932W        W 8996   5.987   2.611  10.442
 4933W        W 8997   1.701   8.014   2.787
 4934W        W 8998   6.932   9.536   9.985
 4935W        W 8999   7.207   6.570  11.221
 4936W        W 9000   2.469   7.525   2.747
 4937W        W 9001   7.279   1.700   0.984
 4938W        W 9002   6.225   4.525   3.410
 4939W        W 9003   6.029   0.418  10.104
 4940W        W 9004   0.142   4.701   1.972
 4941W        W 9005   0.569   4.123   3.444
 4942W        W 9006   9.954   3.516   0.262
 4943W        W 9007   7.953   7.221   1.894
 4944W        W 9008   4.691   4.021   3.825
 4945W        W 9009   9.980   9.046   2.397
 4946W        W 9010   8.522   5.003   8.440
 4947W        W 9011   7.467   4.125  10.453
 4948W        W 9012   2.239   1.144  11.875
 4949W        W 9013   0.772   3.694   2.038
 4950W        W 9014   9.083   1.667   1.210
 4951W        W 9015   4.426   4.206  11.893
 4952W        W 9016   5.584   1.410   1.551
 4953W        W 9017   7.479   0.758   2.626
 4954W        W 9018   6.647   4.702   3.659
 4955W        W 9019   0.988   9.008   1.663
 4956W        W 9020   1.987   6.214   9.458
 4957W        W 9021   3.689   2.676   3.276
 4958W        W 9022   2.347   4.264  10.028
 4959W        W 9023   7.625   7.900   3.103
 4960W        W 9024   8.817   8.970   3.138
 4961W        W 9025   0.177   4.761   0.293
 4962W        W 9026   2.765   4.832  11.642
 4963W        W 9027   6.233   8.360   9.757
 4964W        W 9028   1.061   3.556   2.862
 4965W        W 9029   6.868   8.972   2.221
 4966W        W 9030   2.640   8.494   1.667
 4967W        W 9031   6.934   3.827  11.305
 4968W        W 9032  10.371   8.783   3.342
 4969W        W 9033   1.983   2.551  11.842
 4970W        W 9034   5.613   0.902   9.203
 4971W        W 9035   7.550   8.691   2.812
 4972W        W 9036   0.936   4.359   3.183
 4973W        W 9037   5.420   3.300   9.939
 4974W        W 9038   3.061   4.101   2.788
 4975W        W 9039   7.840   4.525  11.694
 4976W        W 9040   1.391   2.998   2.145
 4977W        W 9041   7.614   9.782   2.001
 4978W        W 9042   0.800   3.169   0.583
 4979W        W 9043   3.599   6.442   2.710
 4980W        W 9044   2.769   9.076   0.686
 4981W        W 9045   9.156   6.510   3.410
 4982W        W 9046   5.474   0.611  10.698
 4983W        W 9047   0.880   9.855   2.586
 4984W        W 9048   7.545  10.080   8.699
 4985W        W 9049   4.218   7.774  11.620
 4986W        W 9050   1.988   0.983   2.380
 4987W        W 9051   2.175  10.091   1.444
 4988W        W 9052   3.586   1.931   2.616
 4989W        W 9053   7.439   4.289  10.928
 4990W        W 9054   7.213   1.814   8.936
 4991W        W 9055   8.573   6.868   1.184
 4992W        W 9056   7.931   2.687   2.248
 4993W        W 9057   9.441   5.576   9.776
 4994W        W 9058   4.618   7.872   1.919
 4995W        W 9059   4.817   0.339  11.297
 4996W        W 9060   6.401   0.851  10.475
 4997W        W 9061   1.636   2.820  10.447
 4998W        W 9062   0.739   1.659   3.328
 4999W        W 9063   4.531   7.115   9.808
 5000W        W 9064   1.832   2.588   8.620
 5001W        W 9065   9.804   5.926  10.578
 5002W        W 9066   4.859   7.514   9.533
 5003W        W 9067   3.378   6.534   9.249
 5004W        W 9068   0.488   2.558   0.305
 5005W        W 9069   1.854   4.233   8.760
 5006W        W 9070   2.177   1.699   8.771
 5007W        W 9071   2.713   3.799   9.790
 5008W        W 9072   4.821   1.177  11.380
 5009W        W 9073   1.646   5.188   0.699
 5010W        W 9074   9.927   6.108   9.127
 5011W        W 9075   9.020   4.217   2.038
 5012W        W 9076   9.190  10.056   9.385
 5013W        W 9077   6.497   9.483  10.240
 5014W        W 9078   8.222   4.578   8.541
 5015W        W 9079   8.828   2.068  11.631
 5016W        W 9080   8.129   9.252  10.128
 5017W        W 9081   9.965   2.103   3.183
 5018W        W 9082  10.216   5.659   9.119
 5019W        W 9083   7.093   6.763  10.341
 5020W        W 9084   9.961  10.279  10.526
 5021W        W 9085   2.252   0.719   8.540
 5022W        W 9086   4.744   6.002   0.518
 5023W        W 9087   8.097   6.731  10.531
 5024W        W 9088   1.219   1.915   3.216
 5025W        W 9089   8.500   5.467   1.705
 5026W        W 9090   5.574   3.365   2.905
 5027W        W 9091  10.291   7.431   2.903
 5028W        W 9092   8.826   4.233   2.905
 5029W        W 9093   0.195   5.654   9.285
 5030W        W 9094   7.612   4.602  10.284
 5031W        W 9095   6.252   0.206   1.519
 5032W        W 9096   4.304  10.046   1.765
 5033W        W 9097   7.965   9.576   0.110
 5034W        W 9098   6.475   4.557   9.935
 5035W        W 9099   9.310   8.359   9.689
 5036W        W 9100   4.161   2.232  10.876
 5037W        W 9101   0.327   4.953   1.182
 5038W        W 9102   3.873   7.214   1.926
 5039W        W 9103   1.611  10.354   1.830
 5040W        W 9104   4.663   7.513   2.789
 5041W        W 9105   8.866   9.838   8.870
 5042W        W 9106   2.086   7.190   2.925
 5043W        W 9107   1.983   1.359   3.160
 5044W        W 9108   8.066   2.139   0.425
 5045W        W 9109   7.020   6.257  10.349
 5046W        W 9110   0.717   4.341  11.748
 5047W        W 9111   5.929   7.851  11.995
 5048W        W 9112  10.353   0.927  10.517
 5049W        W 9113   9.997   6.036   1.369
 5050W        W 9114   7.545   3.611  10.452
 5051W        W 9115   1.438   0.066   0.980
 5052W        W 9116   5.948   6.600   0.272
 5053W        W 9117   2.672   7.455   0.175
 5054W        W 9118   0.217   4.094  10.053
 5055W        W 9119   5.943  10.037  11.554
 5056W        W 9120   9.347   7.885   9.423
 5057W        W 9121   4.469   0.360   8.373
 5058W        W 9122   7.931   7.691  11.351
 5059W        W 9123   6.139   5.925  11.816
 5060W        W 9124   1.837   8.970  11.713
 5061W        W 9125   6.446   6.942  11.514
 5062W        W 9126   4.736   3.385  11.700
 5063W        W 9127   8.463   2.181   2.268
 5064W        W 9128   6.894   5.143  11.244
 5065W        W 9129   5.585   7.892  11.315
 5066W        W 9130   9.378   3.711   1.929
 5067W        W 9131   2.955   0.619   2.076
 5068W        W 9132   5.289   0.460  11.157
 5069W        W 9133   2.885   8.575   0.722
 5070W        W 9134   4.071   1.544  10.590
 5071W        W 9135   1.833   4.915  11.597
 5072W        W 9136   2.821   0.122   2.223
 5073W        W 9137   4.150   0.799   0.913
 5074W        W 9138   6.133   6.751   2.349
 5075W        W 9139   3.693   6.126   0.233
 5076W        W 9140   8.803   5.977  10.873
 5077W        W 9141   7.839   9.854   3.305
 5078W        W 9142   4.160   7.491   3.547
 5079W        W 9143   2.566   7.107   3.068
 5080W        W 9144   2.796   1.250   1.513
 5081W        W 9145   1.965   7.517   0.820
 5082W        W 9146   1.240   5.782   2.805
 5083W        W 9147   8.489   7.432  11.101
 5084W        W 9148   3.934   6.789   2.889
 5085W        W 9149   7.001   7.632   0.078
 5086W        W 9150   7.945   0.082   2.086
 5087W        W 9151   0.347   2.328   2.505
 5088W        W 9152   7.969   0.922   2.813
 5089W        W 9153   5.769   3.413   8.494
 5090W        W 9154   5.268   4.626   3.174
 5091W        W 9155   6.620   1.890   2.426
 5092W        W 9156   6.653   0.671  11.772
 5093W        W 9157   1.906   9.916  11.321
 5094W        W 9158   4.709   0.916   1.685
 5095W        W 9159   9.871   8.353   1.935
 5096W        W 9160   7.555   5.719   2.599
 5097W        W 9161   0.366  10.381   3.449
 5098W        W 9162   8.133   1.800   2.209
 5099W        W 9163   9.030   1.158   1.228
 5100W        W 9164   3.842   6.455   4.116
 5101W        W 9165   6.835   3.180   8.790
 5102W        W 9166   8.709   0.389   2.522
 5103W        W 9167   1.122   6.892   1.794
 5104W        W 9168   7.938   0.939  10.472
 5105W        W 9169   9.066   9.481  11.461
 5106W        W 9170   5.055   1.273   0.906
 5107W        W 9171   9.926   0.451  11.296
 5108W        W 9172   5.943   1.060  10.501
 5109W        W 9173   9.969   6.545   1.404
 5110W        W 9174   5.577  10.211   1.439
 5111W        W 9175   7.457   2.901   0.452
 5112W        W 9176   8.605   1.643   8.947
 5113W        W 9177   6.112   9.921   2.174
 5114W        W 9178   2.278   4.668   0.249
 5115W        W 9179   1.685   8.752   0.608
 5116W        W 9180   0.317   1.185   9.046
 5117W        W 9181  10.291   5.275  11.880
 5118W        W 9182   4.039   6.662  11.931
 5119W        W 9183   8.272   0.958   9.522
 5120W        W 9184   4.325   1.770  10.959
 5121W        W 9185   5.732   5.292   1.131
 5122W        W 9186   1.694   3.156  10.068
 5123W        W 9187  10.129   7.861   3.146
 5124W        W 9188   5.617   8.893  11.181
 5125W        W 9189   4.736   0.273  10.114
 5126W        W 9190   3.637   2.447   9.593
 5127W        W 9191   3.626   2.231  11.575
 5128W        W 9192   0.496   6.350  10.760
 5129W        W 9193   9.007   0.374   1.708
 5130W        W 9194   7.127   6.686   0.222
 5131W        W 9195   7.531   9.497   1.282
 5132W        W 9196   1.632   2.515   9.600
 5133W        W 9197   1.389   6.095   8.935
 5134W        W 9198   2.477   4.147   0.369
 5135W        W 9199   0.881   8.990   2.186
 5136W        W 9200   2.286   0.585   1.415
 5137W        W 9201   6.420   9.352  11.260
 5138W        W 9202   1.586   8.594   3.607
 5139W        W 9203  10.173   6.987   1.861
 5140W        W 9204  10.337   9.315   9.490
 5141W        W 9205   0.726   9.423  11.052
 5142W        W 9206   2.497   5.118   0.917
 5143W        W 9207   0.804   2.394  11.253
 5144W        W 9208   4.182   1.243   1.194
 5145W        W 9209   6.012   5.728   0.393
 5146W        W 9210   2.249   4.234  11.862
 5147W        W 9211   9.073   8.815   0.079
 5148W        W 9212   9.465  10.007   0.231
 5149W        W 9213   4.787   6.553  11.221
 5150W        W 9214   9.337   2.307   1.819
 5151W        W 9215   1.750   7.141   9.382
 5152W        W 9216   3.874   5.488  10.809
 5153W        W 9217   4.625   3.762   0.043
 5154W        W 9218   4.362   4.282  10.421
 5155W        W 9219   2.843   0.898   9.050
 5156W        W 9220   5.309   6.241  11.881
 5157W        W 9221   4.208   0.327   1.227
 5158W        W 9222   3.192   2.386   0.548
 5159W        W 9223   8.916   1.626  10.603
 5160W        W 9224  10.356   3.724  10.230
 5161W        W 9225   6.280   9.035  10.377
 5162W        W 9226   9.574   3.244   9.097
 5163W        W 9227   1.730   9.047  10.287
 5164W        W 9228   6.094   3.636  11.300
 5165W        W 9229   0.924   1.192   3.352
 5166W        W 9230   3.537  10.485   1.721
 5167W        W 9231   5.014   9.563   8.742
 5168W        W 9232   0.353   9.101  11.765
 5169W        W 9233   2.258   8.723   8.822
 5170W        W 9234   0.368   1.302   1.233
 5171W        W 9235   6.436   3.826   1.522
 5172W        W 9236   2.795   5.986   2.612
 5173W        W 9237   0.192   5.486   2.880
 5174W        W 9238   0.888   4.442   2.658
 5175W        W 9239   3.526   2.158  10.009
 5176W        W 9240   4.642   6.074   9.112
 5177W        W 9241   7.016   6.381   0.892
 5178W        W 9242   8.113   8.737   2.168
 5179W        W 9243   5.176   7.212  10.908
 5180W        W 9244   8.946   1.556  11.121
 5181W        W 9245   9.760   4.429   8.869
 5182W        W 9246   0.354   1.459   2.200
 5183W        W 9247   1.305   7.656   2.816
 5184W        W 9248   0.472   6.001   0.166
 5185W        W 9249   6.236   6.520  10.593
 5186W        W 9250   8.299   3.648   1.852
 5187W        W 9251   9.023   6.092   9.464
 5188W        W 9252   0.637   5.367  10.519
 5189W        W 9253   2.221   0.196   8.566
 5190W        W 9254   1.616   8.674   2.278
 5191W        W 9255   5.622   8.494   0.706
 5192W        W 9256   5.210   6.019   0.313
 5193W        W 9257   4.492   1.979   3.167
 5194W        W 9258   4.093   3.762   9.864
 5195W        W 9259   2.905   6.063  11.515
 5196W        W 9260   0.871   1.381  11.747
 5197W        W 9261   6.297   1.674   0.939
 5198W        W 9262   8.208   0.388   2.439
 5199W        W 9263   9.453   7.060   3.110
 5200W        W 9264   3.117   8.050  10.593
 5201W        W 9265  10.147   2.167   9.921
 5202W        W 9266   7.722   9.011   0.370
 5203W        W 9267   5.834   6.537   1.380
 5204W        W 9268   4.570  10.062   1.307
 5205W        W 9269   7.130   8.555  11.029
 5206W        W 9270   1.458   6.136  11.817
 5207W        W 9271   8.675   5.568  11.193
 5208W        W 9272   2.136   7.889   9.175
 5209W        W 9273   4.220   4.073   3.629
 5210W        W 9274   1.729  10.011   3.165
 5211W        W 9275   7.394   4.058   8.705
 5212W        W 9276   8.059   9.503   9.224
 5213W        W 9277   1.929   5.031   0.112
 5214W        W 9278   4.279   8.355   2.236
 5215W        W 9279   0.424   4.151   2.520
 5216W        W 9280   5.387   6.365   1.696
 5217W        W 9281   7.340   9.023   1.325
 5218W        W 9282   7.711   3.756   1.019
 5219W        W 9283   1.337   4.740   2.725
 5220W        W 9284   4.229   6.208   9.408
 5221W        W 9285   6.083   3.060   1.202
 5222W        W 9286   6.167   9.986  10.583
 5223W        W 9287   7.637   1.855   9.258
 5224W        W 9288   8.071   7.579  11.860
 5225W        W 9289  10.254   1.874   9.515
 5226W        W 9290   5.069   5.054   2.372
 5227W        W 9291   5.810   8.175  10.489
 5228W        W 9292   9.205   5.548   8.793
 5229W        W 9293   1.740  10.306   1.299
 5230W        W 9294   2.655   2.221   9.327
 5231W        W 9295   7.731   6.035   0.489
 5232W        W 9296   4.353   8.579   1.296
 5233W        W 9297   6.858   3.959   1.245
 5234W        W 9298   9.469   5.592   3.130
 5235W        W 9299   5.073   8.592   0.137
 5236W        W 9300   4.828   2.288  10.257
 5237W        W 9301   9.401   1.954   2.946
 5238W        W 9302   2.456   2.810   2.180
 5239W        W 9303   8.741   1.174   2.518
 5240W        W 9304   1.532   9.525   3.042
 5241W        W 9305   7.214   0.568  10.854
 5242W        W 9306   0.825   4.202   2.205
 5243W        W 9307  10.222   4.492   2.141
 5244W        W 9308   5.430   6.091   3.366
 5245W        W 9309   8.645   0.495   0.645
 5246W        W 9310   4.502   4.044   9.325
 5247W        W 9311   6.597   7.434   0.356
 5248W        W 9312   1.481  10.201   0.069
 5249W        W 9313   0.854   2.081   8.533
 5250W        W 9314   2.949   8.107   1.841
 5251W        W 9315   8.469   6.471  10.319
 5252W        W 9316   2.123   4.230   1.863
 5253W        W 9317   4.991   9.969   8.441
 5254W        W 9318   2.047   1.828   1.110
 5255W        W 9319   0.374   3.435   9.475
 5256W        W 9320   9.471   3.302   0.895
 5257W        W 9321   4.963   7.797   1.118
 5258W        W 9322   6.448   3.767   3.490
 5259W        W 9323   9.924   3.056   9.842
 5260W        W 9324   0.474   5.050   1.682
 5261W        W 9325   2.206   2.166   8.503
 5262W        W 9326   9.114   8.690   2.334
 5263W        W 9327   9.449   0.003   9.452
 5264W        W 9328   6.428   8.202  11.863
 5265W        W 9329  10.422   9.749   9.839
 5266W        W 9330   9.662   2.170   9.740
 5267W        W 9331   8.891   0.670   1.284
 5268W        W 9332   9.404   7.438   9.638
 5269W        W 9333   4.863   1.352   0.448
 5270W        W 9334   2.033   6.137   2.765
 5271W        W 9335   6.133   2.185   2.605
 5272W        W 9336   9.753   9.490   0.422
 5273W        W 9337   9.849   1.176   3.046
 5274W        W 9338   3.397   2.803   1.390
 5275W        W 9339   1.777   5.161   2.173
 5276W        W 9340   4.544   3.676   3.472
 5277W        W 9341   4.614   0.945   0.673
 5278W        W 9342   7.666   8.692   3.317
 5279W        W 9343   1.672   5.738  11.529
 5280W        W 9344   4.835   4.381   9.588
 5281W        W 9345   5.546   7.423   0.759
 5282W        W 9346   7.819   8.033  10.940
 5283W        W 9347   3.213   5.525   8.938
 5284W        W 9348   3.922   6.149  11.358
 5285W        W 9349   9.274  10.437   1.782
 5286W        W 9350   7.006   0.851   2.439
 5287W        W 9351   5.215   6.984   2.675
 5288W        W 9352   0.530   6.847   1.437
 5289W        W 9353   2.963   3.267   3.469
 5290W        W 9354   0.878   2.396   2.683
 5291W        W 9355  10.007   4.112  11.357
 5292W        W 9356   0.162   6.038   8.419
 5293W        W 9357   5.105   7.099   3.505
 5294W        W 9358   9.699   2.891   2.978
 5295W        W 9359   7.407  10.007  11.480
 5296W        W 9360  10.430   3.094   0.752
 5297W        W 9361   9.394   9.492   1.032
 5298W        W 9362   4.631   8.116   0.904
 5299W        W 9363   8.858   9.947   0.504
 5300W        W 9364   4.290   0.412   9.911
 5301W        W 9365   8.441   5.424   9.458
 5302W        W 9366  10.420   2.142   9.092
 5303W        W 9367   2.574   9.661   2.268
 5304W        W 9368   5.271   7.393   1.187
 5305W        W 9369   1.744   6.169   0.765
 5306W        W 9370   9.505   0.500  10.995
 5307W        W 9371  10.038   8.850   1.903
 5308W        W 9372   9.710   0.804   9.453
 5309W        W 9373   9.331   5.952   2.762
 5310W        W 9374   5.209   8.353   1.952
 5311W        W 9375   2.164   0.436   9.372
 5312W        W 9376   4.014  10.236   1.378
 5313W        W 9377   0.320   0.294  10.258
 5314W        W 9378   4.059   4.984   1.298
 5315W        W 9379   3.183   0.868   0.441
 5316W        W 9380  10.055   2.459   8.861
 5317W        W 9381  10.271   5.238   3.356
 5318W        W 9382   9.069   3.228   0.398
 5319W        W 9383   6.982  10.448  10.954
 5320W        W 9384   4.059   4.451   1.349
 5321W        W 9385   6.076   8.990  11.359
 5322W        W 9386   1.975   4.234  10.400
 5323W        W 9387   7.575   1.460  11.641
 5324W        W 9388   2.907   9.835   0.460
 5325W        W 9389   7.654   5.236   2.704
 5326W        W 9390   0.953   8.500   8.816
 5327W        W 9391  10.306   4.527  11.359
 5328W        W 9392   0.760   4.503   1.347
 5329W        W 9393   3.038   0.970   9.687
 5330W        W 9394   1.203   8.905   9.004
 5331W        W 9395   7.498   3.816   2.424
 5332W        W 9396   5.235   5.844  11.365
 5333W        W 9397   4.344   7.100   2.847
 5334W        W 9398   7.526   3.693   3.494
 5335W        W 9399   0.152   3.203   3.224
 5336W        W 9400   7.451   7.014   1.933
 5337W        W 9401   2.694   6.594   3.268
 5338W        W 9402   5.158   2.613   2.878
 5339W        W 9403   2.369   6.873   0.616
 5340W        W 9404   8.962   6.920   3.214
 5341W        W 9405   8.344   0.889   0.503
 5342W        W 9406   5.358   6.519   1.200
 5343W        W 9407   2.256   7.541   2.235
 5344W        W 9408   4.999   9.504  11.242
 5345W        W 9409   9.808   0.735   3.321
 5346W        W 9410   9.363   2.866   1.175
 5347W        W 9411   0.799   7.435  10.001
 5348W        W 9412   5.175   4.724   8.724
 5349W        W 9413   6.425   1.398   8.989
 5350W        W 9414   1.502   2.772   1.260
 5351W        W 9415   9.426   8.517  10.429
 5352W        W 9416   0.634   6.469   0.015
 5353W        W 9417   1.333   8.423   9.193
 5354W        W 9418   7.566   7.067   1.175
 5355W        W 9419   4.212   6.793   4.281
 5356W        W 9420   0.494   0.343   1.448
 5357W        W 9421   8.187   8.013  10.576
 5358W        W 9422   4.137   6.150  11.899
 5359W        W 9423   7.936   5.871   9.067
 5360W        W 9424   9.955   7.853   1.791
 5361W        W 9425   5.609   8.955  10.669
 5362W        W 9426   7.836   1.366   1.994
 5363W        W 9427   0.086   0.237   2.950
 5364W        W 9428   1.276   3.672   1.539
 5365W        W 9429   8.399   6.999   0.722
 5366W        W 9430   1.286   7.077   9.538
 5367W        W 9431   4.127   5.346   8.901
 5368W        W 9432   6.157   3.545   2.260
 5369W        W 9433   9.853   2.726   1.978
 5370W        W 9434   6.542   6.178   0.847
 5371W        W 9435   9.404   4.725   9.291
 5372W        W 9436   1.559   1.305   0.561
 5373W        W 9437   9.474   5.630  11.280
 5374W        W 9438   0.780   2.999  10.541
 5375W        W 9439   2.440   5.606   3.216
 5376W        W 9440   0.658   9.400   2.412
 5377W        W 9441   2.419   0.369   9.809
 5378W        W 9442   9.939   1.831   1.300
 5379W        W 9443   2.249   7.285  11.897
 5380W        W 9444   6.951   3.792  11.830
 5381W        W 9445   4.608   8.326   3.200
 5382W        W 9446   5.607   9.848  10.873
 5383W        W 9447   8.335   6.587   9.005
 5384W        W 9448   8.833   9.896  10.231
 5385W        W 9449   4.540   9.067   1.152
 5386W        W 9450   3.196   9.183   1.013
 5387W        W 9451   3.710   8.084   8.989
 5388W        W 9452   5.933   3.562   3.543
 5389W        W 9453   8.352   0.052   0.853
 5390W        W 9454   2.004   9.380   0.370
 5391W        W 9455   4.732   1.499  11.009
 5392W        W 9456   2.342   9.177   2.238
 5393W        W 9457   6.594   4.824  10.912
 5394W        W 9458   0.226   7.408  11.062
 5395W        W 9459   9.248   1.882   0.518
 5396W        W 9460   4.187   0.467   1.767
 5397W        W 9461   2.322   4.392   8.567
 5398W        W 9462   4.139   3.518   2.288
 5399W        W 9463   7.398   6.476   8.477
 5400W        W 9464   2.922   0.372   9.837
 5401W        W 9465   4.771   7.086   8.929
 5402W        W 9466   0.806   3.126   9.490
 5403W        W 9467   0.052   1.171   0.340
 5404W        W 9468   7.475   5.682   9.145
 5405W        W 9469   1.283   1.902   0.885
 5406W        W 9470   5.149   8.959  10.485
 5407W        W 9471  10.408   0.061  10.922
 5408W        W 9472   3.149   7.709   2.223
 5409W        W 9473   2.862   6.168   9.319
 5410W        W 9474   7.075   6.955  10.863
 5411W        W 9475   0.349   5.021  10.768
 5412W        W 9476   3.761   1.280   0.886
 5413W        W 9477   9.092   0.259   0.806
 5414W        W 9478   7.927   3.364  10.183
 5415W        W 9479   8.053   2.780   8.990
 5416W        W 9480   9.851   9.763  10.595
 5417W        W 9481   4.290   8.839   8.670
 5418W        W 9482   6.307  10.323   9.845
 5419W        W 9483  10.335   4.754   9.325
 5420W        W 9484   3.195   6.252   0.291
 5421W        W 9485   5.033   3.841   1.909
 5422W        W 9486  10.212   5.746  11.731
 5423W        W 9487   3.292   5.256   2.255
 5424W        W 9488   1.242   6.576   9.686
 5425W        W 9489   1.687   7.835  10.900
 5426W        W 9490   7.270   7.201   9.989
 5427W        W 9491   5.749   1.785  10.755
 5428W        W 9492   3.047   3.264   9.976
 5429W        W 9493   7.312   6.095   9.942
 5430W        W 9494   6.407   1.183   0.847
 5431W        W 9495   7.534   0.236  11.854
 5432W        W 9496   1.972   9.342   2.813
 5433W        W 9497   8.525   7.098   3.415
 5434W        W 9498   0.354   6.873   2.899
 5435W        W 9499   6.185   0.152   9.428
 5436W        W 9500   1.918   7.580   9.535
 5437W        W 9501   7.150   4.542  10.513
 5438W        W 9502   5.261   2.633   2.376
 5439W        W 9503   5.692   3.892   9.140
 5440W        W 9504   4.237   9.968   8.875
 5441W        W 9505   3.399   7.430   1.850
 5442W        W 9506   5.657   0.278  11.450
 5443W        W 9507   1.265   7.059  10.063
 5444W        W 9508   7.464   8.272  11.906
 5445W        W 9509   2.879   1.004   2.513
 5446W        W 9510   0.087   7.546   0.189
 5447W        W 9511   5.030   7.583   3.451
 5448W        W 9512   1.247   3.745   9.593
 5449W        W 9513   4.684   4.731   2.453
 5450W        W 9514   4.222   9.371   0.877
 5451W        W 9515   3.202   1.433   9.585
 5452W        W 9516   3.221   7.062   3.638
 5453W        W 9517   1.166   5.392   1.889
 5454W        W 9518  10.032   7.022   9.574
 5455W        W 9519   9.687   7.697   8.234
 5456W        W 9520   7.573   8.194   9.908
 5457W        W 9521  10.106   6.388   3.266
 5458W        W 9522   6.530   0.247  11.435
 5459W        W 9523   1.961   4.762   8.956
 5460W        W 9524   5.621   0.913   1.666
 5461W        W 9525   2.429  10.482  10.562
 5462W        W 9526   0.153   9.800   2.356
 5463W        W 9527   2.625   4.357   2.701
 5464W        W 9528   6.114   8.810  11.845
 5465W        W 9529   4.701   6.032   1.525
 5466W        W 9530   7.509   4.261   2.829
 5467W        W 9531   5.273   3.599   0.955
 5468W        W 9532   4.591   5.937   3.798
 5469W        W 9533  10.037   9.596   3.660
 5470W        W 9534   3.430   1.825   1.371
 5471W        W 9535   4.424   5.679   1.272
 5472W        W 9536   7.694   9.990   9.595
 5473W        W 9537   6.032   9.485  10.477
 5474W        W 9538   8.338   7.035   8.672
 5475W        W 9539   8.535   8.110   2.719
 5476W        W 9540   2.863   7.577   1.813
 5477W        W 9541   1.837   1.375   3.644
 5478W        W 9542   3.614   9.190   0.280
 5479W        W 9543   1.427   7.103   1.012
 5480W        W 9544   1.700   0.209   9.373
 5481W        W 9545   6.739   6.563  10.754
 5482W        W 9546   5.562   9.806   9.389
 5483W        W 9547   0.341   0.960   9.510
 5484W        W 9548  10.455   6.166   0.994
 5485W        W 9549   5.065   6.136  10.584
 5486W        W 9550   0.107   9.186  11.337
 5487W        W 9551   7.080   7.143   1.376
 5488W        W 9552   4.948   0.015   8.762
 5489W        W 9553   3.739   6.186   9.192
 5490W        W 9554   3.338   0.468   1.172
 5491W        W 9555   4.813   2.896  10.994
 5492W        W 9556   2.743   3.231  11.261
 5493W        W 9557   6.445   9.967   2.986
 5494W        W 9558   4.247   9.564  11.386
 5495W        W 9559   0.706   9.122   0.639
 5496W        W 9560   9.039   2.181   8.483
 5497W        W 9561   9.955   6.628   9.907
 5498W        W 9562   5.162  10.015  11.107
 5499W        W 9563   7.016   2.679   2.767
 5500W        W 9564   3.803   2.949   9.681
 5501W        W 9565   3.214   2.370  11.279
 5502W        W 9566   6.602   3.807   8.867
 5503W        W 9567   1.029   7.896  11.896
 5504W        W 9568  10.338   3.152  10.128
 5505W        W 9569   3.008   2.838   2.307
 5506W        W 9570   0.450   5.599   2.398
 5507W        W 9571   7.747   1.553   1.070
 5508W        W 9572   1.129   9.734   9.744
 5509W        W 9573   2.169   6.119   9.934
 5510W        W 9574   9.242   6.538   8.732
 5511W        W 9575   0.194   6.087   3.392
 5512W        W 9576   8.075   6.456   0.460
 5513W        W 9577   7.560   1.932   1.359
 5514W        W 9578   9.810   3.361   3.063
 5515W        W 9579   5.439   2.956   8.870
 5516W        W 9580   6.002   6.605   1.859
 5517W        W 9581   6.210   0.829   3.062
 5518W        W 9582   7.594   1.604   9.725
 5519W        W 9583   0.440   6.468  11.252
 5520W        W 9584   6.294   6.154   0.346
 5521W        W 9585   3.822   3.103   2.356
 5522W        W 9586   2.839   0.455   1.305
 5523W        W 9587   3.732   9.523  11.304
 5524W        W 9588   0.657   3.686   3.706
 5525W        W 9589   7.981   6.690   1.825
 5526W        W 9590   9.233   2.862   9.123
 5527W        W 9591   1.283   0.988   9.535
 5528W        W 9592   1.374   1.485   9.535
 5529W        W 9593   1.845   3.797  11.265
 5530W        W 9594   9.068   5.282  11.422
 5531W        W 9595   4.236   8.038   0.158
 5532W        W 9596   5.075   4.140   2.803
 5533W        W 9597   3.737   3.301   9.295
 5534W        W 9598   6.078   3.253   0.187
 5535W        W 9599   3.525   7.995   2.408
 5536W        W 9600   3.332   0.687  10.627
 5537W        W 9601   0.132   7.074   0.895
 5538W        W 9602   4.490   7.612   0.055
 5539W        W 9603   1.880   0.807  10.431
 5540W        W 9604   7.435   5.490   4.107
 5541W        W 9605   1.787   6.656   0.596
 5542W        W 9606   3.943   5.527   1.144
 5543W        W 9607   8.629   8.815   2.244
 5544W        W 9608   5.056   4.893  11.484
 5545W        W 9609   9.076   5.755  11.584
 5546W        W 9610   5.289   6.412   9.942
 5547W        W 9611   5.719   6.402   0.880
 5548W        W 9612   2.424  10.328   3.484
 5549W        W 9613   2.482   0.884  10.929
 5550W        W 9614   1.039   5.677  10.454
 5551W        W 9615   7.117   2.272   1.993
 5552W        W 9616   3.990   0.313  10.932
 5553W        W 9617   7.455   6.271   2.443
 5554W        W 9618   2.247   1.913   9.248
 5555W        W 9619   5.907   7.669   3.508
 5556W        W 9620   4.400  10.346   0.507
 5557W        W 9621   4.121   6.592   8.619
 5558W        W 9622   5.741   2.524  11.834
 5559W        W 9623   6.970   7.155   9.522
 5560W        W 9624   7.430   2.248  10.718
 5561W        W 9625   6.445   5.683   0.132
 5562W        W 9626   3.380   9.556   8.543
 5563W        W 9627   2.175   5.920   0.883
 5564W        W 9628   6.001   2.810   0.435
 5565W        W 9629   6.500   2.465   8.567
 5566W        W 9630   0.824   2.820   2.384
 5567W        W 9631   2.087   8.460   0.703
 5568W        W 9632   4.210   6.104   0.431
 5569W        W 9633   5.725   1.279  10.928
 5570W        W 9634   6.403   9.120   0.917
 5571W        W 9635   0.081   6.494   3.129
 5572W        W 9636   5.154   1.864   8.810
 5573W        W 9637   5.898   0.961   0.440
 5574W        W 9638   1.997   9.919   3.575
 5575W        W 9639   4.664   9.439  10.582
 5576W        W 9640   7.050   8.591   1.273
 5577W        W 9641   1.683   8.511   9.530
 5578W        W 9642   8.117   7.879   2.922
 5579W        W 9643   6.109   0.493  11.125
 5580W        W 9644   1.179   0.429   0.172
 5581W        W 9645   1.513   4.256   0.250
 5582W        W 9646   9.288   4.647   3.556
 5583W        W 9647   3.145   3.612   9.574
 5584W        W 9648   8.905   8.821  11.553
 5585W        W 9649   9.784   7.449   0.747
 5586W        W 9650   3.290   1.566  10.871
 5587W        W 9651   7.383   1.632   0.477
 5588W        W 9652   5.923   8.047   2.337
 5589W        W 9653   6.991   2.742   9.738
 5590W        W 9654   2.677   2.835   0.956
 5591W        W 9655   3.032   9.779   3.163
 5592W        W 9656   9.492   7.164   2.522
 5593W        W 9657   8.118   6.363   3.589
 5594W        W 9658   4.716   0.338  11.957
 5595W        W 9659   0.284   5.421   1.370
 5596W        W 9660   5.958   7.962   1.390
 5597W        W 9661   6.540   3.633  11.034
 5598W        W 9662   7.132   1.373   3.221
 5599W        W 9663   9.904   7.092   2.839
 5600W        W 9664   9.815   0.979  11.234
 5601W        W 9665   5.236   3.154   9.381
 5602W        W 9666   9.356   6.076   8.971
 5603W        W 9667   1.328   9.949   1.901
 5604W        W 9668   6.965   8.106  11.836
 5605W        W 9669   3.145   6.666   0.541
 5606W        W 9670   7.270  10.419  10.041
 5607W        W 9671   7.522   2.379   1.137
 5608W        W 9672   6.617   2.089  10.020
 5609W        W 9673   9.481   1.051   0.920
 5610W        W 9674   2.234   9.129  10.106
 5611W        W 9675   8.093   1.410  11.859
 5612W        W 9676   5.656   3.390   2.375
 5613W        W 9677   3.802   5.954   9.631
 5614W        W 9678  10.447   1.956   0.048
 5615W        W 9679   4.140   1.338   2.278
 5616W        W 9680   4.679   9.285   1.984
 5617W        W 9681   7.846   5.605   0.212
 5618W        W 9682   5.557   8.934   2.509
 5619W        W 9683   0.794   5.176  10.986
 5620W        W 9684   8.991   4.587   0.750
 5621W        W 9685   5.213   9.953   9.042
 5622W        W 9686   0.219   6.948   0.391
 5623W        W 9687   8.018   4.522   9.062
 5624W        W 9688   0.253   2.806   2.384
 5625W        W 9689   7.459   3.144  10.228
 5626W        W 9690   1.441   9.289   3.834
 5627W        W 9691   2.266  10.047  10.922
 5628W        W 9692   8.890   8.812   1.354
 5629W        W 9693   6.595   7.858   2.840
 5630W        W 9694   0.927   8.626   0.133
 5631W        W 9695   4.185   6.107   1.473
 5632W        W 9696   6.565   8.653   0.011
 5633W        W 9697   2.431   1.718   0.188
 5634W        W 9698   0.163   9.891   8.861
 5635W        W 9699   7.561   8.037   2.196
 5636W        W 9700   2.286   5.102   1.987
 5637W        W 9701   2.734   3.573  10.279
 5638W        W 9702   5.279   2.644   1.184
 5639W        W 9703   5.940   8.994   1.183
 5640W        W 9704   7.864   3.204   3.510
 5641W        W 9705   4.692   7.934  11.702
 5642W        W 9706   1.957   8.894   0.209
 5643W        W 9707  10.477   0.249   9.369
 5644W        W 9708   4.983   4.460  10.100
 5645W        W 9709   0.465  10.389   2.915
 5646W        W 9710   4.544   2.845   3.417
 5647W        W 9711   7.268   3.194   1.545
 5648W        W 9712   8.449   8.077   9.791
 5649W        W 9713   1.567   8.554  11.301
 5650W        W 9714   0.868   7.968   1.233
 5651W        W 9715   8.156   3.656   1.224
 5652W        W 9716   1.890   7.852   1.975
 5653W        W 9717   2.871   9.411   1.378
 5654W        W 9718   8.495   2.429   1.269
 5655W        W 9719   1.829   1.175   9.746
 5656W        W 9720   3.338   5.041   1.772
 5657W        W 9721   7.053   5.974   9.083
 5658W        W 9722   0.118   5.400  10.523
 5659W        W 9723   6.075  10.279   1.704
 5660W        W 9724   4.084   2.910  11.385
 5661W        W 9725   6.456   9.270   9.356
 5662W        W 9726   6.932   8.930  11.289
 5663W        W 9727   3.483   2.209   1.024
 5664W        W 9728   3.338   6.738  11.749
 5665W        W 9729   0.600   4.983  11.420
 5666W        W 9730  10.367   5.430  11.364
 5667W        W 9731   5.543   4.121   1.849
 5668W        W 9732   0.923   2.345   3.212
 5669W        W 9733   5.239   7.020   9.128
 5670W        W 9734   3.259   5.142   9.285
 5671W        W 9735   0.483   8.329   8.884
 5672W        W 9736   1.001   7.372   0.771
 5673W        W 9737   0.991   2.125   0.223
 5674W        W 9738   7.866   6.648   0.010
 5675W        W 9739   9.347   0.567   3.118
 5676W        W 9740   4.547   4.505   3.915
 5677W        W 9741   6.419   0.157  11.960
 5678W        W 9742  10.491   3.927   0.155
 5679W        W 9743   6.086   9.323   9.991
 5680W        W 9744   4.552   5.303   9.675
 5681W        W 9745   8.559   5.897   9.562
 5682W        W 9746   9.894   8.285  11.973
 5683W        W 9747   5.624   1.815   8.999
 5684W        W 9748   1.244   0.317  11.033
 5685W        W 9749   3.247   8.334   8.843
 5686W        W 9750   9.468   7.830  10.984
 5687W        W 9751   9.923   9.799   1.684
 5688W        W 9752   5.702   3.478  10.348
 5689W        W 9753   7.331   3.141   8.862
 5690W        W 9754   1.834   7.889   0.462
 5691W        W 9755   1.372   3.836   1.054
 5692W        W 9756   5.135   8.646   0.645
 5693W        W 9757   0.749   0.887  11.544
 5694W        W 9758   1.404   0.234   9.883
 5695W        W 9759   8.142   6.022   1.341
 5696W        W 9760   9.510   5.726   1.227
 5697W        W 9761   0.878   5.424  10.026
 5698W        W 9762   3.678   5.897   3.643
 5699W        W 9763   3.481  10.309   9.402
 5700W        W 9764   7.677   1.858   8.684
 5701W        W 9765   1.309   4.959  10.967
 5702W        W 9766   7.743   6.338   9.751
 5703W        W 9767   5.091   3.658   1.420
 5704W        W 9768   1.229  10.274   1.371
 5705W        W 9769   6.627   3.287   3.301
 5706W        W 9770   0.833   3.992   9.448
 5707W        W 9771   1.274   7.826  10.598
 5708W        W 9772   3.380   7.549   2.696
 5709W        W 9773   2.821   4.079  10.202
 5710W        W 9774   1.672   2.796  11.515
 5711W        W 9775   0.851   6.460  11.566
 5712W        W 9776   5.431   8.441   3.150
 5713W        W 9777   2.187   3.317   1.846
 5714W        W 9778   5.993   5.447  11.983
 5715W        W 9779   7.621   0.106   0.768
 5716W        W 9780   2.119   9.305   9.622
 5717W        W 9781   7.658   1.223   0.672
 5718W        W 9782   3.708   3.613   1.661
 5719W        W 9783   7.134  10.445   3.142
 5720W        W 9784   5.684   0.788  11.136
 5721W        W 9785   7.996   2.620   0.244
 5722W        W 9786   3.334   0.714  11.462
 5723W        W 9787   8.745   2.357   9.976
 5724W        W 9788   2.765   1.450   9.887
 5725W        W 9789   6.943   4.955  10.269
 5726W        W 9790   4.403   5.181   3.641
 5727W        W 9791   1.223   9.319   1.245
 5728W        W 9792   2.406   5.671   9.961
 5729W        W 9793   3.220   3.329   9.125
 5730W        W 9794   9.114   3.281   1.874
 5731W        W 9795   5.496   3.722   0.518
 5732W        W 9796   0.196   9.571  11.949
 5733W        W 9797   5.101   3.158   1.178
 5734W        W 9798   5.666   6.492   3.139
 5735W        W 9799  10.303   7.186  10.853
 5736W        W 9800   9.879   9.044   1.461
 5737W        W 9801   6.887   9.925   2.625
 5738W        W 9802   4.611   2.386   0.699
 5739W        W 9803   1.346   0.881   0.356
 5740W        W 9804   6.148   0.065  10.764
 5741W        W 9805   3.756   5.033   2.133
 5742W        W 9806   1.300   1.038   3.052
 5743W        W 9807   3.887   0.891  11.185
 5744W        W 9808   7.450   9.574   9.768
 5745W        W 9809   7.042   8.138  11.311
 5746W        W 9810  10.106  10.461   2.892
 5747W        W 9811   1.844   1.672   9.594
 5748W        W 9812   4.762  10.459   9.657
 5749W        W 9813   6.314   9.951   8.726
 5750W        W 9814   2.895   7.570   9.358
 5751W        W 9815   2.407   6.117  11.462
 5752W        W 9816   7.592   5.382   2.170
 5753W        W 9817   4.552   3.158   1.802
 5754W        W 9818   8.971   0.369   9.148
 5755W        W 9819   8.327   2.228  10.258
 5756W        W 9820   9.153  10.311   1.271
 5757W        W 9821   6.981   6.091  10.822
 5758W        W 9822   4.439   7.740   1.239
 5759W        W 9823   9.481   2.170   3.384
 5760W        W 9824   4.159   7.015   3.324
 5761W        W 9825   4.550   8.813   2.146
 5762W        W 9826   2.157   2.373   9.543
 5763W        W 9827   4.663   8.381  11.443
 5764W        W 9828   4.518   5.488   9.210
 5765W        W 9829   5.176   0.953  10.933
 5766W        W 9830   9.524   4.903   2.888
 5767W        W 9831  10.379   2.912   3.582
 5768W        W 9832   4.635   0.446   1.532
 5769W        W 9833   3.519   5.543   8.196
 5770W        W 9834   8.612   0.973   0.919
 5771W        W 9835   1.471   9.286   8.775
 5772W        W 9836   2.227   6.415   0.794
 5773W        W 9837   2.908   4.793   0.865
 5774W        W 9838   8.093   8.543   1.101
 5775W        W 9839   8.837   7.403  10.244
 5776W        W 9840   0.968  10.202  10.558
 5777W        W 9841   7.334   4.106   1.034
 5778W        W 9842   1.144   6.529   0.013
 5779W        W 9843   2.482   9.601  10.765
 5780W        W 9844   7.102   9.951  10.236
 5781W        W 9845   3.080   7.992   9.577
 5782W        W 9846   0.431   5.223   9.399
 5783W        W 9847   9.118   7.990   3.326
 5784W        W 9848   0.300   8.604  11.911
 5785W        W 9849   7.527   5.528   3.603
 5786W        W 9850   0.524   8.557  10.601
 5787W        W 9851   8.378   9.475   1.916
 5788W        W 9852   8.925   6.627  11.511
 5789W        W 9853   0.864   2.138   9.043
 5790W        W 9854   7.503   6.480   1.953
 5791W        W 9855   4.537   4.124   1.297
 5792W        W 9856   0.472   4.564  10.538
 5793W        W 9857   3.698   0.781   2.762
 5794W        W 9858   5.506   3.328  10.837
 5795W        W 9859   2.502   1.727  11.333
 5796W        W 9860   2.385   0.304   1.884
 5797W        W 9861   3.166   5.282   3.233
 5798W        W 9862   4.251  10.203  11.708
 5799W        W 9863   0.473   4.652   3.428
 5800W        W 9864   9.155   6.639  10.594
 5801W        W 9865  10.278   7.227   0.462
 5802W        W 9866   0.718   6.084   9.852
 5803W        W 9867   0.181   8.126   0.077
 5804W        W 9868   2.125   2.093   0.025
 5805W        W 9869   3.666   5.025   4.228
 5806W        W 9870   4.641   5.746   2.434
 5807W        W 9871   7.531   2.644   0.002
 5808W        W 9872   8.976   9.459  10.471
 5809W        W 9873  10.005  10.250  11.071
 5810W        W 9874   3.353   8.384   0.604
 5811W        W 9875   0.947  10.409   0.964
 5812W        W 9876   8.448   1.751  10.414
 5813W        W 9877   3.156   4.798   0.375
 5814W        W 9878   5.659   2.314   2.872
 5815W        W 9879   0.499   1.123  10.508
 5816W        W 9880   3.694   8.183   3.347
 5817W        W 9881   9.359   9.441   0.070
 5818W        W 9882   1.745   3.747  10.273
 5819W        W 9883   6.221   7.685  11.129
 5820W        W 9884   2.622  10.386   1.318
 5821W        W 9885   9.099   9.904   0.951
 5822W        W 9886   0.661   8.229  11.960
 5823W        W 9887   9.987   4.617  11.787
 5824W        W 9888   1.461   3.437   2.542
 5825W        W 9889   3.799   9.305   2.663
 5826W        W 9890   3.049   9.605   9.891
 5827W        W 9891   0.356   3.926   9.608
 5828W        W 9892   1.338   3.731   9.097
 5829W        W 9893   0.865   8.589   1.395
 5830W        W 9894   4.068   7.503   9.012
 5831W        W 9895   3.334   0.465   0.157
 5832W        W 9896   9.457   9.977   1.775
 5833W        W 9897   2.317   5.972   0.366
 5834W        W 9898   3.823   0.416  11.951
 5835W        W 9899   1.085   9.923   3.519
 5836W        W 9900   9.506   3.449  11.012
 5837W        W 9901   2.125   4.397   2.798
 5838W        W 9902   4.909   7.159   8.447
 5839W        W 9903   4.237   1.800   9.820
 5840W        W 9904   0.480  10.282   0.790
 5841W        W 9905   2.676   5.951  10.788
 5842W        W 9906   0.789   0.313   9.987
 5843W        W 9907   6.571   1.642  11.845
 5844W        W 9908   4.538   5.076   3.061
 5845W        W 9909   3.916   5.042   3.765
 5846W        W 9910   1.945   4.702   1.972
 5847W        W 9911   1.868   7.031   8.895
 5848W        W 9912   8.309   2.307   9.724
 5849W        W 9913   4.648   5.012  11.757
 5850W        W 9914   5.133   4.966  10.101
 5851W        W 9915   0.225   6.929   1.824
 5852W        W 9916  10.305   0.066   2.105
 5853W        W 9917   6.797   6.997   9.977
 5854W        W 9918   1.051   3.970  10.421
 5855W        W 9919   6.935   4.562   1.993
 5856W        W 9920   5.965   6.444   2.721
 5857W        W 9921   1.958   9.765   9.453
 5858W        W 9922   3.049  10.004  11.964
 5859W        W 9923   2.575   6.600  11.566
 5860W        W 9924   4.717   0.732  11.625
 5861W        W 9925   7.145   1.715   9.974
 5862W        W 9926   2.605  10.284   1.829
 5863W        W 9927  10.019   9.584   2.911
 5864W        W 9928   2.161   2.311   2.331
 5865W        W 9929   1.306   3.107  11.354
 5866W        W 9930   3.757   9.344   9.480
 5867W        W 9931   0.519  10.481  11.872
 5868W        W 9932   0.971   3.359  11.633
 5869W        W 9933  10.301   7.921   9.750
 5870W        W 9934   6.131   6.618   9.500
 5871W        W 9935   0.502   5.738  10.181
 5872W        W 9936   6.722   5.035   4.077
 5873W        W 9937   7.846   3.102   0.195
 5874W        W 9938   3.766   7.134   0.349
 5875W        W 9939   6.469   4.096  10.209
 5876W        W 9940   7.652   8.212   3.520
 5877W        W 9941   6.619   2.592  10.045
 5878W        W 9942   5.999   5.708   1.229
 5879W        W 9943   4.134   4.266   1.821
 5880W        W 9944  10.463  10.411  10.384
 5881W        W 9945   5.546   9.584  11.946
 5882W        W 9946   5.506   0.283   3.209
 5883W        W 9947   6.432   4.036  11.364
 5884W        W 9948   9.476   1.365   2.188
 5885W        W 9949   8.325   5.756  10.880
 5886W        W 9950   5.710   2.154   3.361
 5887W        W 9951   3.079   9.363   1.848
 5888W        W 9952   5.017   5.039   2.876
 5889W        W 9953   2.511   2.770   9.433
 5890W        W 9954   0.358   3.045   9.820
 5891W        W 9955   4.105   3.883  11.293
 5892W        W 9956   1.269   8.986   2.514
 5893W        W 9957   2.006   0.462   3.578
 5894W        W 9958   7.868   8.339   3.006
 5895W        W 9959   6.509   7.288   1.766
 5896W        W 9960   7.259   0.841   9.987
 5897W        W 9961   1.178   8.179   3.529
 5898W        W 9962   6.534   5.686   3.868
 5899W        W 9963   2.322   5.188  10.200
 5900W        W 9964   4.983   3.406   8.072
 5901W        W 9965   1.139   4.313   1.007
 5902W        W 9966   1.598   4.951   9.915
 5903W        W 9967   8.666   1.585   3.530
 5904W        W 9968   3.536   3.088   1.918
 5905W        W 9969   2.209   5.256   3.515
 5906W        W 9970   5.528   2.647   3.315
 5907W        W 9971   7.243   6.221   0.466
 5908W        W 9972   5.225   1.345  11.677
 5909W        W 9973   9.136   7.048   0.670
 5910W        W 9974   2.291   2.827   9.916
 5911W        W 9975  10.031   4.027  10.518
 5912W        W 9976  10.073   1.333  10.217
 5913W        W 9977   7.640   9.474   2.701
 5914W        W 9978   0.841   1.619  10.294
 5915W        W 9979   3.766   8.455  11.031
 5916W        W 9980   3.089   0.021   0.004
 5917W        W 9981   1.995   9.366   1.015
 5918W        W 9982   5.421   6.967   3.138
 5919W        W 9983   9.718  10.410   0.445
 5920W        W 9984   4.306   2.439  10.320
 5921W        W 9985   7.712   8.023   0.284
 5922W        W 9986   4.701   1.396   1.516
 5923W        W 9987   6.578   9.698  11.983
 5924W        W 9988   3.294   5.762   2.306
 5925W        W 9989   6.028   4.299   9.984
 5926W        W 9990   5.007   1.311   9.204
 5927W        W 9991   6.949   9.498  10.537
 5928W        W 9992   0.620   6.627   0.487
 5929W        W 9993   8.903  10.348   9.040
 5930W        W 9994   9.145   7.027   9.852
 5931W        W 9995   9.360   5.155   0.754
 5932W        W 9996   9.899   7.535   9.854
 5933W        W 9997   9.673   0.437   2.415
 5934W        W 9998   2.321   9.791   1.038
 5935W        W 9999   8.167   3.136   2.018
 5936W        W10000   3.289   1.286   2.295
 5937W        W10001   5.939   1.801   2.973
 5938W        W10002   6.088   7.395  10.321
 5939W        W10003   2.439   9.419   2.676
 5940W        W10004   7.238   1.230   9.635
 5941W        W10005   2.705   1.966   9.983
 5942W        W10006   8.617   9.534  10.849
 5943W        W10007   9.306   7.032   2.029
 5944W        W10008   5.732   6.081   2.442
 5945W        W10009   3.924   1.358  11.397
 5946W        W10010   3.252   4.320   1.281
 5947W        W10011   4.534   4.065   9.856
 5948W        W10012   5.196   5.627   3.131
 5949W        W10013   7.905   3.518   2.646
 5950W        W10014   2.790   3.362  10.745
 5951W        W10015   4.737  10.057   8.852
 5952W        W10016   1.887  10.299   8.736
 5953W        W10017   7.433   4.989   9.987
 5954W        W10018   1.906   2.327   0.485
 5955W        W10019   1.086   5.549   1.091
 5956W        W10020  10.267   8.016   1.377
 5957W        W10021   0.829   8.101  11.465
 5958W        W10022   1.037   0.165   8.601
 5959W        W10023   5.386   7.568   4.260
 5960W        W10024   0.015   5.873   2.453
 5961W        W10025   5.440   0.363   9.397
 5962W        W10026  10.450   6.989   9.251
 5963W        W10027   4.600   7.410  11.621
 5964W        W10028   1.288   2.365   9.218
 5965W        W10029   6.985   7.686  11.555
 5966W        W10030   5.291   2.164  10.088
 5967W        W10031   5.473   3.991  11.677
 5968W        W10032   3.301   5.541   3.668
 5969W        W10033   1.800   7.574   3.169
 5970W        W10034   9.023   1.535   2.307
 5971W        W10035   4.362   4.522   9.506
 5972W        W10036   6.591   2.111   0.041
 5973W        W10037   4.659  10.471  11.584
 5974W        W10038   3.202   7.051   9.992
 5975W        W10039   4.619   4.411   8.405
 5976W        W10040   3.241   9.906   2.716
 5977W        W10041   3.411   3.501   3.336
 5978W        W10042   5.751   5.582   8.596
 5979W        W10043   6.058  10.078  11.058
 5980W        W10044   2.548   9.426   1.805
 5981W        W10045   2.972   6.117   3.137
 5982W        W10046  10.026   9.725   0.805
 5983W        W10047   9.847   1.678   2.908
 5984W        W10048   5.546   4.389   8.471
 5985W        W10049   2.540   9.164  10.499
 5986W        W10050   1.260  10.337   0.530
 5987W        W10051   9.197   0.972   2.364
 5988W        W10052   5.103   8.173   0.463
 5989W        W10053  10.215   8.886   9.159
 5990W        W10054   9.315   1.334   2.722
 5991W        W10055  10.025   1.805   9.016
 5992W        W10056   2.527   8.234   0.827
 5993W        W10057   8.464   1.069  10.529
 5994W        W10058   3.690   7.109   1.031
 5995W        W10059   6.615   6.593  10.241
 5996W        W10060   3.032   2.681   9.372
 5997W        W10061   8.889   6.046   3.222
 5998W        W10062   8.706   3.926   3.703
 5999W        W10063   9.127  10.257  11.029
 6000W        W10064   9.805   8.858   3.351
 6001W        W10065   5.699   4.754   9.013
 6002W        W10066   0.277   2.229   1.267
 6003W        W10067   2.662   3.852  10.747
 6004W        W10068  10.262   2.648   1.516
 6005W        W10069   3.361   8.442   2.619
 6006W        W10070   5.487   2.282   8.807
 6007W        W10071   3.715   4.172   3.559
 6008W        W10072   5.612   4.907   8.525
 6009W        W10073   3.358   7.517   9.724
 6010W        W10074   4.674   8.129   1.442
 6011W        W10075   8.985   1.736   2.784
 6012W        W10076   9.509   9.931   1.265
 6013W        W10077   8.672   2.751   9.082
 6014W        W10078   2.621   3.073  10.329
 6015W        W10079   2.292   3.838  10.314
 6016W        W10080   0.658   7.601  10.524
 6017W        W10081   6.691   1.676  11.301
 6018W        W10082   8.558   8.861   0.001
 6019W        W10083   2.273   9.864   1.913
 6020W        W10084   6.350   0.470   8.998
 6021W        W10085   7.342   5.735   0.239
 6022W        W10086   9.857   9.232   8.922
 6023W        W10087   6.691   7.840   3.361
 6024W        W10088   1.845   6.538   1.122
 6025W        W10089   8.037   9.466   1.088
 6026W        W10090   7.407   5.610   0.719
 6027W        W10091   0.289   4.746   9.571
 6028W        W10092   1.642   1.990   0.183
 6029W        W10093   2.234  10.301  11.950
 6030W        W10094   5.698   1.584   0.279
 6031W        W10095   0.757   1.285   9.321
 6032W        W10096   2.644   5.500   9.523
 6033W        W10097   2.901   4.298   3.229
 6034W        W10098   8.894  10.441   2.724
 6035W        W10099   1.824   3.739   8.915
 6036W        W10100   7.907  10.380   9.346
 6037W        W10101   5.237   1.887   1.691
 6038W        W10102   6.602   3.069  11.729
 6039W        W10103   6.379   3.277  10.706
 6040W        W10104   8.120   5.717  11.775
 6041W        W10105   8.947   5.294  11.963
 6042W        W10106   1.882   1.251   8.792
 6043W        W10107   8.796   0.174   1.232
 6044W        W10108   3.325   8.157   1.110
 6045W        W10109   0.686   9.795   8.890
 6046W        W10110   4.201   7.557   3.053
 6047W        W10111   5.492   5.003   9.423
 6048W        W10112   2.414   9.980   0.586
 6049W        W10113   1.775   5.678   2.806
 6050W        W10114   6.510  10.454   1.139
 6051W        W10115   5.073   0.792  10.457
 6052W        W10116   6.049   2.249  10.770
 6053W        W10117   8.136   9.675   2.375
 6054W        W10118   7.267   7.951   1.788
 6055W        W10119   4.116   1.455   3.292
 6056W        W10120   4.045   2.638   2.220
 6057W        W10121   0.254   9.610  11.000
 6058W        W10122   6.905   1.367   1.690
 6059W        W10123   5.151   9.305   1.824
 6060W        W10124   8.189   2.454   0.852
 6061W        W10125   3.794   0.894  10.688
 6062W        W10126   5.994   7.227   2.485
 6063W        W10127   3.345   5.794   0.456
 6064W        W10128   6.896   8.891   9.392
 6065W        W10129   7.610   7.611  10.536
 6066W        W10130   3.479   5.502   0.862
 6067W        W10131   2.025   5.353  11.728
 6068W        W10132   8.556   0.708   0.077
 6069W        W10133   0.407   2.388   0.788
 6070W        W10134   9.752   7.864   9.062
 6071W        W10135   1.822   2.680   0.873
 6072W        W10136   7.891  10.339  10.971
 6073W        W10137   9.163   0.330  10.420
 6074W        W10138   5.892   8.295   8.388
 6075W        W10139   5.107   5.167  11.972
 6076W        W10140   4.691   7.375   1.802
 6077W        W10141   4.302   4.682   2.785
 6078W        W10142   0.970   5.551   2.435
 6079W        W10143   6.124   0.469  11.641
 6080W        W10144   7.929   5.222  11.853
 6081W        W10145   7.149   1.720   9.449
 6082W        W10146   5.720   7.540   9.567
 6083W        W10147   9.312   8.764   9.386
 6084W        W10148   7.597   4.967   1.104
 6085W        W10149   8.805   0.703  10.305
 6086W        W10150   1.729   1.788   0.655
 6087W        W10151   1.703   0.782   1.576
 6088W        W10152   1.195   5.185   3.476
 6089W        W10153  10.240   2.783   2.383
 6090W        W10154  10.495   8.929   1.662
 6091W        W10155   5.683   1.693  11.252
 6092W        W10156   8.075   1.295   0.360
 6093W        W10157   2.182  10.465   9.589
 6094W        W10158   2.646   6.364  11.094
 6095W        W10159   4.237   9.458   3.234
 6096W        W10160   8.856   5.098   0.833
 6097W        W10161   9.527   9.051   0.833
 6098W        W10162   9.313   9.798  10.067
 6099W        W10163   2.862   3.156   9.475
 6100W        W10164   3.123   6.226  10.038
 6101W        W10165   6.628   3.265   2.205
 6102W        W10166   7.056   6.928   3.165
 6103W        W10167   8.679   2.383  11.115
 6104W        W10168   3.145   4.384  11.427
 6105W        W10169   4.189   0.046   9.551
 6106W        W10170   6.641   7.579   9.573
 6107W        W10171   2.466   1.648  10.278
 6108W        W10172   0.244   5.709  11.541
 6109W        W10173   8.410   7.765  11.470
 6110W        W10174   0.196   1.785  11.164
 6111W        W10175   4.585   9.607   9.036
 6112W        W10176   3.573   2.805   9.237
 6113W        W10177   0.071   1.357  10.342
 6114W        W10178   7.602   0.642   0.826
 6115W        W10179   2.184   8.141  10.168
 6116W        W10180   8.971   1.201  10.282
 6117W        W10181   3.828   8.021  11.351
 6118W        W10182   8.994   5.511   0.494
 6119W        W10183   6.477   4.434   8.431
 6120W        W10184   7.941   2.826  11.759
 6121W        W10185   6.388   0.958   0.388
 6122W        W10186   7.080   5.518   3.308
 6123W        W10187   3.461   5.028   0.017
 6124W        W10188   4.657   0.241   3.445
 6125W        W10189   1.548  10.153   3.714
 6126W        W10190   3.625   3.146   8.811
 6127W        W10191   2.897   4.693   2.484
 6128W        W10192   7.108   4.075   2.068
 6129W        W10193   9.835   7.433   3.226
 6130W        W10194   2.678   5.007   0.439
 6131W        W10195   8.875   7.704   9.232
 6132W        W10196   6.860   1.212   9.987
 6133W        W10197   5.880   8.132   0.438
 6134W        W10198   7.146   4.817   3.900
 6135W        W10199   4.560   0.005   1.008
 6136W        W10200   8.542   4.045  11.365
 6137W        W10201   3.166   5.697  11.246
 6138W        W10202   5.635   2.649   1.892
 6139W        W10203   6.414   8.799   9.558
 6140W        W10204   2.577   1.952   2.185
 6141W        W10205   3.367   9.790   1.837
 6142W        W10206   0.488   7.493   8.481
 6143W        W10207   5.625   8.316   1.181
 6144W        W10208   2.467   4.800   9.856
 6145W        W10209   0.250   4.354  11.967
 6146W        W10210   3.697   0.871   1.211
 6147W        W10211   0.427   3.839   9.116
 6148W        W10212   5.912   9.544   2.477
 6149W        W10213   1.700   3.800   1.839
 6150W        W10214   4.781   6.264   2.421
 6151W        W10215   1.715   8.094   3.326
 6152W        W10216   1.729   3.902   9.408
 6153W        W10217   4.717   0.774  11.096
 6154W        W10218   9.893   8.497  11.489
 6155W        W10219   0.431   6.146   2.476
 6156W        W10220   2.347   1.721   9.715
 6157W        W10221   8.025   5.118   2.081
 6158W        W10222   5.495  10.336  10.194
 6159W        W10223   3.312   2.344   2.662
 6160W        W10224   1.837   3.551   3.307
 6161W        W10225   5.127   9.550   0.275
 6162W        W10226   6.079   1.282   2.815
 6163W        W10227   8.946   2.041   2.368
 6164W        W10228   9.139   5.084   1.818
 6165W        W10229   0.691   7.193   1.819
 6166W        W10230   2.267   4.158   0.881
 6167W        W10231   7.120   1.258   0.727
 6168W        W10232   7.599   2.853   0.963
 6169W        W10233   6.766   6.976   2.718
 6170W        W10234   9.497   8.373   2.477
 6171W        W10235   1.240   2.814   9.469
 6172W        W10236   2.204   9.311  11.890
 6173W        W10237   7.496   5.620  10.876
 6174W        W10238   0.386   0.849   0.918
 6175W        W10239   5.600   4.286   2.619
 6176W        W10240   1.419   3.390   0.305
 6177W        W10241   8.915   9.480   1.785
 6178W        W10242   4.714   5.759  11.364
 6179W        W10243   7.244   2.544   0.736
 6180W        W10244   3.702   7.985   1.429
 6181W        W10245   7.728  10.230  11.987
 6182W        W10246   0.383   5.965  11.136
 6183W        W10247   0.797   0.426  11.814
 6184W        W10248   3.108   3.561   0.013
 6185W        W10249   0.360   8.611   3.121
 6186W        W10250   4.241   9.220   9.544
 6187W        W10251   2.374   3.061   0.345
 6188W        W10252   3.107   2.756   3.545
 6189W        W10253   5.216   3.830   8.953
 6190W        W10254   2.829   8.864   1.158
 6191W        W10255  10.312   5.704   1.752
 6192W        W10256   0.944   2.112  10.437
 6193W        W10257   5.547   2.642   0.301
 6194W        W10258   6.453   4.297   8.921
 6195W        W10259   3.269   9.278  11.468
 6196W        W10260   3.766   4.685   0.987
 6197W        W10261   0.803   1.441   1.958
 6198W        W10262   9.529   1.618  11.752
 6199W        W10263   8.095   8.279   0.599
 6200W        W10264   1.837   5.082  10.329
 6201W        W10265   9.923   6.420   1.917
 6202W        W10266   4.943   6.441   0.323
 6203W        W10267   3.375   9.908  10.687
 6204W        W10268   6.586   2.385   2.797
 6205W        W10269   5.266   3.280   8.506
 6206W        W10270   8.932   3.178   8.889
 6207W        W10271   3.201   1.361  10.122
 6208W        W10272   9.726   6.534   8.900
 6209W        W10273   9.855   6.925   8.554
 6210W        W10274   4.612   1.560   2.877
 6211W        W10275   4.633   2.645   2.385
 6212W        W10276   3.978   4.243  11.647
 6213W        W10277   4.438   8.755   9.506
 6214W        W10278   6.256   6.917   0.007
 6215W        W10279   6.118   4.948   0.924
 6216W        W10280   2.763  10.126   2.302
 6217W        W10281   2.129  10.018   9.873
 6218W        W10282   4.700   1.000  10.197
 6219W        W10283   6.615   1.897   1.275
 6220W        W10284   6.050  10.395  10.278
 6221W        W10285   9.350   9.585   2.098
 6222W        W10286   8.641   5.772   8.506
 6223W        W10287   5.472   1.231   0.604
 6224W        W10288   0.623   9.858   9.810
 6225W        W10289   6.852   0.925   1.420
 6226W        W10290   5.219   3.198  11.735
 6227W        W10291   6.021   2.670   9.044
 6228W        W10292   0.410   9.040   3.557
 6229W        W10293   8.123   3.583   8.926
 6230W        W10294   0.683   1.808  11.969
 6231W        W10295   0.979   6.046   9.274
 6232W        W10296   8.055   7.587  10.863
 6233W        W10297   7.927   9.491   1.608
 6234W        W10298   6.967   3.742   9.692
 6235W        W10299   6.107   2.079   1.186
 6236W        W10300   9.321   7.474  10.642
 6237W        W10301   6.575   2.925   2.933
 6238W        W10302   5.630   9.362   1.715
 6239W        W10303   7.077   8.608  11.970
 6240W        W10304   2.842   2.367  10.891
 6241W        W10305   8.553   9.450   9.015
 6242W        W10306   1.289   6.048   0.979
 6243W        W10307   5.256   1.847  10.944
 6244W        W10308   9.079   6.967  11.157
 6245W        W10309   0.019   1.735   1.148
 6246W        W10310   6.571   0.771  10.010
 6247W        W10311   5.937   3.806   8.209
 6248W        W10312   9.238   2.219  10.030
 6249W        W10313   4.075   6.621   1.479
 6250W        W10314   5.191   8.964   9.973
 6251W        W10315   6.118   2.837   1.705
 6252W        W10316   5.218   4.667   9.709
 6253W        W10317   1.683   4.049   3.656
 6254W        W10318   7.355   5.163  11.039
 6255W        W10319   4.530   3.611   9.610
 6256W        W10320   1.929   1.410   2.657
 6257W        W10321   3.065   2.263   8.997
 6258W        W10322   9.478   8.267   0.287
 6259W        W10323   0.879   1.615   8.885
 6260W        W10324   3.847   7.705   1.843
 6261W        W10325   5.606   9.358  10.964
 6262W        W10326   0.708   2.992   1.520
 6263W        W10327   6.862   5.906   1.766
 6264W        W10328   3.069   4.039  11.068
 6265W        W10329   3.070   8.979   9.129
 6266W        W10330   9.873   2.223   0.685
 6267W        W10331   7.932   6.166   1.792
 6268W        W10332  10.238   0.761   0.310
 6269W        W10333   7.550   3.597   8.940
 6270W        W10334   5.928   0.547   9.624
 6271W        W10335   7.905   4.545   2.004
 6272W        W10336   6.919   0.280  10.545
 6273W        W10337   2.167   0.501  11.250
 6274W        W10338   3.310   0.751   2.423
 6275W        W10339   5.826   0.037   9.803
 6276W        W10340  10.200   1.288   3.403
 6277W        W10341   1.232   4.268  11.797
 6278W        W10342   6.650   6.097   8.799
 6279W        W10343   8.028   0.382   3.329
 6280W        W10344   1.401   0.270   2.064
 6281W        W10345   0.333   3.798   1.733
 6282W        W10346   7.943   9.991  10.610
 6283W        W10347   4.146   2.688   0.186
 6284W        W10348   9.531   5.211   9.064
 6285W        W10349   4.183   3.750   1.846
 6286W        W10350   6.617   3.806   2.498
 6287W        W10351   7.714   3.166   1.773
 6288W        W10352   5.380   0.453   2.742
 6289W        W10353   4.932   9.810   3.557
 6290W        W10354   3.794   2.125   8.573
 6291W        W10355   5.480   5.292   9.889
 6292W        W10356   3.105   4.774  10.592
 6293W        W10357   6.955   4.082  10.359
 6294W        W10358   0.318   1.758   3.056
 6295W        W10359   5.574   0.272  11.959
 6296W        W10360   3.291  10.297   3.423
 6297W        W10361   3.345   7.565   3.689
 6298W        W10362   1.265   1.709   0.392
 6299W        W10363   1.776   8.625   4.086
 6300W        W10364   3.740   1.164   3.078
 6301W        W10365   6.043   8.040  11.522
 6302W        W10366   2.855   3.130   0.167
 6303W        W10367   4.245   5.713   9.650
 6304W        W10368   3.677   8.694   1.829
 6305W        W10369   5.551   9.828   0.442
 6306W        W10370   2.279   4.729  11.746
 6307W        W10371   4.156   0.903   2.572
 6308W        W10372   6.787   3.241   1.727
 6309W        W10373   2.470   7.327  10.183
 6310W        W10374   7.925   0.335  11.060
 6311W        W10375   7.369   3.698   1.393
 6312W        W10376   9.850   5.981  11.444
 6313W        W10377   6.240   6.987   9.152
 6314W        W10378   9.147   0.838   9.930
 6315W        W10379   2.763   5.128  10.490
 6316W        W10380   7.484   2.834   2.979
 6317W        W10381   2.267   5.770   1.364
 6318W        W10382   1.227   0.484  11.549
 6319W        W10383   9.484   1.110  11.854
 6320W        W10384   6.094   8.804   9.961
 6321W        W10385   1.384   3.700   3.455
 6322W        W10386   4.843   8.898  11.818
 6323W        W10387   3.305   5.992   2.782
 6324W        W10388   9.100   2.738   9.976
 6325W        W10389   5.262   3.086   2.581
 6326W        W10390   8.951   4.945   1.330
 6327W        W10391   3.771   3.135   1.453
 6328W        W10392   3.194   7.771   1.461
 6329W        W10393  10.128   3.920   9.775
 6330W        W10394   0.031   0.350   1.686
 6331W        W10395   7.144   3.777  10.736
 6332W        W10396   7.848   3.181   8.736
 6333W        W10397   0.206   7.774   3.012
 6334W        W10398   8.437   5.136  11.864
 6335W        W10399   9.092   5.537   1.005
 6336W        W10400   5.761   1.597   3.409
 6337W        W10401   4.062   1.400  10.119
 6338W        W10402   3.166   8.828   1.928
 6339W        W10403   3.350   0.051   9.868
 6340W        W10404   2.452   6.452  10.236
 6341W        W10405   9.366   5.856   0.288
 6342W        W10406   3.144   6.550   3.488
 6343W        W10407   3.808  10.049   1.868
 6344W        W10408   3.339  10.033   9.817
 6345W        W10409   5.015   0.249   1.869
 6346W        W10410   5.312   8.063  10.314
 6347W        W10411   1.370   9.044   2.018
 6348W        W10412   1.401   2.253  10.138
 6349W        W10413   1.872   2.629   3.389
 6350W        W10414   0.195   3.738   2.753
 6351W        W10415   5.767   6.582  11.155
 6352W        W10416   8.046   9.389  11.371
 6353W        W10417   6.165   1.852  11.047
 6354W        W10418   5.076   8.069  11.356
 6355W        W10419   4.527   1.371   9.911
 6356W        W10420   6.162   7.106   0.473
 6357W        W10421   3.059   1.875   0.983
 6358W        W10422   6.951   4.644   1.502
 6359W        W10423   1.009  10.160   8.664
 6360W        W10424   6.347   8.281   3.242
 6361W        W10425   2.470   4.267  10.523
 6362W        W10426   2.124   0.775   9.948
 6363W        W10427   7.179   9.811   0.701
 6364W        W10428   9.354   1.870   2.054
 6365W        W10429   1.801   9.315   9.188
 6366W        W10430   5.569   8.683  11.816
 6367W        W10431   9.774   4.592  11.312
 6368W        W10432   7.098   5.934   2.632
 6369W        W10433   1.829   5.670  10.996
 6370W        W10434   9.341   4.946  11.945
 6371W        W10435   3.078   1.341   9.090
 6372W        W10436   7.874  10.260  11.492
 6373W        W10437   1.560   0.212  11.866
 6374W        W10438   6.351   5.585   2.512
 6375W        W10439   8.532   0.994  11.074
 6376W        W10440   0.640   4.590   1.862
 6377W        W10441   7.514   7.133   0.672
 6378W        W10442   6.612   4.759   3.117
 6379W        W10443   8.503  10.340   3.074
 6380W        W10444   8.096   1.806   2.809
 6381W        W10445   7.067   0.483   0.627
 6382W        W10446   2.220   3.243   2.370
 6383W        W10447   3.216   4.712   9.571
 6384W        W10448   9.286   9.860  10.562
 6385W        W10449   5.352   3.069   2.079
 6386W        W10450   4.155   7.966   3.379
 6387W        W10451   2.408   4.123   2.312
 6388W        W10452   0.727   4.219   0.701
 6389W        W10453   9.456   9.655   9.132
 6390W        W10454   5.752   1.150  11.978
 6391W        W10455   8.824   2.316   1.948
 6392W        W10456   6.930   0.424   8.940
 6393W        W10457   8.947   5.691   1.928
 6394W        W10458   1.718   3.771  10.771
 6395W        W10459   9.674   3.549   3.557
 6396W        W10460   8.437   8.466  10.880
 6397W        W10461   8.084   0.442   0.616
 6398W        W10462   0.807   3.146  10.048
 6399W        W10463   6.217   9.594   0.974
 6400W        W10464   5.314   9.941   0.948
 6401W        W10465  10.070   3.190   2.056
 6402W        W10466  10.394   9.268   9.999
 6403W        W10467   6.021   7.148  11.289
 6404W        W10468   2.381   1.482   1.313
 6405W        W10469   6.711   3.226  10.285
 6406W        W10470   3.657   9.096   3.183
 6407W        W10471   2.873   6.151   8.776
 6408W        W10472   3.323   4.753   2.214
 6409W        W10473   3.576  10.477   0.698
 6410W        W10474   8.945   7.603   8.721
 6411W        W10475   9.718   8.756   9.056
 6412W        W10476  10.452   2.150   2.984
 6413W        W10477   2.372   2.113  10.515
 6414W        W10478   2.053   3.254   9.729
 6415W        W10479   6.869   1.808   1.964
 6416W        W10480   9.960   1.341   2.052
 6417W        W10481   9.807   9.123   2.887
 6418W        W10482   2.966   4.297  10.640
 6419W        W10483   5.599   4.484   9.425
 6420W        W10484   5.466   3.263   3.517
 6421W        W10485   0.473   7.271  11.541
 6422W        W10486   2.171   3.757  11.645
 6423W        W10487  10.038   3.476   9.004
 6424W        W10488   2.731   3.114   8.973
 6425W        W10489   8.613   3.849  10.616
 6426W        W10490   3.771   3.149   3.462
 6427W        W10491   7.277   7.112   2.732
 6428W        W10492   1.857   5.014   1.146
 6429W        W10493   6.861   9.874   9.406
 6430W        W10494   3.591   5.020   2.611
 6431W        W10495   0.405   7.862   0.445
 6432W        W10496   8.954   9.338   1.308
 6433W        W10497   5.777   1.757   9.480
 6434W        W10498   2.182   6.502   0.301
 6435W        W10499   5.332   2.877  10.958
 6436W        W10500   8.989   9.523   9.284
 6437W        W10501   7.179   5.234   8.467
 6438W        W10502   5.146   6.592  10.404
 6439W        W10503   9.484   4.064   0.270
 6440W        W10504   8.329   1.828   0.795
 6441W        W10505   9.098   6.076   3.668
 6442W        W10506   8.891   8.439   3.215
 6443W        W10507   1.716   0.551   0.235
 6444W        W10508   1.312  10.480  11.458
 6445W        W10509   9.983   8.517   2.424
 6446W        W10510   8.426   5.973   1.761
 6447W        W10511   1.217   7.177   3.070
 6448W        W10512   5.717   8.316   9.548
 6449W        W10513   4.280   4.782   8.623
 6450W        W10514   9.967   7.897  11.112
 6451W        W10515   7.325   5.092   3.073
 6452W        W10516   8.034   2.265   1.981
 6453W        W10517   6.449   9.839   0.465
 6454W        W10518   4.992   3.661   9.382
 6455W        W10519   6.163   6.303  11.362
 6456W        W10520   1.916   0.445   3.039
 6457W        W10521   2.178   4.678   9.436
 6458W        W10522   6.491   9.625   9.717
 6459W        W10523   4.943   8.047   2.281
 6460W        W10524   4.439   2.661   1.896
 6461W        W10525  10.243   9.644  10.938
 6462W        W10526   6.270   5.157   2.257
 6463W        W10527   5.470   3.334   1.496
 6464W        W10528   0.680   7.829   9.014
 6465W        W10529   6.247  10.427   3.180
 6466W        W10530   6.326   2.838   0.815
 6467W        W10531   5.450   1.141  10.510
 6468W        W10532   4.684   2.745  10.109
 6469W        W10533   1.854   6.156   2.270
 6470W        W10534   6.228   5.055   3.299
 6471W        W10535   1.617   6.557   8.840
 6472W        W10536   6.068   6.094   1.808
 6473W        W10537   5.695   4.319   1.382
 6474W        W10538   3.840   7.754   0.352
 6475W        W10539   0.480   6.508   3.464
 6476W        W10540   0.864   4.966  10.272
 6477W        W10541   0.159  10.206   2.065
 6478W        W10542   5.271   2.695  11.865
 6479W        W10543   9.571   3.120   0.253
 6480W        W10544  10.112   6.437   8.587
 6481W        W10545   5.258  10.452   2.824
 6482W        W10546   7.419   9.131   9.524
 6483W        W10547   4.470   6.465   0.148
 6484W        W10548   8.612   9.547   2.730
 6485W        W10549   2.380   4.234   1.394
 6486W        W10550  10.368   2.190   0.925
 6487W        W10551   8.009   7.920   9.999
 6488W        W10552   1.451   9.596  11.496
 6489W        W10553   5.663   7.225   3.507
 6490W        W10554   2.867   6.932   8.606
 6491W        W10555   3.022   3.482   0.536
 6492W        W10556   0.358   9.887   3.253
 6493W        W10557   5.496   9.382   2.236
 6494W        W10558   7.709   3.282   1.256
 6495W        W10559   6.226   4.013   4.123
 6496W        W10560   8.118   0.706   1.450
 6497W        W10561   0.418   4.106   1.330
 6498W        W10562   3.550   0.531  11.044
 6499W        W10563   4.796   9.857   1.749
 6500W        W10564   5.062   6.591   3.343
 6501W        W10565   1.839   1.389   0.990
 6502W        W10566   6.209   5.245   1.777
 6503W        W10567  10.053   5.779   2.275
 6504W        W10568   8.603   1.655  11.855
 6505W        W10569   6.042   8.544   1.893
 6506W        W10570   7.389   9.146   3.011
 6507W        W10571   8.848   8.398   1.985
 6508W        W10572   7.452   1.234   2.431
 6509W        W10573   9.582   9.502  11.553
 6510W        W10574   0.962   6.867   0.807
 6511W        W10575   7.007   0.806  11.374
 6512W        W10576   1.182   1.306   2.279
 6513W        W10577   1.669   9.088   3.377
 6514W        W10578   4.040   5.885  10.079
 6515W        W10579   2.648   2.486  11.772
 6516W        W10580   1.598   7.468  10.378
 6517W        W10581   1.186   0.999   1.353
 6518W        W10582   6.106   4.470   1.094
 6519W        W10583   3.358   2.587   1.849
 6520W        W10584   5.829   2.696  10.952
 6521W        W10585   8.337   7.322   1.136
 6522W        W10586   6.249   7.795   0.402
 6523W        W10587   0.548   4.072  10.443
 6524W        W10588   6.551   2.813   2.457
 6525W        W10589   2.225   2.844   1.152
 6526W        W10590   0.635  10.287   1.913
 6527W        W10591   6.301   1.338  10.246
 6528W        W10592   8.912   4.028   9.073
 6529W        W10593   8.815   2.811   0.525
 6530W        W10594   3.200   6.727   1.540
 6531W        W10595   5.184   0.888   1.900
 6532W        W10596   8.065   7.742   1.163
 6533W        W10597   8.264  10.432   9.725
 6534W        W10598   1.747   3.034   2.524
 6535W        W10599   1.793   6.136  10.701
 6536W        W10600   9.459   2.393   1.344
 6537W        W10601   4.936   6.372   1.939
 6538W        W10602   9.419   5.424   2.662
 6539W        W10603   4.776   8.660   9.902
 6540W        W10604   2.152   6.530  11.237
 6541W        W10605   4.611   3.353   2.567
 6542W        W10606   5.705   0.235  10.946
 6543W        W10607   1.410   8.520   2.732
 6544W        W10608   2.734   6.027  10.284
 6545W        W10609   2.793   2.209   0.242
 6546W        W10610   3.763   5.423   3.455
 6547W        W10611   4.560   6.049   2.017
 6548W        W10612   6.428   2.323   9.099
 6549W        W10613   1.843   2.211   2.752
 6550W        W10614   8.889   1.329   3.084
 6551W        W10615   7.180   1.066  10.815
 6552W        W10616   2.398   2.352   1.899
 6553W        W10617   0.927   1.123  10.228
 6554W        W10618   6.593   0.757   2.722
 6555W        W10619   0.411   9.894   2.764
 6556W        W10620   4.497   2.614   9.111
 6557W        W10621   2.174   1.412   9.304
 6558W        W10622   3.684   5.355   0.382
 6559W        W10623   8.545   6.358   0.269
 6560W        W10624   7.231  10.312  11.853
 6561W        W10625   3.618   8.452  10.545
 6562W        W10626   4.687   8.930   2.619
 6563W        W10627   7.913   2.671   2.764
 6564W        W10628   3.203   0.916   0.948
 6565W        W10629   1.583   3.099   0.718
 6566W        W10630   5.439   8.031   2.275
 6567W        W10631   9.361   3.629   2.455
 6568W        W10632   4.249   5.673  11.745
 6569W        W10633   1.091   2.817   8.470
 6570W        W10634   9.053   6.422  11.041
 6571W        W10635   3.778   6.952  10.487
 6572W        W10636   8.830   3.746   1.916
 6573W        W10637  10.022   7.734   3.650
 6574W        W10638   6.619   0.513   0.266
 6575W        W10639   3.302   6.600   9.752
 6576W        W10640  10.091   9.314  11.275
 6577W        W10641   5.777   4.319   3.110
 6578W        W10642   5.611   3.205   0.452
 6579W        W10643   0.784   9.001   3.206
 6580W        W10644   7.790   7.159  10.128
 6581W        W10645   8.440   6.018   9.066
 6582W        W10646   1.526   0.072   2.899
 6583W        W10647   0.434   0.323   0.758
 6584W        W10648   3.615   5.484  10.350
 6585W        W10649   8.819  10.324   0.854
 6586W        W10650   8.555   8.571   8.916
 6587W        W10651   5.846   4.392   2.169
 6588W        W10652   0.132   6.477   8.695
 6589W        W10653   6.570   6.794   8.789
 6590W        W10654   0.108   8.605  10.900
 6591W        W10655   7.840   3.661   9.344
 6592W        W10656   3.006   7.086   1.871
 6593W        W10657   7.891   7.659   2.163
 6594W        W10658   5.170  10.251   1.835
 6595W        W10659   5.713   4.056   3.973
 6596W        W10660   5.492   7.612  11.822
 6597W        W10661   6.169   2.798  11.948
 6598W        W10662   4.919   8.724   8.602
 6599W        W10663   5.514   0.755   0.200
 6600W        W10664   8.357   6.001   0.887
 6601W        W10665   5.145   5.994   2.753
 6602W        W10666   8.587   4.174   1.739
 6603W        W10667   6.207   3.716  10.417
 6604W        W10668   2.209   2.289   0.979
 6605W        W10669   9.426   5.357   0.266
 6606W        W10670   7.472   3.066   9.727
 6607W        W10671   5.783   4.789   3.323
 6608W        W10672   1.976   6.130  11.725
 6609W        W10673   4.137   4.891   9.786
 6610W        W10674   5.904   1.388   9.830
 6611W        W10675   1.864   6.963   1.445
 6612W        W10676   5.002   1.679   2.505
 6613W        W10677   3.725   2.255   2.085
 6614W        W10678   6.921   6.308   9.455
 6615W        W10679   3.401   1.903  11.243
 6616W        W10680   1.807   0.845   0.635
 6617W        W10681   3.336   4.490   0.793
 6618W        W10682   9.749   4.183   2.927
 6619W        W10683   4.422  10.419   8.651
 6620W        W10684   0.276   6.211  10.266
 6621W        W10685   3.324   1.135   2.790
 6622W        W10686   1.809   5.665   8.711
 6623W        W10687   8.564   8.468   8.388
 6624W        W10688   5.094   1.420  10.692
 6625W        W10689   0.792   5.471   1.512
 6626W        W10690   9.306   8.220   2.911
 6627W        W10691   6.522   5.599  11.173
 6628W        W10692  10.370   5.992  11.329
 6629W        W10693   9.450   6.877   0.068
 6630W        W10694   9.668   2.504  11.510
 6631W        W10695   7.624   8.421   8.434
 6632W        W10696   7.924   1.353   9.371
 6633W        W10697   0.803   7.489   1.399
 6634W        W10698   0.900   3.592   0.281
 6635W        W10699   1.608   0.822  11.328
 6636W        W10700  10.250   7.457  11.299
 6637W        W10701   8.428   8.062  11.868
 6638W        W10702   7.088   2.329   3.575
 6639W        W10703   3.116   3.542  11.089
 6640W        W10704   0.336   5.796   1.009
 6641W        W10705   4.263   0.743  10.869
 6642W        W10706   7.974   6.956   0.431
 6643W        W10707   1.396   7.555  11.844
 6644W        W10708   4.964   3.521   9.880
 6645W        W10709   1.884   7.192   2.299
 6646W        W10710   1.276   6.276  11.326
 6647W        W10711   4.201   8.565   1.785
 6648W        W10712   4.976  10.304  10.123
 6649W        W10713   7.978   4.100  10.518
 6650W        W10714   8.937   2.852   9.525
 6651W        W10715   2.422   6.172   9.010
 6652W        W10716   1.021   8.518  10.706
 6653W        W10717   8.990   9.950   1.983
 6654W        W10718   1.293   9.040   3.020
 6655W        W10719   7.253   3.933   9.207
 6656W        W10720   7.157   0.504   0.127
 6657W        W10721   8.707  10.394   9.993
 6658W        W10722   2.775   6.904   2.278
 6659W        W10723   4.746   7.348  11.155
 6660W        W10724   2.201   3.696   0.667
 6661W        W10725   4.766   3.603   1.012
 6662W        W10726   9.472   1.799   3.718
 6663W        W10727   9.877   3.797  10.963
 6664W        W10728   6.432   9.581   3.324
 6665W        W10729   3.325   4.571   2.711
 6666W        W10730   3.285   7.045   0.167
 6667W        W10731   6.716   9.588   0.861
 6668W        W10732   5.631   9.224   3.368
 6669W        W10733   4.248   1.303   0.706
 6670W        W10734   8.818   3.785  11.721
 6671W        W10735  10.040   2.236   0.214
 6672W        W10736   6.108   0.925   8.983
 6673W        W10737   6.433   1.008   3.499
 6674W        W10738   9.155   1.496   1.776
 6675W        W10739   2.298  10.218  11.447
 6676W        W10740   0.664   7.870   9.538
 6677W        W10741   4.341   3.050   2.263
 6678W        W10742   2.454   9.698   9.599
 6679W        W10743   0.778   1.914   1.796
 6680W        W10744   5.563   9.836   2.740
 6681W        W10745   0.025   0.692   2.666
 6682W        W10746   0.358   5.007  10.248
 6683W        W10747   2.882   7.454   9.891
 6684W        W10748   8.700   1.243   1.994
 6685W        W10749   9.964   4.833   3.220
 6686W        W10750  10.166   8.686   2.869
 6687W        W10751   2.666   6.247   9.810
 6688W        W10752   6.636   5.727  10.704
 6689W        W10753   2.160   8.237  11.879
 6690W        W10754   5.293   6.921  10.037
 6691W        W10755   0.246   5.990   2.914
 6692W        W10756   1.013   7.624  11.433
 6693W        W10757   8.129   3.504   0.741
 6694W        W10758  10.450  10.220  11.326
 6695W        W10759   0.567   9.408   2.910
 6696W        W10760   6.480   2.336  10.492
 6697W        W10761   4.216   7.075  11.672
 6698W        W10762   6.381   5.120   2.755
 6699W        W10763   2.214   1.642   0.653
 6700W        W10764   9.079   1.892   8.952
 6701W        W10765   2.290   2.701   3.059
 6702W        W10766   0.380   3.600   1.260
 6703W        W10767   8.868   8.613   9.646
 6704W        W10768   5.986   2.324   0.255
 6705W        W10769   6.326   9.790   1.712
 6706W        W10770   2.564   7.333  10.734
 6707W        W10771   3.241   8.899   0.536
 6708W        W10772   3.324   4.192  10.273
 6709W        W10773   0.030   8.499   9.021
 6710W        W10774   7.414  10.173   0.962
 6711W        W10775   3.169   1.829   9.888
 6712W        W10776   8.136   3.074   2.527
 6713W        W10777   6.012   4.576   8.646
 6714W        W10778   4.601   4.088   1.822
 6715W        W10779   0.177   8.982   8.881
 6716W        W10780   4.140   3.246   2.723
 6717W        W10781   2.660   5.688  11.260
 6718W        W10782   7.105  10.475   0.711
 6719W        W10783   2.314   1.207   0.882
 6720W        W10784   3.821   5.472   2.450
 6721W        W10785   4.016   4.137   9.479
 6722W        W10786   9.826   5.923   1.836
 6723W        W10787   3.218  10.231  11.067
 6724W        W10788   0.054   7.581   0.711
 6725W        W10789   4.117   5.948  10.927
 6726W        W10790   6.991   3.363  11.069
 6727W        W10791   1.287   9.971   2.902
 6728W        W10792   7.396  10.447   9.525
 6729W        W10793   2.328   7.530   3.253
 6730W        W10794  10.298   1.213   8.861
 6731W        W10795   5.181   6.041   1.316
 6732W        W10796   8.357   3.128   3.358
 6733W        W10797   9.959   6.964   3.432
 6734W        W10798   6.935   9.985   3.139
 6735W        W10799   4.286   1.688   1.419
 6736W        W10800   6.556   3.558  11.554
 6737W        W10801   1.345  10.016   0.933
 6738W        W10802   3.678   5.758   8.869
 6739W        W10803   9.978   3.365   0.774
 6740W        W10804   4.479   7.923   2.426
 6741W        W10805   6.525   5.712   1.128
 6742W        W10806   0.897   6.201   0.385
 6743W        W10807   0.893   5.978   1.297
 6744W        W10808  10.330   3.988   0.650
 6745W        W10809   6.553   7.051   2.234
 6746W        W10810   9.520  10.222  10.286
 6747W        W10811   9.563   2.421   2.964
 6748W        W10812   6.427   1.904   1.746
 6749W        W10813   2.157   8.973   0.716
 6750W        W10814   5.078   7.189   0.758
 6751W        W10815   3.279   6.087   1.889
 6752W        W10816   7.547  10.070   0.475
 6753W        W10817   0.383   9.419   0.398
 6754W        W10818   6.964   4.244   8.912
 6755W        W10819   5.695   6.049   1.453
 6756W        W10820   9.192   3.305  11.921
 6757W        W10821   6.588   8.642  10.052
 6758W        W10822   4.648   8.483  10.944
 6759W        W10823   9.934   3.819   3.208
 6760W        W10824   5.104   0.858  11.930
 6761W        W10825   0.243   5.854   9.756
 6762W        W10826   5.540   1.161   1.095
 6763W        W10827   4.093   3.504   3.161
 6764W        W10828   2.255   6.709   3.036
 6765W        W10829   7.662   0.856  10.939
 6766W        W10830   6.863   9.437   2.466
 6767W        W10831  10.256   7.883   9.232
 6768W        W10832   2.637   8.782   2.114
 6769W        W10833   8.963   6.674   0.057
 6770W        W10834   1.608   9.028   1.019
 6771W        W10835   7.992   0.433   0.046
 6772W        W10836   2.322   4.719   1.208
 6773W        W10837   2.602   9.849   1.444
 6774W        W10838   6.647   5.392  10.337
 6775W        W10839   7.521   2.799   8.519
 6776W        W10840   8.839   1.773   0.782
 6777W        W10841   1.230   5.446  10.892
 6778W        W10842   5.304   6.500  11.428
 6779W        W10843   2.356   8.675   1.110
 6780W        W10844   5.497   0.423   9.908
 6781W        W10845   8.876   2.575   2.394
 6782W        W10846   6.703   9.046   8.923
 6783W        W10847   5.442   7.121   9.592
 6784W        W10848   0.173   8.586   8.495
 6785W        W10849   8.564   4.273   0.736
 6786W        W10850   8.905   3.117  10.501
 6787W        W10851   5.196   0.867   3.135
 6788W        W10852   7.630   1.262   0.118
 6789W        W10853   7.637   9.160   0.883
 6790W        W10854   5.565   4.341  10.735
 6791W        W10855   9.808   2.890   0.919
 6792W        W10856   1.763  10.237   0.741
 6793W        W10857   2.391   4.673   1.717
 6794W        W10858   6.336   8.344   0.366
 6795W        W10859   0.257   4.553   1.496
 6796W        W10860   5.215   2.909   1.621
 6797W        W10861   6.749   9.534   9.043
 6798W        W10862   3.441   8.536   3.095
 6799W        W10863   1.427   8.605  10.370
 6800W        W10864   8.898   6.654   2.019
 6801W        W10865   1.738   8.588   3.115
 6802W        W10866   5.143   4.130   3.311
 6803W        W10867   8.176   9.542   3.524
 6804W        W10868   6.171   9.862  10.068
 6805W        W10869   7.800   5.923  10.059
 6806W        W10870   4.162   0.870   0.399
 6807W        W10871   9.819   7.434   9.334
 6808W        W10872   4.290   0.409   0.224
 6809W        W10873   7.116   6.054   8.580
 6810W        W10874   1.251   9.854  10.779
 6811W        W10875   9.373   0.592  11.930
 6812W        W10876  10.260   5.778   0.229
 6813W        W10877   1.666   0.787   3.328
 6814W        W10878   2.454   4.607   0.714
 6815W        W10879   5.529   7.953   9.828
 6816W        W10880   5.188   5.656  10.409
 6817W        W10881   4.724   9.138   9.746
 6818W        W10882   8.327   3.272  11.274
 6819W        W10883  10.064  10.438   9.452
 6820W        W10884   6.879   8.967   1.673
 6821W        W10885   3.243   0.197  10.811
 6822W        W10886   4.475   8.076  10.701
 6823W        W10887   6.801   4.286  11.705
 6824W        W10888   9.849   4.773   2.344
 6825W        W10889   5.781   6.147   0.101
 6826W        W10890   5.113   1.397   1.817
 6827W        W10891   3.561   4.656  10.404
 6828W        W10892   5.735   8.430  11.373
 6829W        W10893   4.582   0.990   2.935
 6830W        W10894   0.557   3.313   2.881
 6831W        W10895   0.165   8.937   9.396
 6832W        W10896   4.970   1.693   0.043
 6833W        W10897  10.385   3.272   1.645
 6834W        W10898   8.987   0.860   8.972
 6835W        W10899   6.434   0.329  10.397
 6836W        W10900   3.321   9.598   0.107
 6837W        W10901   9.938   4.195   2.448
 6838W        W10902  10.317   2.269   2.487
 6839W        W10903   1.211   3.084   1.617
 6840W        W10904   2.982   1.738  11.496
 6841W        W10905   5.428   5.682   2.372
 6842W        W10906   8.873   3.697   9.460
 6843W        W10907   0.598   3.245   3.463
 6844W        W10908   3.959   8.930  11.966
 6845W        W10909   9.491   6.928   3.602
 6846W        W10910   6.653   5.415   1.955
 6847W        W10911   7.591   0.585   1.358
 6848W        W10912   5.579   7.031   2.297
 6849W        W10913   7.126   1.304   0.206
 6850W        W10914   5.433  10.390   0.288
 6851W        W10915   8.558  10.205   8.634
 6852W        W10916   8.890   7.162   0.220
 6853W        W10917   4.070   7.129  10.885
 6854W        W10918   8.891   5.084   9.834
 6855W        W10919   3.740   5.082   9.100
 6856W        W10920   0.377   2.239  11.921
 6857W        W10921   7.258   8.819   8.744
 6858W        W10922   0.111   9.469   3.489
 6859W        W10923   0.275   1.727  11.702
 6860W        W10924   1.767   2.115  11.607
 6861W        W10925   7.835   2.327   8.452
 6862W        W10926   4.243   3.972   3.138
 6863W        W10927   3.281  10.276  11.584
 6864W        W10928   7.574   1.660  10.268
 6865W        W10929   9.254   5.116   3.279
 6866W        W10930   9.595   9.998   0.760
 6867W        W10931   0.582   3.320  11.298
 6868W        W10932   1.736   2.590   9.106
 6869W        W10933   4.926   6.080   3.254
 6870W        W10934   9.794   6.775   2.291
 6871W        W10935   2.467   5.559   2.206
 6872W        W10936   4.960   1.749   3.182
 6873W        W10937   6.761   2.609   0.796
 6874W        W10938   5.456   2.213   9.598
 6875W        W10939   6.407   1.195   9.778
 6876W        W10940   7.953   2.283  11.871
 6877W        W10941   1.316   2.814   8.928
 6878W        W10942   1.272   7.357   0.325
 6879W        W10943   4.936   1.871   0.888
 6880W        W10944   0.839   4.265  10.825
 6881W        W10945   7.368   9.134  11.170
 6882W        W10946  10.043   5.240   9.363
 6883W        W10947   4.324   3.114  11.859
 6884W        W10948   3.389   1.294   0.252
 6885W        W10949   9.925   5.367   9.894
 6886W        W10950   7.368   4.105   3.877
 6887W        W10951   6.242   4.062   2.173
 6888W        W10952   2.107   1.911   1.973
 6889W        W10953   0.616   7.466   2.312
 6890W        W10954   6.425   3.354   9.027
 6891W        W10955   9.702   6.852   1.784
 6892W        W10956   5.680   8.865   3.013
 6893W        W10957  10.378   1.390   2.447
 6894W        W10958   0.341   4.217   2.027
 6895W        W10959   3.960   1.770  11.733
 6896W        W10960   0.354   1.779  10.311
 6897W        W10961   6.626   3.749   3.018
 6898W        W10962   8.614   5.550   0.835
 6899W        W10963   8.010   4.733   3.501
 6900W        W10964   7.143   9.427  11.997
 6901W        W10965   1.779   6.148  11.223
 6902W        W10966   2.610   7.944  11.988
 6903W        W10967   8.491   0.911  11.587
 6904W        W10968  10.103   5.501  10.503
 6905W        W10969   8.494   5.666   3.138
 6906W        W10970   3.706   0.244   9.553
 6907W        W10971   6.037   9.445   1.994
 6908W        W10972   0.895   0.664   8.466
 6909W        W10973   0.499  10.282   8.790
 6910W        W10974   8.972   9.320   8.760
 6911W        W10975   6.160   1.370  11.749
 6912W        W10976   0.044   8.496  10.384
 6913W        W10977   6.517   9.818  10.949
 6914W        W10978   2.666   2.585   8.986
 6915W        W10979   7.898   2.961  11.268
 6916W        W10980   0.855   3.540   9.213
 6917W        W10981   6.638   4.471  10.516
 6918W        W10982   2.592   5.137  11.009
 6919W        W10983   8.617   5.566  11.679
 6920W        W10984   4.417   1.319   0.240
 6921W        W10985   5.213   6.220   0.805
 6922W        W10986   6.426  10.067   8.205
 6923W        W10987   4.235   5.690   2.748
 6924W        W10988   9.949   7.977  10.123
 6925W        W10989   2.414   7.742   0.732
 6926W        W10990   8.999   3.633   1.184
 6927W        W10991   7.354   5.402  11.820
 6928W        W10992   8.325   3.661  11.828
 6929W        W10993   6.469   7.104   9.590
 6930W        W10994   9.933   7.081   0.099
 6931W        W10995   3.800   5.532   2.965
 6932W        W10996  10.480   0.908  11.893
 6933W        W10997   7.616  10.303   2.967
 6934W        W10998   5.102  10.449   3.342
 6935W        W10999   9.530   4.240   1.239
 6936W        W11000   7.546   4.661   3.203
 6937W        W11001   3.211  10.340   2.438
 6938W        W11002   6.895   3.124   3.725
 6939W        W11003   9.381   8.348  10.983
 6940W        W11004   8.000   7.195   3.244
 6941W        W11005   7.513   7.838   9.365
 6942W        W11006   8.401   3.357   2.875
 6943W        W11007   4.631   3.565   2.095
 6944W        W11008   6.455   4.931  10.442
 6945W        W11009   7.566   1.445   1.538
 6946W        W11010   6.037   4.584   0.563
 6947W        W11011   3.829   7.288   2.834
 6948W        W11012   8.576   0.662   1.715
 6949W        W11013   8.511   1.410  11.403
 6950W        W11014   1.238   4.707   1.355
 6951W        W11015   7.474   7.755  11.901
 6952W        W11016  10.387   2.757   9.129
 6953W        W11017   7.920   9.910   2.804
 6954W        W11018   4.489   6.626   2.194
 6955W        W11019   0.820   4.710   0.853
 6956W        W11020   7.065   4.728  11.541
 6957W        W11021   5.212   2.223  10.593
 6958W        W11022   1.694   4.710   0.449
 6959W        W11023   8.547  10.224   1.268
 6960W        W11024   0.122   8.011   1.003
 6961W        W11025   4.637   7.425  10.338
 6962W        W11026   8.415   9.007  11.502
 6963W        W11027   7.183   9.216   9.067
 6964W        W11028   6.279   6.080   9.970
 6965W        W11029   9.909  10.422   8.918
 6966W        W11030   5.945   1.902   0.605
 6967W        W11031   2.765   2.726   0.473
 6968W        W11032   0.289   5.131   2.166
 6969W        W11033   4.052   9.057   1.910
 6970W        W11034   1.886   5.098   1.661
 6971W        W11035   9.024   4.085   0.922
 6972W        W11036   0.406   5.608   0.521
 6973W        W11037   6.686   4.295   3.296
 6974W        W11038  10.499   7.866   3.495
 6975W        W11039   2.005   1.710  10.099
 6976W        W11040   7.569   0.703   3.109
 6977W        W11041   7.549   2.130   3.717
 6978W        W11042   1.215   8.639  11.691
 6979W        W11043   2.790   5.309  10.010
 6980W        W11044   2.388   2.735   3.550
 6981W        W11045  10.308   2.156   1.450
 6982W        W11046   5.992   1.727   8.660
 6983W        W11047   9.374   8.598   1.124
 6984W        W11048   0.763   3.715   0.789
 6985W        W11049   4.185   7.442   1.560
 6986W        W11050   6.327   4.667   0.142
 6987W        W11051   3.592   1.938   9.553
 6988W        W11052   3.144   6.383   3.987
 6989W        W11053   8.571   4.835   2.745
 6990W        W11054   9.402   0.102   8.954
 6991W        W11055   3.638   4.163   1.621
 6992W        W11056   1.603   4.213   0.778
 6993W        W11057   3.392   7.423   9.231
 6994W        W11058   9.839   9.088   9.434
 6995W        W11059   5.628   4.531   0.876
 6996W        W11060   2.224   4.692  10.340
 6997W        W11061  10.018   2.127  10.664
 6998W        W11062   9.252   9.849  11.793
 6999W        W11063   5.107  10.043   0.500
 7000W        W11064   1.216   0.318   2.554
 7001W        W11065   7.482   0.986  11.481
 7002W        W11066   9.971   2.293  11.169
 7003W        W11067   3.384   1.803  10.369
 7004W        W11068   7.991   4.801   9.977
 7005W        W11069   9.381   7.516   2.898
 7006W        W11070   6.397   0.348   2.936
 7007W        W11071   1.712   4.874   9.412
 7008W        W11072   3.667   1.457   9.403
 7009W        W11073   9.929   8.059   0.444
 7010W        W11074   8.831   0.997   0.404
 7011W        W11075   5.500   7.180  10.468
 7012W        W11076   2.399   9.439   0.684
 7013W        W11077   3.840   4.234  10.412
 7014W        W11078   4.787   4.264   2.282
 7015W        W11079   4.607   2.421   0.153
 7016W        W11080   8.426   5.562   0.145
 7017W        W11081   3.644  10.049  11.290
 7018W        W11082   9.067   4.783  11.337
 7019W        W11083   9.643   7.072   9.911
 7020W        W11084   4.635   8.682   9.026
 7021W        W11085   4.800   4.036  10.334
 7022W        W11086   1.970   0.781   9.020
 7023W        W11087   8.411  10.010   2.674
 7024W        W11088  10.040   5.609   3.645
 7025W        W11089   5.188   2.226   3.194
 7026W        W11090   6.908   5.535   0.036
 7027W        W11091   2.234   0.032   9.063
 7028W        W11092   8.134   5.134   2.581
 7029W        W11093   8.305   0.589  10.390
 7030W        W11094  10.032   5.257   8.841
 7031W        W11095   9.211   9.009  10.361
 7032W        W11096  10.061   4.585   2.772
 7033W        W11097   9.008   4.661  10.154
 7034W        W11098   5.752   4.809   1.275
 7035W        W11099   7.259   6.443   3.250
 7036W        W11100   1.678   3.584   9.796
 7037W        W11101   7.588   4.869   2.213
 7038W        W11102   3.772   1.794   9.031
 7039W        W11103   8.603   5.357   2.681
 7040W        W11104   4.074   9.952   3.145
 7041W        W11105   4.235   2.909   1.504
 7042W        W11106   7.125   4.517   3.485
 7043W        W11107   6.944   6.938  11.500
 7044W        W11108   9.793   4.502   0.245
 7045W        W11109   6.668   4.176   1.806
 7046W        W11110   2.626   6.820  10.863
 7047W        W11111   6.883   9.581   0.379
 7048W        W11112   1.833   3.418   8.512
 7049W        W11113  10.359   4.098   8.272
 7050W        W11114   5.469   9.490   8.978
 7051W        W11115   8.917   7.588   9.761
 7052W        W11116   1.308   3.830   0.074
 7053W        W11117   1.074   4.746   8.496
 7054W        W11118   4.555   3.596   9.078
 7055W        W11119   5.522   1.614   8.515
 7056W        W11120   0.856   7.957  10.010
 7057W        W11121  10.446  10.489  11.827
 7058W        W11122   1.429   2.265   1.387
 7059W        W11123   7.361   9.425   2.284
 7060W        W11124   5.533   6.707  11.956
 7061W        W11125   8.844   2.403   0.066
 7062W        W11126   6.399   3.061   8.510
 7063W        W11127   8.919   0.654  11.719
 7064W        W11128   0.301   4.488  11.479
 7065W        W11129   4.660   6.714   8.571
 7066W        W11130   6.704   6.766   9.286
 7067W        W11131   0.586   1.173   0.302
 7068W        W11132   9.258   2.415  11.793
 7069W        W11133   5.299   1.850  11.668
 7070W        W11134   1.178   1.794  11.866
 7071W        W11135  10.483   4.290   9.605
 7072W        W11136   1.006   3.298   2.420
 7073W        W11137   2.694   7.914   1.464
 7074W        W11138   3.279   6.035   9.050
 7075W        W11139   9.766   2.229   2.161
 7076W        W11140   4.256   2.215   1.472
 7077W        W11141   6.517   6.288   1.731
 7078W        W11142   3.084   6.562   1.996
 7079W        W11143   5.435   6.454   2.678
 7080W        W11144   0.837   9.811   3.088
 7081W        W11145   2.808   0.187   3.554
 7082W        W11146   7.886   2.050   0.957
 7083W        W11147   0.498   6.702   0.960
 7084W        W11148   2.210   1.266  10.505
 7085W        W11149   8.435   0.521   1.101
 7086W        W11150   7.876   1.843   1.747
 7087W        W11151   6.474   5.879   2.087
 7088W        W11152   6.693  10.390   2.874
 7089W        W11153   6.984   6.408   2.762
 7090W        W11154   4.288   2.145  11.881
 7091W        W11155   6.492   9.314   1.799
 7092W        W11156   6.112   2.683   2.713
 7093W        W11157   0.700   8.573  11.590
 7094W        W11158   2.293   7.227   1.455
 7095W        W11159   4.142  10.026  11.243
 7096W        W11160  10.285   6.662   2.246
 7097W        W11161  10.312   1.798  11.546
 7098W        W11162   9.283   4.212  10.067
 7099W        W11163   1.331   6.912  11.059
 7100W        W11164   3.741   7.488  10.524
 7101W        W11165   1.312   1.574  11.425
 7102W        W11166   9.579   0.022  11.210
 7103W        W11167   1.141   1.706  10.960
 7104W        W11168   0.380   3.288   1.797
 7105W        W11169   6.519   4.652   0.816
 7106W        W11170   0.028   9.106   0.162
 7107W        W11171   1.823   3.143   1.187
 7108W        W11172   9.850   7.473  10.842
 7109W        W11173   1.443   9.812   0.436
 7110W        W11174   1.613   4.313   1.909
 7111W        W11175   4.670   1.018   1.174
 7112W        W11176   6.880   6.654   1.317
 7113W        W11177   2.820   6.997  10.407
 7114W        W11178   3.552   7.018   9.593
 7115W        W11179   5.119   0.572   1.481
 7116W        W11180   1.991   4.276   0.438
 7117W        W11181   2.771   9.367   9.371
 7118W        W11182   9.234   8.821   3.386
 7119W        W11183   8.389   7.679   8.962
 7120W        W11184   4.054   7.013   9.561
 7121W        W11185   4.322   6.278   4.130
 7122W        W11186   0.820   0.391   1.852
 7123W        W11187   9.459   2.450   0.850
 7124W        W11188   9.856   5.047   1.526
 7125W        W11189   2.548   7.822   9.981
 7126W        W11190  10.224   0.545   3.097
 7127W        W11191   2.861   0.215   1.739
 7128W        W11192   3.352   4.767  11.034
 7129W        W11193   3.601   6.237   8.677
 7130W        W11194   9.547   2.517  11.007
 7131W        W11195   9.653   8.633   2.898
 7132W        W11196   5.522   9.312   9.486
 7133W        W11197   8.460   8.569   9.957
 7134W        W11198   7.855   5.409   8.860
 7135W        W11199   7.005   2.697   2.244
 7136W        W11200   2.632   1.855   2.675
 7137W        W11201   9.768   7.545  11.433
 7138W        W11202   6.916   3.506   9.197
 7139W        W11203   2.287   3.473  10.672
 7140W        W11204   9.198   9.143   0.460
 7141W        W11205   6.543   0.003   8.928
 7142W        W11206   9.028   2.035  10.893
 7143W        W11207   0.950   7.117  11.358
 7144W        W11208   1.419   5.622   3.271
 7145W        W11209   0.354   2.921   9.324
 7146W        W11210  10.319   6.003  10.493
 7147W        W11211   9.134   5.181   9.386
 7148W        W11212   0.512   3.241   2.347
 7149W        W11213   7.467   2.204  11.713
 7150W        W11214   0.196   1.393   3.428
 7151W        W11215  10.261   4.233  10.931
 7152W        W11216  10.392   2.925   9.627
 7153W        W11217   5.463   7.858   0.273
 7154W        W11218   4.765   7.349   1.296
 7155W        W11219   4.626   2.846   0.441
 7156W        W11220   2.387   7.419  11.228
 7157W        W11221   9.292  10.070   2.826
 7158W        W11222   6.564   5.236   3.634
 7159W        W11223   3.563   0.242   3.515
 7160W        W11224   6.217   5.723  10.380
 7161W        W11225   2.593   0.195   0.009
 7162W        W11226   1.452   4.914   1.812
 7163W        W11227   1.873   8.896   9.815
 7164W        W11228  10.244   1.099  10.988
 7165W        W11229   4.299   4.716   0.961
 7166W        W11230   1.798  10.385  11.156
 7167W        W11231   0.389   6.173   0.651
 7168W        W11232   6.808   1.726   0.805
 7169W        W11233   0.911   3.856  11.746
 7170W        W11234   6.111   3.306   8.120
 7171W        W11235   3.588   6.633   0.201
 7172W        W11236   6.983   5.020   9.370
 7173W        W11237   7.357   9.505  11.541
 7174W        W11238   4.636   9.614   1.048
 7175W        W11239   2.603   4.714  10.731
 7176W        W11240   5.425   7.115   3.937
 7177W        W11241   9.694   7.558   2.203
 7178W        W11242   9.720   2.997  11.336
 7179W        W11243   6.235   5.274   1.286
 7180W        W11244   0.334   3.171  10.315
 7181W        W11245   0.399   8.492   9.404
 7182W        W11246   3.801   8.437   2.365
 7183W        W11247   9.614   8.757   2.161
 7184W        W11248   8.350   2.286  11.492
 7185W        W11249   0.168   2.156   9.994
 7186W        W11250   4.980   0.396   9.157
 7187W        W11251   5.109   7.694   0.641
 7188W        W11252  10.043  10.273   0.805
 7189W        W11253   2.293   6.456  10.721
 7190W        W11254   4.986   5.336   1.649
 7191W        W11255   9.497   1.405   1.290
 7192W        W11256   1.893   4.429  11.475
 7193W        W11257   7.705   6.654  11.367
 7194W        W11258   6.663   5.274   3.140
 7195W        W11259   1.276   5.927   1.955
 7196W        W11260   7.075   4.032   3.051
 7197W        W11261   1.816   6.171   0.244
 7198W        W11262   7.581   7.295   2.341
 7199W        W11263   5.524   9.428  10.458
 7200W        W11264   2.693   6.405   2.305
 7201W        W11265   4.068   9.049   0.484
 7202W        W11266   6.085   2.385   0.749
 7203W        W11267   0.809   8.105   2.235
 7204W        W11268   3.186   6.553   8.761
 7205W        W11269   1.715   8.845   8.927
 7206W        W11270   1.308   5.209  10.425
 7207W        W11271   5.624   2.832   2.840
 7208W        W11272   3.212   1.859   0.504
 7209W        W11273   1.616   6.933   1.894
 7210W        W11274   6.216   3.035   9.368
 7211W        W11275   4.822   7.999   3.603
 7212W        W11276   7.521   9.573   9.272
 7213W        W11277   6.399   1.528   2.090
 7214W        W11278   2.801   2.847   9.882
 7215W        W11279  10.263   2.812  10.538
 7216W        W11280   1.795   6.918  11.256
 7217W        W11281   5.945   8.101  11.007
 7218W        W11282   4.155   5.742   2.140
 7219W        W11283   9.967   7.576   1.324
 7220W        W11284   0.809   9.407  10.047
 7221W        W11285   4.188   5.588  11.259
 7222W        W11286   1.341   8.161  11.561
 7223W        W11287   8.593   3.756   1.455
 7224W        W11288   6.883   0.912   0.416
 7225W        W11289   4.729   5.405  10.424
 7226W        W11290   9.850   8.017   2.314
 7227W        W11291   7.102  10.355   8.689
 7228W        W11292   8.123   8.185  11.326
 7229W        W11293   3.036   2.349  10.020
 7230W        W11294   7.584   6.864  10.900
 7231W        W11295   4.089   4.278   9.966
 7232W        W11296  10.290   6.222   0.481
 7233W        W11297   6.406   9.682   2.581
 7234W        W11298   5.049   9.573  11.751
 7235W        W11299   8.633   4.421   2.428
 7236W        W11300   1.589   7.238   2.721
 7237W        W11301   7.572   6.887   3.232
 7238W        W11302   9.400   5.188   1.271
 7239W        W11303   8.314   9.203   2.339
 7240W        W11304   0.311   8.180  11.584
 7241W        W11305   9.904   1.697   3.473
 7242W        W11306   8.426   8.327   2.283
 7243W        W11307   6.920   4.656   8.591
 7244W        W11308   0.605   7.186   1.038
 7245W        W11309   0.785  10.440  10.972
 7246W        W11310   4.185   9.333   2.322
 7247W        W11311   6.515   2.153   0.843
 7248W        W11312   0.796   6.991  10.288
 7249W        W11313   2.821   5.878   3.934
 7250W        W11314   4.077   6.624  11.426
 7251W        W11315   5.946   6.922  10.496
 7252W        W11316   8.406   8.572   9.442
 7253W        W11317   9.430   0.610   9.057
 7254W        W11318   8.105   5.176   0.331
 7255W        W11319   4.785   4.188   0.277
 7256W        W11320   9.895   0.862  10.306
 7257W        W11321   2.886   6.657   9.485
 7258W        W11322   6.857   5.918   0.361
 7259W        W11323  10.391   6.556   1.729
 7260W        W11324   7.388   4.471   9.840
 7261W        W11325   7.934   3.142   2.995
 7262W        W11326   1.387   4.695   0.028
 7263W        W11327   6.266   0.398   1.065
 7264W        W11328   3.115   0.846  10.172
 7265W        W11329   9.520   8.088   1.614
 7266W        W11330   2.112   4.994   0.609
 7267W        W11331   4.200   9.395  11.883
 7268W        W11332   2.802   6.969   0.937
 7269W        W11333   2.744   3.833  11.436
 7270W        W11334   1.701  10.332   9.721
 7271W        W11335   0.901   5.467   8.632
 7272W        W11336   5.959   6.882   3.289
 7273W        W11337   7.412   7.575   0.397
 7274W        W11338   5.203   0.542   2.275
 7275W        W11339   3.277   9.690  11.137
 7276W        W11340   9.249   7.067  10.337
 7277W        W11341   4.975   5.577   0.277
 7278W        W11342   1.768   1.397  11.259
 7279W        W11343   0.520   5.195   8.899
 7280W        W11344   5.735   9.413   0.925
 7281W        W11345   5.033   6.984  11.386
 7282W        W11346   0.880   9.893   1.689
 7283W        W11347   1.688   9.791   9.001
 7284W        W11348   8.969   6.629   9.583
 7285W        W11349   9.901   2.667  11.960
 7286W        W11350   8.117   8.571   8.607
 7287W        W11351   1.971   5.663   2.293
 7288W        W11352   7.861   7.475   9.230
 7289W        W11353   5.485   5.724   9.028
 7290W        W11354   0.300   3.566   9.983
 7291W        W11355  10.362   6.590  11.846
 7292W        W11356   3.338   3.065  11.994
 7293W        W11357   4.563   7.669   9.913
 7294W        W11358   8.415   2.113  11.977
 7295W        W11359   6.541   7.519  10.630
 7296W        W11360   2.831   2.369   2.887
 7297W        W11361   7.420   2.096   9.728
 7298W        W11362   3.646   5.024   9.607
 7299W        W11363   9.393   7.869   2.518
 7300W        W11364   5.943   8.657   0.331
 7301W        W11365   3.596   3.817   9.413
 7302W        W11366   0.258   6.508   2.135
 7303W        W11367   2.369   5.126   9.319
 7304W        W11368   9.796   8.056   1.199
 7305W        W11369   9.328  10.089   8.886
 7306W        W11370   7.368   1.765  11.984
 7307W        W11371   1.503   3.183   2.986
 7308W        W11372   0.781  10.300  10.089
 7309W        W11373   0.863   7.739   3.578
 7310W        W11374   1.238   1.306   9.081
 7311W        W11375   8.094   0.296   9.073
 7312W        W11376   5.092   0.770   0.995
 7313ION    NA+11377   6.452   4.852   8.718
 7314ION    NA+11378   1.822  10.049   2.197
 7315ION    NA+11379   7.764   7.057  11.710
 7316ION    NA+11380   9.062   5.963   1.352
 7317ION    NA+11381   5.507   3.570   9.498
 7318ION    NA+11382   7.901   4.759   0.133
 7319ION    NA+11383   5.522   4.055   0.958
 7320ION    NA+11384   6.208   1.443  10.737
 7321ION    NA+11385   2.623   8.324   9.848
 7322ION    NA+11386   2.730   4.611  10.253
 7323ION    NA+11387   1.513   2.365  10.629
 7324ION    NA+11388  10.109   4.990  11.453
 7325ION    NA+11389   2.678   0.358  10.295
 7326ION    NA+11390   0.637   9.106   9.439
 7327ION    NA+11391   5.160   4.603   2.627
 7328ION    NA+11392   4.197   8.553   0.232
 7329ION    NA+11393   7.468   4.370   2.318
 7330ION    NA+11394   1.118   7.653   2.296
 7331ION    NA+11395   8.823   0.642   9.558
 7332ION    NA+11396   3.719   2.627  10.088
 7333ION    NA+11397   7.317   1.329   1.968
 7334ION    NA+11398   4.993   3.258   0.667
 7335ION    NA+11399   4.215   5.409   0.512
 7336ION    NA+11400   0.617   8.413  11.104
 7337ION    NA+11401   0.656   2.732   1.093
 7338ION    NA+11402   8.278   1.537   1.786
 7339ION    NA+11403   0.801   2.722   9.784
 7340ION    NA+11404   1.517   2.724   0.022
 7341ION    NA+11405   7.069   9.024   9.880
 7342ION    NA+11406   8.441   6.205   3.041
 7343ION    NA+11407   2.932   9.500   2.709
 7344ION    NA+11408   8.913   9.111   2.643
 7345ION    NA+11409   2.401   2.129  11.025
 7346ION    NA+11410   0.922   5.163  11.976
 7347ION    NA+11411   9.662   2.111  11.850
 7348ION    NA+11412   7.060   7.189   0.368
 7349ION    NA+11413   2.291   1.258   9.975
 7350ION    NA+11414   4.984   4.088  11.776
 7351ION    NA+11415   6.537   7.765   9.042
 7352ION    NA+11416   8.634   8.234  11.404
 7353ION    NA+11417   2.704   6.475   0.333
 7354ION    NA+11418   1.674   5.181   2.685
 7355ION    NA+11419   5.152   8.236   0.956
 7356ION    NA+11420   5.646   6.085  11.212
 7357ION    NA+11421   3.064   7.127   9.520
 7358ION    NA+11422   6.715   9.144   3.238
 7359ION    NA+11423   1.681   7.167  10.793
 7360ION    NA+11424  10.490   1.616   9.136
 7361ION    NA+11425   1.402   8.299   0.564
 7362ION    NA+11426   7.895   8.734   9.396
 7363ION    NA+11427   8.374   9.073  10.927
 7364ION    NA+11428   4.401   1.507  11.420
 7365ION    NA+11429   3.123   2.882  11.289
 7366ION    NA+11430   3.811   3.871   0.667
 7367ION    NA+11431   7.668   7.868   1.459
 7368ION    NA+11432   9.037   5.102   2.783
 7369ION    NA+11433   6.439   1.882   2.920
 7370ION    NA+11434   3.452   8.387  11.454
 7371ION    NA+11435   9.859   9.517   1.258
 7372ION    NA+11436   6.977   3.133   2.538
 7373ION    NA+11437   6.170   2.573   1.241
 7374ION    NA+11438   4.001   2.270   0.930
 7375ION    NA+11439   5.990   9.647   9.615
 7376ION    NA+11440   9.967   9.826  11.394
 7377ION    NA+11441   9.030  10.333  10.439
 7378ION    NA+11442   1.181   9.125   0.757
 7379ION    NA+11443   8.596   7.070   2.865
 7380ION    NA+11444   3.711   1.655   3.024
 7381ION    NA+11445   6.029   6.961   8.697
 7382ION    NA+11446   6.571   0.698   0.773
 7383ION    NA+11447   8.456   6.858   0.227
 7384ION    NA+11448   7.085   6.441  11.704
 7385ION    NA+11449   1.458   4.544   8.916
 7386ION    NA+11450   1.656   0.345  10.342
 7387ION    NA+11451   2.984   3.947   0.315
 7388ION    NA+11452   2.082   0.188  11.635
 7389ION    NA+11453   3.867  10.127   0.460
 7390ION    CL-11454   5.838   5.584   2.661
 7391ION    CL-11455   8.197   9.862   1.362
 7392ION    CL-11456   6.208   0.520   0.578
 7393ION    CL-11457   6.572   1.703  10.769
 7394ION    CL-11458   7.477   7.244   9.501
 7395ION    CL-11459  10.171   8.326   0.956
 7396ION    CL-11460   4.081   5.277   9.435
 7397ION    CL-11461   1.558   7.684   2.363
 7398ION    CL-11462   1.916   5.493  10.025
 7399ION    CL-11463   9.360   7.544   3.428
 7400ION    CL-11464   5.542   2.618  11.365
 7401ION    CL-11465   2.993   9.913   8.466
 7402ION    CL-11466   4.111   6.400  10.077
 7403ION    CL-11467   2.433   4.100   3.068
 7404ION    CL-11468   1.185   8.700   0.593
 7405ION    CL-11469  10.474   5.177   9.601
 7406ION    CL-11470   9.140   9.490   2.582
 7407ION    CL-11471   2.109   8.442   3.409
 7408ION    CL-11472  10.236   7.896   0.055
 7409ION    CL-11473   0.287   1.599   0.219
 7410ION    CL-11474   7.794   7.429   1.453
 7411ION    CL-11475   7.704   8.331   9.357
 7412ION    CL-11476   2.906   2.916  11.678
 7413ION    CL-11477   4.244   5.257   0.090
 7414ION    CL-11478   0.636   8.822   9.096
 7415ION    CL-11479   1.970   6.486   1.615
 7416ION    CL-11480   7.872   6.381   9.122
 7417ION    CL-11481   7.366   6.794  11.779
 7418ION    CL-11482   5.504   7.388  11.340
 7419ION    CL-11483   2.739   2.387   3.421
 7420ION    CL-11484   0.981   4.784  11.748
 7421ION    CL-11485   0.291   3.932   0.868
 7422ION    CL-11486   8.604   6.620   2.933
 7423ION    CL-11487   1.053   8.500  11.208
 7424ION    CL-11488  10.212  10.005  11.736
 7425ION    CL-11489   7.259   6.282   1.340
 7426ION    CL-11490   9.699   6.154   3.641
 7427ION    CL-11491   3.903   1.920   1.190
 7428ION    CL-11492   2.954   3.257   2.935
 7429ION    CL-11493   6.231   4.730   9.086
 7430ION    CL-11494   4.481   1.669  11.828
 7431ION    CL-11495   1.908   0.590  11.733
 7432ION    CL-11496   7.869   2.159  10.987
 7433ION    CL-11497   9.848   8.056   9.552
 7434ION    CL-11498   9.721   9.617  11.071
 7435ION    CL-11499   6.508   9.272   2.857
 7436ION    CL-11500  10.071   2.217  11.706
 7437ION    CL-11501   3.416   3.870   0.440
 7438ION    CL-11502   2.134   3.745   2.136
 7439ION    CL-11503   8.861   7.924  11.631
 7440ION    CL-11504   3.709   1.444   2.626
 7441ION    CL-11505  10.370   3.746  10.819
 7442ION    CL-11506   7.351   8.166   1.326
 7443ION    CL-11507   6.760   1.259   9.422
 7444ION    CL-11508   4.147   4.799   1.777
 7445ION    CL-11509   9.334   5.975   1.704
 7446ION    CL-11510   0.250   8.143  11.076
 7447ION    CL-11511   6.321   6.624   1.280
 7448ION    CL-11512   8.658   0.929   9.856
 7449ION    CL-11513   8.805   3.094  11.477
 7450ION    CL-11514   9.368   0.793  11.428
 7451ION    CL-11515   4.795   8.405   9.448
 7452ION    CL-11516   0.039   0.340   0.197
 7453ION    CL-11517   5.089   4.487  11.976
 7454ION    CL-11518   3.803  10.026   9.126
 7455ION    CL-11519   1.306   4.273   2.362
 7456ION    CL-11520   8.152   7.076  11.969
 7457ION    CL-11521   9.084   1.804   3.376
 7458ION    CL-11522   3.254   7.580  10.742
 7459ION    CL-11523   9.580   6.685  10.261
 7460ION    CL-11524   4.458   8.906   0.154
 7461ION    CL-11525   7.695   5.911   2.160
 7462ION    CL-11526   1.487   4.200  10.515
 7463ION    CL-11527   0.714   6.554   2.433
 7464ION    CL-11528   8.362   5.542   8.885
 7465ION    CL-11529  10.193   4.078   8.778
 7466ION    CL-11530   5.071   3.722  11.516
  10.50000  10.50000  12.00000
