Protein in INSANE! Membrane UpperLeaflet>POPC=1.0 LowerLeaflet>POPC=1.0
10365
    1AU     AUC    1   4.991   5.100   6.132
    1AU     AUC    2   5.327   4.802   5.622
    1AU     AUC    3   5.671   5.093   5.787
    1AU     AUC    4   4.738   5.108   6.055
    1AU     AUC    5   4.938   5.324   6.308
    1AU     AUC    6   4.912   5.400   5.996
    1AU     AUC    7   5.458   5.190   5.628
    1AU     AUC    8   4.976   4.993   6.317
    1AU     AUC    9   5.323   4.737   6.252
    1AU     AUC   10   5.278   5.166   6.374
    1AU     AUC   11   5.188   5.377   6.093
    1AU     AUC   12   4.920   4.801   5.983
    1AU     AUC   13   4.779   4.878   5.629
    1AU     AUC   14   5.468   4.622   5.426
    1AU     AUC   15   5.751   4.879   5.564
    1AU     AUC   16   5.887   5.274   5.763
    1AU     AUC   17   4.451   5.150   6.054
    1AU     AUC   18   4.608   5.368   6.291
    1AU     AUC   19   4.871   5.566   6.493
    1AU     AUC   20   4.871   5.536   5.840
    1AU     AUC   21   5.075   5.479   5.602
    1AU     AUC   22   5.327   5.206   5.368
    1AU     AUC   23   4.848   4.899   6.551
    1AU     AUC   24   5.237   4.715   6.408
    1AU     AUC   25   5.563   4.670   6.188
    1AU     AUC   26   5.529   5.297   6.578
    1AU     AUC   27   5.570   5.485   6.477
    1AU     AUC   28   5.480   5.492   6.104
    1AU     AUC   29   4.812   4.507   5.885
    1AU     AUC   30   4.715   4.689   5.599
    1AU     AUC   31   4.701   4.915   5.404
    1AU     AUC   32   5.857   5.495   6.300
    1AU     AUC   33   5.750   5.520   5.851
    1AU     AUC   34   5.119   4.536   5.616
    1AU     AUC   35   5.084   4.700   5.385
    1AU     AUC   36   5.184   5.445   6.549
    1AU     AUC   37   5.200   5.602   6.377
    1AU     AUC   38   4.607   4.806   6.033
    1AU     AUC   39   4.540   5.040   5.743
    1AU     AUC   40   5.487   4.908   5.343
    1AU     AUC   41   5.636   5.248   5.530
    1AU     AUC   42   4.604   5.396   5.938
    1AU     AUC   43   4.837   5.595   6.227
    1AU     AUC   44   5.511   4.648   5.780
    1AU     AUC   45   5.762   4.908   5.949
    1AU     AUC   46   4.597   5.012   6.354
    1AU     AUC   47   4.797   5.255   6.531
    1AU     AUC   48   5.213   5.494   6.025
    1AU     AUC   49   5.381   5.426   5.745
    1AU     AUC   50   5.189   5.068   6.572
    1AU     AUC   51   5.553   4.976   6.427
    1AU     AUC   52   4.689   5.284   5.580
    1AU     AUC   53   5.038   5.026   5.310
    1AU     AUC   54   4.841   4.678   6.237
    1AU     AUC   55   5.115   4.653   5.976
    1AU    AUSL   56   5.984   5.572   6.074
    1AU    AUSL   57   5.909   5.194   6.616
    1AU     AUL   58   6.232   5.261   6.533
    1AU       S   59   6.043   5.531   6.855
    1AU     LIG   60   6.156   5.170   7.108
    1AU     LIG   61   6.175   4.877   7.528
    1AU     LIG   62   5.790   4.753   7.758
    1AU       S   63   6.458   5.320   6.128
    1AU     LIG   64   6.595   5.363   5.706
    1AU     LIG   65   6.378   5.365   5.302
    1AU     LIG   66   6.498   5.105   4.908
    1AU    AUSL   67   5.793   5.572   6.458
    1AU    AUSL   68   5.535   5.931   6.508
    1AU     AUL   69   5.880   5.951   6.460
    1AU       S   70   6.470   5.098   6.191
    1AU     LIG   71   6.666   4.411   5.875
    1AU     LIG   72   6.462   4.096   5.395
    1AU     LIG   73   6.236   3.992   4.966
    1AU       S   74   5.408   5.822   7.170
    1AU     LIG   75   5.006   5.504   7.584
    1AU     LIG   76   4.528   5.233   7.702
    1AU     LIG   77   4.008   5.197   7.606
    1AU    AUSL   78   6.000   5.152   6.181
    1AU    AUSL   79   5.891   5.625   5.612
    1AU     AUL   80   6.186   5.681   5.950
    1AU       S   81   6.234   4.844   6.286
    1AU     LIG   82   6.117   4.242   6.186
    1AU     LIG   83   5.840   3.836   5.847
    1AU     LIG   84   5.545   3.546   5.515
    1AU       S   85   5.495   5.956   5.382
    1AU     LIG   86   5.278   6.117   4.920
    1AU     LIG   87   5.525   6.261   4.626
    1AU     LIG   88   5.940   6.129   4.481
    1AU    AUSL   89   5.168   4.353   5.158
    1AU    AUSL   90   5.001   4.729   5.245
    1AU     AUL   91   5.284   4.437   4.893
    1AU       S   92   4.889   4.437   4.681
    1AU     LIG   93   5.443   4.651   4.453
    1AU     LIG   94   5.930   4.956   4.516
    1AU     LIG   95   6.046   5.327   4.846
    1AU       S   96   4.999   4.032   5.713
    1AU     LIG   97   4.235   4.531   6.489
    1AU     LIG   98   3.813   5.149   6.800
    1AU     LIG   99   3.621   5.736   6.693
    1AU    AUSL  100   4.807   4.355   5.447
    1AU    AUSL  101   5.387   4.328   5.517
    1AU     AUL  102   4.973   4.229   5.243
    1AU       S  103   4.656   3.885   5.477
    1AU     LIG  104   4.670   3.546   5.945
    1AU     LIG  105   5.045   3.643   6.557
    1AU     LIG  106   5.639   3.746   6.872
    1AU       S  107   4.827   4.330   4.827
    1AU     LIG  108   5.387   3.951   4.933
    1AU     LIG  109   5.928   3.807   5.335
    1AU     LIG  110   6.302   3.892   5.789
    1AU    AUSL  111   4.611   4.623   5.162
    1AU    AUSL  112   4.546   4.489   5.750
    1AU     AUL  113   4.452   4.360   5.360
    1AU       S  114   4.271   4.199   6.191
    1AU     LIG  115   4.271   4.704   6.914
    1AU     LIG  116   4.342   5.130   7.217
    1AU     LIG  117   4.265   5.611   7.517
    1AU       S  118   4.962   4.595   4.570
    1AU     LIG  119   5.512   5.113   4.266
    1AU     LIG  120   5.734   5.630   4.586
    1AU     LIG  121   5.769   5.964   4.958
    1AU    AUSL  122   5.149   5.719   6.522
    1AU    AUSL  123   5.440   5.728   6.161
    1AU     AUL  124   5.232   6.062   6.327
    1AU       S  125   5.236   5.640   7.159
    1AU     LIG  126   4.858   5.115   7.355
    1AU     LIG  127   4.840   4.538   7.656
    1AU     LIG  128   4.675   4.081   7.667
    1AU       S  129   5.594   5.292   7.075
    1AU     LIG  130   5.576   4.463   7.418
    1AU     LIG  131   5.379   4.114   7.080
    1AU     LIG  132   5.198   3.643   7.051
    1AU    AUSL  133   5.483   5.606   6.772
    1AU    AUSL  134   4.759   5.855   6.634
    1AU     AUL  135   5.150   5.929   6.784
    1AU       S  136   4.704   5.950   7.003
    1AU     LIG  137   4.608   6.324   6.593
    1AU     LIG  138   4.418   6.652   6.167
    1AU     LIG  139   4.126   6.799   5.762
    1AU       S  140   5.216   5.562   7.154
    1AU     LIG  141   4.750   4.752   7.068
    1AU     LIG  142   4.805   3.997   6.874
    1AU     LIG  143   4.725   3.500   6.930
    1AU    AUSL  144   4.378   4.865   5.879
    1AU    AUSL  145   4.564   4.555   6.169
    1AU     AUL  146   4.304   4.543   5.815
    1AU       S  147   4.192   4.256   6.147
    1AU     LIG  148   4.427   4.272   6.844
    1AU     LIG  149   4.921   4.265   7.220
    1AU     LIG  150   5.178   4.127   7.551
    1AU       S  151   3.999   4.704   6.137
    1AU     LIG  152   3.848   4.673   6.678
    1AU     LIG  153   3.871   4.835   7.170
    1AU     LIG  154   4.173   4.748   7.491
    1AU    AUSL  155   4.358   4.814   5.454
    1AU    AUSL  156   4.179   5.241   5.830
    1AU     AUL  157   4.086   4.911   5.619
    1AU       S  158   3.953   5.320   5.762
    1AU     LIG  159   3.593   4.989   6.382
    1AU     LIG  160   3.114   4.773   6.544
    1AU     LIG  161   3.011   4.598   6.976
    1AU       S  162   4.022   4.253   5.980
    1AU     LIG  163   3.994   4.135   6.595
    1AU     LIG  164   4.004   4.334   7.095
    1AU     LIG  165   3.756   4.446   7.472
    1AU    AUSL  166   5.564   5.127   5.160
    1AU    AUSL  167   5.464   4.658   5.224
    1AU     AUL  168   5.644   4.756   4.862
    1AU       S  169   5.289   3.922   5.391
    1AU     LIG  170   5.719   4.221   5.181
    1AU     LIG  171   6.077   4.473   4.958
    1AU     LIG  172   6.343   4.687   4.645
    1AU       S  173   5.513   5.298   4.887
    1AU     LIG  174   5.265   5.540   4.440
    1AU     LIG  175   5.523   5.857   4.213
    1AU     LIG  176   5.549   6.314   4.136
    1AU    AUSL  177   5.859   4.825   5.237
    1AU    AUSL  178   6.040   4.888   5.635
    1AU     AUL  179   6.174   4.911   5.244
    1AU       S  180   5.574   5.196   4.718
    1AU     LIG  181   5.106   5.040   4.467
    1AU     LIG  182   5.079   4.658   4.108
    1AU     LIG  183   5.264   4.228   4.250
    1AU       S  184   6.299   4.557   5.550
    1AU     LIG  185   6.720   4.463   5.247
    1AU     LIG  186   6.723   4.361   4.809
    1AU     LIG  187   6.453   4.219   4.447
    1AU    AUSL  188   5.890   5.247   5.406
    1AU    AUSL  189   5.410   5.492   5.331
    1AU     AUL  190   5.767   5.539   5.214
    1AU       S  191   5.284   5.761   5.259
    1AU     LIG  192   4.779   6.149   5.129
    1AU     LIG  193   4.160   6.326   5.565
    1AU     LIG  194   3.946   6.385   5.996
    1AU       S  195   5.344   5.421   4.886
    1AU     LIG  196   4.445   5.469   4.756
    1AU     LIG  197   3.951   5.187   4.737
    1AU     LIG  198   3.645   4.867   4.961
    1AU    AUSL  199   4.375   5.744   6.305
    1AU    AUSL  200   4.894   5.546   6.848
    1AU     AUL  201   4.336   5.807   6.736
    1AU       S  202   5.342   5.203   7.370
    1AU     LIG  203   4.977   4.988   7.803
    1AU     LIG  204   4.474   4.711   7.906
    1AU     LIG  205   4.206   4.298   7.723
    1AU       S  206   4.044   5.899   6.341
    1AU     LIG  207   3.423   5.426   6.338
    1AU     LIG  208   3.276   4.795   6.092
    1AU     LIG  209   3.406   4.317   5.928
    1AU    AUSL  210   4.461   5.527   5.961
    1AU    AUSL  211   4.548   5.668   5.579
    1AU     AUL  212   4.230   5.653   5.893
    1AU       S  213   3.964   5.895   6.147
    1AU     LIG  214   3.677   5.580   5.467
    1AU     LIG  215   3.496   5.375   5.059
    1AU     LIG  216   3.424   5.163   4.620
    1AU       S  217   4.200   5.683   5.428
    1AU     LIG  218   3.951   5.638   4.988
    1AU     LIG  219   3.629   5.643   4.645
    1AU     LIG  220   3.163   5.594   4.703
    1AU    AUSL  221   4.782   5.785   6.220
    1AU    AUSL  222   4.309   5.316   6.279
    1AU     AUL  223   4.601   5.882   5.969
    1AU       S  224   4.012   5.422   6.241
    1AU     LIG  225   3.892   5.928   5.706
    1AU     LIG  226   3.890   6.058   5.254
    1AU     LIG  227   3.970   6.145   4.805
    1AU       S  228   4.344   6.184   6.208
    1AU     LIG  229   4.792   6.321   5.985
    1AU     LIG  230   5.040   6.313   5.550
    1AU     LIG  231   5.369   6.482   5.249
    1AU    AUSL  232   5.899   4.643   5.977
    1AU    AUSL  233   6.133   5.267   5.809
    1AU     AUL  234   6.234   4.931   5.828
    1AU       S  235   6.221   4.473   5.793
    1AU     LIG  236   6.708   4.876   5.851
    1AU     LIG  237   7.105   5.078   6.013
    1AU     LIG  238   7.227   5.323   6.391
    1AU       S  239   6.290   5.691   6.418
    1AU     LIG  240   6.712   5.528   6.492
    1AU     LIG  241   6.900   5.575   6.091
    1AU     LIG  242   6.699   5.857   5.795
    1AU    AUSL  243   5.777   4.535   5.548
    1AU    AUSL  244   5.490   4.507   5.890
    1AU     AUL  245   5.789   4.293   5.749
    1AU       S  246   6.136   4.462   5.452
    1AU     LIG  247   6.613   4.906   5.386
    1AU     LIG  248   7.014   5.157   5.506
    1AU     LIG  249   7.165   5.587   5.656
    1AU       S  250   4.539   4.051   5.832
    1AU     LIG  251   3.727   4.386   6.308
    1AU     LIG  252   3.453   4.804   6.864
    1AU     LIG  253   3.115   5.097   7.072
    1AU    AUSL  254   4.411   5.089   6.688
    1AU    AUSL  255   4.369   4.907   6.296
    1AU     AUL  256   4.167   5.061   6.542
    1AU       S  257   4.009   4.855   6.160
    1AU     LIG  258   3.545   5.146   5.921
    1AU     LIG  259   3.246   5.456   5.652
    1AU     LIG  260   2.808   5.408   5.538
    1AU       S  261   3.917   5.467   6.462
    1AU     LIG  262   3.544   6.052   6.094
    1AU     LIG  263   3.629   6.355   5.626
    1AU     LIG  264   3.846   6.636   5.304
    1AU    AUSL  265   4.584   5.457   6.564
    1AU    AUSL  266   4.820   5.115   6.802
    1AU     AUL  267   4.474   5.391   6.825
    1AU       S  268   4.640   5.543   7.225
    1AU     LIG  269   4.060   5.528   7.069
    1AU     LIG  270   3.515   5.444   7.065
    1AU     LIG  271   3.106   5.480   6.731
    1AU       S  272   3.874   5.363   6.271
    1AU     LIG  273   3.685   4.717   5.795
    1AU     LIG  274   3.829   4.229   5.561
    1AU     LIG  275   4.080   3.813   5.824
    1AU    AUSL  276   5.571   5.291   6.118
    1AU    AUSL  277   5.098   5.805   5.936
    1AU     AUL  278   5.586   5.919   6.039
    1AU       S  279   5.672   5.307   7.022
    1AU     LIG  280   6.039   4.688   7.096
    1AU     LIG  281   6.194   4.357   6.712
    1AU     LIG  282   6.579   4.270   6.381
    1AU       S  283   5.279   4.239   6.586
    1AU     LIG  284   5.474   3.584   6.017
    1AU     LIG  285   5.802   3.303   5.842
    1AU     LIG  286   5.961   3.253   5.434
    1AU    AUSL  287   5.341   5.004   5.983
    1AU    AUSL  288   5.127   5.136   5.307
    1AU     AUL  289   5.238   4.329   6.157
    1AU       S  290   5.174   4.182   6.575
    1AU     LIG  291   5.055   3.793   6.092
    1AU     LIG  292   5.037   3.516   5.626
    1AU     LIG  293   4.729   3.426   5.233
    1AU       S  294   4.891   5.304   4.810
    1AU     LIG  295   4.339   4.891   4.890
    1AU     LIG  296   3.999   4.600   5.198
    1AU     LIG  297   3.497   4.538   5.352
    1AU    AUSL  298   5.072   5.170   5.710
    1AU    AUSL  299   5.472   5.632   5.726
    1AU     AUL  300   5.073   5.113   5.728
    1AU       S  301   5.078   5.820   5.243
    1AU     LIG  302   4.231   5.258   5.139
    1AU     LIG  303   3.650   5.072   5.425
    1AU     LIG  304   3.114   4.997   5.672
    1AU       S  305   5.028   4.109   6.478
    1AU     LIG  306   4.392   3.834   6.674
    1AU     LIG  307   3.899   3.858   6.971
    1AU     LIG  308   3.537   4.269   6.957
    1AU    AUSL  309   5.532   5.016   6.715
    1AU    AUSL  310   5.751   4.856   6.347
    1AU     AUL  311   5.915   4.868   6.695
    1AU       S  312   5.604   4.850   7.178
    1AU     LIG  313   5.461   5.128   7.810
    1AU     LIG  314   5.195   5.537   8.036
    1AU     LIG  315   4.784   5.820   7.906
    1AU       S  316   6.102   5.603   6.784
    1AU     LIG  317   6.299   6.043   6.763
    1AU     LIG  318   6.179   6.355   6.447
    1AU     LIG  319   5.955   6.307   6.050
    1AU    AUSL  320   5.135   4.822   6.734
    1AU    AUSL  321   5.216   5.279   6.801
    1AU     AUL  322   5.147   5.029   7.005
    1AU       S  323   5.528   4.778   7.095
    1AU     LIG  324   5.814   5.195   7.479
    1AU     LIG  325   5.889   5.648   7.320
    1AU     LIG  326   5.823   5.979   6.966
    1AU       S  327   4.797   5.780   7.222
    1AU     LIG  328   5.135   5.970   7.551
    1AU     LIG  329   5.505   5.678   7.655
    1AU     LIG  330   5.833   5.487   7.931
    1AU    AUSL  331   5.508   4.601   6.634
    1AU    AUSL  332   4.973   4.548   6.435
    1AU     AUL  333   5.098   4.557   6.843
    1AU       S  334   5.565   3.949   6.423
    1AU     LIG  335   5.499   3.455   6.532
    1AU     LIG  336   5.921   3.289   6.673
    1AU     LIG  337   6.268   3.605   6.794
    1AU       S  338   5.565   4.581   6.938
    1AU     LIG  339   5.139   4.671   7.327
    1AU     LIG  340   4.501   4.433   7.325
    1AU     LIG  341   4.352   3.981   7.247
    1AU    AUSL  342   4.709   5.102   5.169
    1AU    AUSL  343   5.238   4.925   4.959
    1AU     AUL  344   4.938   4.857   4.932
    1AU       S  345   4.671   5.092   4.660
    1AU     LIG  346   4.355   4.430   4.803
    1AU     LIG  347   4.134   4.021   5.200
    1AU     LIG  348   4.270   3.561   5.441
    1AU       S  349   5.076   4.008   5.608
    1AU     LIG  350   4.636   3.880   6.262
    1AU     LIG  351   4.562   3.432   6.448
    1AU     LIG  352   4.304   3.093   6.709
    1AU    AUSL  353   4.897   5.478   5.444
    1AU    AUSL  354   4.483   5.234   5.514
    1AU     AUL  355   4.591   5.520   5.224
    1AU       S  356   4.890   5.500   4.892
    1AU     LIG  357   4.410   5.895   4.963
    1AU     LIG  358   4.331   6.363   5.126
    1AU     LIG  359   4.552   6.603   5.639
    1AU       S  360   4.130   5.536   5.464
    1AU     LIG  361   4.566   6.113   5.534
    1AU     LIG  362   4.745   6.617   5.211
    1AU     LIG  363   4.329   6.873   5.263
    1AU    AUSL  364   4.847   4.248   6.088
    1AU    AUSL  365   4.624   4.724   6.589
    1AU     AUL  366   4.645   4.338   6.449
    1AU       S  367   3.961   4.939   6.116
    1AU     LIG  368   3.626   5.601   5.946
    1AU     LIG  369   3.390   5.939   5.565
    1AU     LIG  370   3.449   5.894   5.074
    1AU       S  371   5.424   3.894   6.322
    1AU     LIG  372   5.128   3.320   6.208
    1AU     LIG  373   4.859   3.094   5.894
    1AU     LIG  374   4.882   2.968   5.472
    1AU    AUSL  375   5.629   4.401   6.271
    1AU    AUSL  376   5.064   4.450   5.781
    1AU     AUL  377   5.417   4.079   5.890
    1AU       S  378   5.676   4.118   6.303
    1AU     LIG  379   5.897   3.602   6.279
    1AU     LIG  380   5.618   3.097   6.237
    1AU     LIG  381   5.455   2.901   5.838
    1AU       S  382   4.550   4.013   5.656
    1AU     LIG  383   4.581   3.979   5.031
    1AU     LIG  384   4.715   3.910   4.580
    1AU     LIG  385   5.143   3.786   4.483
    2POPC   NC3  386   3.500   1.408   8.155
    2POPC   PO4  387   3.109   0.812   8.181
    2POPC   GL1  388   3.347   0.849   7.769
    2POPC   GL2  389   3.532   1.156   7.694
    2POPC   C1A  390   3.173   0.895   7.334
    2POPC   D2A  391   3.160   0.984   6.890
    2POPC   C3A  392   3.433   0.986   6.485
    2POPC   C4A  393   3.368   0.937   6.023
    2POPC   C1B  394   3.481   1.298   7.248
    2POPC   C2B  395   3.492   1.385   6.795
    2POPC   C3B  396   3.788   1.377   6.436
    2POPC   C4B  397   3.814   1.203   6.020
    3POPC   NC3  398   7.265   0.299   8.140
    3POPC   PO4  399   7.852   9.940   8.013
    3POPC   GL1  400   7.549   0.167   7.729
    3POPC   GL2  401   7.376   0.528   7.700
    3POPC   C1A  402   7.409   0.192   7.314
    3POPC   D2A  403   7.506   0.467   6.951
    3POPC   C3A  404   7.358   0.392   6.549
    3POPC   C4A  405   7.408   0.105   6.204
    3POPC   C1B  406   7.162   0.657   7.327
    3POPC   C2B  407   7.217   0.862   6.948
    3POPC   C3B  408   7.125   0.864   6.517
    3POPC   C4B  409   7.282   0.764   6.104
    4POPC   NC3  410   1.084   1.425   8.170
    4POPC   PO4  411   0.710   0.809   8.087
    4POPC   GL1  412   0.869   1.100   7.793
    4POPC   GL2  413   1.208   1.037   7.855
    4POPC   C1A  414   1.108   1.281   7.413
    4POPC   D2A  415   1.351   1.400   7.022
    4POPC   C3A  416   1.206   1.312   6.590
    4POPC   C4A  417   1.015   1.441   6.171
    4POPC   C1B  418   1.306   0.811   7.501
    4POPC   C2B  419   1.271   0.866   7.071
    4POPC   C3B  420   1.473   0.788   6.687
    4POPC   C4B  421   1.375   0.945   6.294
    5POPC   NC3  422   0.669   5.118   8.085
    5POPC   PO4  423   0.107   4.645   7.937
    5POPC   GL1  424   0.481   4.788   7.639
    5POPC   GL2  425   0.633   5.116   7.594
    5POPC   C1A  426   0.597   4.897   7.152
    5POPC   D2A  427   0.429   5.023   6.727
    5POPC   C3A  428   0.689   4.978   6.320
    5POPC   C4A  429   0.849   4.849   5.901
    5POPC   C1B  430   0.447   5.392   7.307
    5POPC   C2B  431   0.127   5.378   7.007
    5POPC   C3B  432   0.037   5.356   6.597
    5POPC   C4B  433   0.199   5.124   6.252
    6POPC   NC3  434   6.279   7.556   8.603
    6POPC   PO4  435   5.751   7.716   8.149
    6POPC   GL1  436   5.647   8.040   7.780
    6POPC   GL2  437   5.616   8.408   7.854
    6POPC   C1A  438   5.713   8.114   7.302
    6POPC   D2A  439   5.513   8.054   6.874
    6POPC   C3A  440   5.778   7.946   6.495
    6POPC   C4A  441   6.210   7.773   6.461
    6POPC   C1B  442   5.421   8.539   7.457
    6POPC   C2B  443   5.632   8.538   7.028
    6POPC   C3B  444   5.646   8.435   6.571
    6POPC   C4B  445   5.745   8.419   6.099
    7POPC   NC3  446   0.327   8.140   8.232
    7POPC   PO4  447   0.864   7.689   8.161
    7POPC   GL1  448   0.488   7.864   7.840
    7POPC   GL2  449   0.383   8.264   7.745
    7POPC   C1A  450   0.232   7.891   7.443
    7POPC   D2A  451   0.394   7.859   7.015
    7POPC   C3A  452   0.137   7.927   6.627
    7POPC   C4A  453   0.175   7.743   6.210
    7POPC   C1B  454   0.468   8.323   7.271
    7POPC   C2B  455   0.451   8.315   6.790
    7POPC   C3B  456   0.558   8.156   6.379
    7POPC   C4B  457   0.829   8.331   6.016
    8POPC   NC3  458   8.582   6.431   8.146
    8POPC   PO4  459   9.249   6.301   8.356
    8POPC   GL1  460   9.083   6.437   7.933
    8POPC   GL2  461   8.940   6.760   7.802
    8POPC   C1A  462   8.912   6.357   7.498
    8POPC   D2A  463   8.661   6.546   7.152
    8POPC   C3A  464   8.845   6.479   6.747
    8POPC   C4A  465   8.988   6.436   6.308
    8POPC   C1B  466   8.962   6.927   7.324
    8POPC   C2B  467   9.087   6.926   6.845
    8POPC   C3B  468   8.833   6.915   6.446
    8POPC   C4B  469   8.663   6.777   6.041
    9POPC   NC3  470   2.575   6.232   8.066
    9POPC   PO4  471   2.699   6.857   8.128
    9POPC   GL1  472   2.546   6.640   7.736
    9POPC   GL2  473   2.778   6.373   7.629
    9POPC   C1A  474   2.400   6.702   7.309
    9POPC   D2A  475   2.531   6.592   6.873
    9POPC   C3A  476   2.452   6.825   6.550
    9POPC   C4A  477   2.567   7.045   6.227
    9POPC   C1B  478   2.897   6.616   7.260
    9POPC   C2B  479   3.026   6.712   6.830
    9POPC   C3B  480   2.948   6.718   6.374
    9POPC   C4B  481   2.750   6.656   5.977
   10POPC   NC3  482   7.535   9.594   7.988
   10POPC   PO4  483   6.962   9.887   8.161
   10POPC   GL1  484   7.143   9.847   7.726
   10POPC   GL2  485   7.194   9.489   7.632
   10POPC   C1A  486   7.040   9.832   7.271
   10POPC   D2A  487   7.140   0.078   6.897
   10POPC   C3A  488   7.043   9.940   6.513
   10POPC   C4A  489   6.883   9.937   6.097
   10POPC   C1B  490   7.493   9.600   7.288
   10POPC   C2B  491   7.370   9.603   6.845
   10POPC   C3B  492   7.427   9.586   6.395
   10POPC   C4B  493   7.678   9.685   6.008
   11POPC   NC3  494   8.093   4.835   8.061
   11POPC   PO4  495   8.029   4.165   8.339
   11POPC   GL1  496   8.191   4.327   7.894
   11POPC   GL2  497   8.516   4.405   7.780
   11POPC   C1A  498   8.234   4.178   7.426
   11POPC   D2A  499   8.213   4.016   6.972
   11POPC   C3A  500   8.200   4.203   6.517
   11POPC   C4A  501   7.913   4.225   6.139
   11POPC   C1B  502   8.635   4.542   7.341
   11POPC   C2B  503   8.614   4.370   6.910
   11POPC   C3B  504   8.613   4.529   6.474
   11POPC   C4B  505   8.330   4.523   6.124
   12POPC   NC3  506   3.323   2.051   8.262
   12POPC   PO4  507   3.778   2.562   8.162
   12POPC   GL1  508   3.587   2.233   7.869
   12POPC   GL2  509   3.424   1.893   7.797
   12POPC   C1A  510   3.551   2.241   7.418
   12POPC   D2A  511   3.362   2.489   7.062
   12POPC   C3A  512   3.436   2.335   6.642
   12POPC   C4A  513   3.558   2.259   6.221
   12POPC   C1B  514   3.715   1.703   7.501
   12POPC   C2B  515   3.802   1.715   7.047
   12POPC   C3B  516   3.659   1.849   6.615
   12POPC   C4B  517   3.238   1.861   6.430
   13POPC   NC3  518   9.250   5.940   8.081
   13POPC   PO4  519   9.517   5.354   8.182
   13POPC   GL1  520   9.317   5.503   7.828
   13POPC   GL2  521   9.524   5.726   7.650
   13POPC   C1A  522   9.036   5.528   7.468
   13POPC   D2A  523   9.049   5.345   7.039
   13POPC   C3A  524   9.075   5.690   6.736
   13POPC   C4A  525   9.197   5.943   6.350
   13POPC   C1B  526   9.279   5.934   7.279
   13POPC   C2B  527   8.842   6.009   7.091
   13POPC   C3B  528   8.679   6.000   6.657
   13POPC   C4B  529   8.533   6.197   6.294
   14POPC   NC3  530   1.991   4.393   8.363
   14POPC   PO4  531   1.426   4.243   8.037
   14POPC   GL1  532   1.687   4.322   7.730
   14POPC   GL2  533   1.929   4.531   7.868
   14POPC   C1A  534   1.687   4.347   7.292
   14POPC   D2A  535   1.636   4.148   6.874
   14POPC   C3A  536   1.749   4.400   6.526
   14POPC   C4A  537   1.804   4.201   6.124
   14POPC   C1B  538   2.149   4.270   7.536
   14POPC   C2B  539   2.107   4.108   7.085
   14POPC   C3B  540   2.124   4.067   6.610
   14POPC   C4B  541   2.251   4.390   6.293
   15POPC   NC3  542   4.344   9.066   8.179
   15POPC   PO4  543   3.912   8.562   8.270
   15POPC   GL1  544   3.916   8.811   7.801
   15POPC   GL2  545   4.080   9.138   7.734
   15POPC   C1A  546   3.777   8.997   7.355
   15POPC   D2A  547   3.895   8.854   6.929
   15POPC   C3A  548   4.176   9.045   6.584
   15POPC   C4A  549   4.172   9.250   6.114
   15POPC   C1B  550   4.272   8.906   7.361
   15POPC   C2B  551   4.520   8.648   7.098
   15POPC   C3B  552   4.570   8.694   6.655
   15POPC   C4B  553   4.515   8.851   6.229
   16POPC   NC3  554   0.341   1.166   7.923
   16POPC   PO4  555   0.677   1.670   8.074
   16POPC   GL1  556   0.434   1.639   7.671
   16POPC   GL2  557   0.133   1.424   7.552
   16POPC   C1A  558   0.609   1.413   7.288
   16POPC   D2A  559   0.871   1.206   6.960
   16POPC   C3A  560   0.700   1.235   6.527
   16POPC   C4A  561   0.400   1.516   6.332
   16POPC   C1B  562   0.220   1.049   7.293
   16POPC   C2B  563   0.350   1.143   6.887
   16POPC   C3B  564   0.208   1.055   6.469
   16POPC   C4B  565   0.161   0.976   6.019
   17POPC   NC3  566   7.967   5.776   8.139
   17POPC   PO4  567   8.639   5.895   8.087
   17POPC   GL1  568   8.342   5.804   7.780
   17POPC   GL2  569   8.175   6.157   7.827
   17POPC   C1A  570   8.504   5.637   7.374
   17POPC   D2A  571   8.587   5.546   6.923
   17POPC   C3A  572   8.251   5.429   6.627
   17POPC   C4A  573   8.076   5.535   6.207
   17POPC   C1B  574   8.416   6.159   7.405
   17POPC   C2B  575   8.312   6.218   6.931
   17POPC   C3B  576   8.149   5.962   6.531
   17POPC   C4B  577   7.923   6.033   6.102
   18POPC   NC3  578   5.768   0.407   8.367
   18POPC   PO4  579   6.228   9.893   8.325
   18POPC   GL1  580   6.039   0.283   7.952
   18POPC   GL2  581   5.715   0.503   7.881
   18POPC   C1A  582   5.866   0.269   7.467
   18POPC   D2A  583   5.984   9.997   7.103
   18POPC   C3A  584   6.101   0.073   6.667
   18POPC   C4A  585   5.919   0.040   6.278
   18POPC   C1B  586   5.541   0.657   7.472
   18POPC   C2B  587   5.762   0.742   7.065
   18POPC   C3B  588   5.783   0.511   6.644
   18POPC   C4B  589   5.980   0.533   6.227
   19POPC   NC3  590   9.554   6.589   8.143
   19POPC   PO4  591   0.229   6.267   8.160
   19POPC   GL1  592   9.968   6.495   7.801
   19POPC   GL2  593   9.810   6.787   7.754
   19POPC   C1A  594   9.814   6.536   7.301
   19POPC   D2A  595   9.871   6.433   6.824
   19POPC   C3A  596   9.863   6.613   6.370
   19POPC   C4A  597   9.940   6.424   5.910
   19POPC   C1B  598   9.403   6.759   7.515
   19POPC   C2B  599   9.265   6.520   7.124
   19POPC   C3B  600   9.380   6.540   6.658
   19POPC   C4B  601   9.326   6.863   6.331
   20POPC   NC3  602   9.599   0.941   8.462
   20POPC   PO4  603   9.960   1.413   8.054
   20POPC   GL1  604   9.639   1.350   7.731
   20POPC   GL2  605   9.296   1.251   7.850
   20POPC   C1A  606   9.696   1.228   7.303
   20POPC   D2A  607   9.837   0.975   6.947
   20POPC   C3A  608   9.707   1.083   6.523
   20POPC   C4A  609   9.695   0.816   6.151
   20POPC   C1B  610   9.171   1.163   7.406
   20POPC   C2B  611   9.312   1.144   6.943
   20POPC   C3B  612   9.388   1.474   6.598
   20POPC   C4B  613   9.489   1.563   6.145
   21POPC   NC3  614   1.921   8.026   8.056
   21POPC   PO4  615   2.371   7.545   8.099
   21POPC   GL1  616   2.209   7.779   7.681
   21POPC   GL2  617   1.881   8.039   7.559
   21POPC   C1A  618   2.283   7.950   7.280
   21POPC   D2A  619   2.025   7.938   6.903
   21POPC   C3A  620   2.289   7.926   6.537
   21POPC   C4A  621   2.457   8.082   6.138
   21POPC   C1B  622   1.497   8.306   7.400
   21POPC   C2B  623   1.348   8.275   6.956
   21POPC   C3B  624   1.651   8.189   6.606
   21POPC   C4B  625   1.970   8.220   6.282
   22POPC   NC3  626   4.161   1.509   8.193
   22POPC   PO4  627   4.706   1.130   8.417
   22POPC   GL1  628   4.598   1.351   7.986
   22POPC   GL2  629   4.293   1.185   7.831
   22POPC   C1A  630   4.624   1.304   7.467
   22POPC   D2A  631   4.411   1.035   7.115
   22POPC   C3A  632   4.569   0.988   6.657
   22POPC   C4A  633   4.718   1.242   6.255
   22POPC   C1B  634   4.002   1.270   7.492
   22POPC   C2B  635   3.937   1.220   7.034
   22POPC   C3B  636   3.980   0.955   6.668
   22POPC   C4B  637   4.218   1.042   6.284
   23POPC   NC3  638   7.730   7.017   8.084
   23POPC   PO4  639   8.329   7.504   8.151
   23POPC   GL1  640   8.075   7.307   7.851
   23POPC   GL2  641   8.239   7.463   7.619
   23POPC   C1A  642   7.963   7.114   7.409
   23POPC   D2A  643   8.042   7.255   6.962
   23POPC   C3A  644   7.905   7.004   6.573
   23POPC   C4A  645   7.674   7.017   6.173
   23POPC   C1B  646   8.297   7.675   7.261
   23POPC   C2B  647   8.451   7.598   6.864
   23POPC   C3B  648   8.296   7.660   6.434
   23POPC   C4B  649   8.267   7.409   6.039
   24POPC   NC3  650   9.233   3.505   8.031
   24POPC   PO4  651   8.747   3.957   8.023
   24POPC   GL1  652   8.862   3.671   7.720
   24POPC   GL2  653   8.804   3.288   7.822
   24POPC   C1A  654   9.168   3.750   7.387
   24POPC   D2A  655   9.362   3.562   7.019
   24POPC   C3A  656   9.125   3.684   6.644
   24POPC   C4A  657   8.828   3.591   6.312
   24POPC   C1B  658   9.049   3.274   7.431
   24POPC   C2B  659   8.895   3.330   6.999
   24POPC   C3B  660   8.994   3.177   6.584
   24POPC   C4B  661   8.790   3.072   6.200
   25POPC   NC3  662   0.197   1.804   8.139
   25POPC   PO4  663   0.460   2.219   8.476
   25POPC   GL1  664   0.402   2.162   7.876
   25POPC   GL2  665   0.685   2.106   7.666
   25POPC   C1A  666   0.195   2.123   7.439
   25POPC   D2A  667   9.961   2.172   7.010
   25POPC   C3A  668   0.153   2.005   6.621
   25POPC   C4A  669   0.183   1.999   6.157
   25POPC   C1B  670   0.681   2.141   7.206
   25POPC   C2B  671   0.649   2.117   6.753
   25POPC   C3B  672   0.656   1.968   6.345
   25POPC   C4B  673   0.601   1.745   5.925
   26POPC   NC3  674   9.882   4.370   8.238
   26POPC   PO4  675   9.360   4.724   7.941
   26POPC   GL1  676   9.675   4.556   7.685
   26POPC   GL2  677   9.837   4.213   7.758
   26POPC   C1A  678   9.643   4.648   7.255
   26POPC   D2A  679   9.417   4.550   6.874
   26POPC   C3A  680   9.585   4.511   6.459
   26POPC   C4A  681   9.547   4.658   6.038
   26POPC   C1B  682   9.930   4.227   7.324
   26POPC   C2B  683   9.901   4.373   6.896
   26POPC   C3B  684   0.019   4.197   6.516
   26POPC   C4B  685   9.932   3.823   6.264
   27POPC   NC3  686   7.288   0.947   8.144
   27POPC   PO4  687   7.734   1.369   7.860
   27POPC   GL1  688   7.305   1.348   7.693
   27POPC   GL2  689   7.120   1.032   7.682
   27POPC   C1A  690   7.194   1.287   7.245
   27POPC   D2A  691   7.344   1.322   6.794
   27POPC   C3A  692   7.025   1.349   6.453
   27POPC   C4A  693   7.028   1.202   5.982
   27POPC   C1B  694   7.553   0.937   7.437
   27POPC   C2B  695   7.750   0.932   7.021
   27POPC   C3B  696   7.636   0.874   6.594
   27POPC   C4B  697   7.489   1.196   6.305
   28POPC   NC3  698   9.303   4.958   8.330
   28POPC   PO4  699   8.619   4.923   8.086
   28POPC   GL1  700   8.894   4.780   7.710
   28POPC   GL2  701   9.101   5.064   7.666
   28POPC   C1A  702   9.087   4.788   7.231
   28POPC   D2A  703   8.966   4.743   6.762
   28POPC   C3A  704   9.146   4.844   6.334
   28POPC   C4A  705   9.100   4.760   5.866
   28POPC   C1B  706   8.724   5.130   7.394
   28POPC   C2B  707   8.606   5.016   6.985
   28POPC   C3B  708   8.743   5.184   6.568
   28POPC   C4B  709   8.658   5.582   6.354
   29POPC   NC3  710   6.022   8.885   8.446
   29POPC   PO4  711   5.466   9.246   8.274
   29POPC   GL1  712   5.692   9.232   7.895
   29POPC   GL2  713   5.870   8.915   7.899
   29POPC   C1A  714   5.817   9.220   7.465
   29POPC   D2A  715   5.974   9.119   7.048
   29POPC   C3A  716   5.763   9.241   6.665
   29POPC   C4A  717   5.426   9.191   6.327
   29POPC   C1B  718   5.909   8.709   7.485
   29POPC   C2B  719   6.151   8.641   7.124
   29POPC   C3B  720   6.012   8.728   6.720
   29POPC   C4B  721   5.784   8.851   6.338
   30POPC   NC3  722   5.054   8.875   8.197
   30POPC   PO4  723   4.447   8.695   7.939
   30POPC   GL1  724   4.836   8.774   7.736
   30POPC   GL2  725   4.911   9.154   7.766
   30POPC   C1A  726   4.968   8.848   7.309
   30POPC   D2A  727   4.981   9.274   7.200
   30POPC   C3A  728   4.805   9.312   6.795
   30POPC   C4A  729   4.943   9.018   6.500
   30POPC   C1B  730   5.328   9.075   7.573
   30POPC   C2B  731   5.463   9.001   7.143
   30POPC   C3B  732   5.401   8.870   6.716
   30POPC   C4B  733   5.277   8.688   6.302
   31POPC   NC3  734   5.910   9.665   8.056
   31POPC   PO4  735   5.402   0.055   8.317
   31POPC   GL1  736   5.602   9.999   7.837
   31POPC   GL2  737   5.794   9.745   7.562
   31POPC   C1A  738   5.388   0.038   7.415
   31POPC   D2A  739   5.532   0.259   7.041
   31POPC   C3A  740   5.511   0.052   6.618
   31POPC   C4A  741   5.583   9.668   6.360
   31POPC   C1B  742   6.152   9.547   7.263
   31POPC   C2B  743   6.280   9.590   6.843
   31POPC   C3B  744   6.076   9.585   6.448
   31POPC   C4B  745   5.907   9.303   6.146
   32POPC   NC3  746   7.161   2.432   8.175
   32POPC   PO4  747   7.229   3.109   8.167
   32POPC   GL1  748   7.442   2.869   7.856
   32POPC   GL2  749   7.708   3.059   7.713
   32POPC   C1A  750   7.345   2.771   7.413
   32POPC   D2A  751   7.228   2.648   6.962
   32POPC   C3A  752   7.159   2.995   6.618
   32POPC   C4A  753   7.176   3.125   6.159
   32POPC   C1B  754   7.845   2.789   7.361
   32POPC   C2B  755   7.741   2.586   6.966
   32POPC   C3B  756   7.599   2.738   6.566
   32POPC   C4B  757   7.651   2.938   6.128
   33POPC   NC3  758   8.978   9.258   8.394
   33POPC   PO4  759   9.222   8.558   8.308
   33POPC   GL1  760   9.046   8.774   7.919
   33POPC   GL2  761   8.710   8.794   8.042
   33POPC   C1A  762   9.091   8.888   7.426
   33POPC   D2A  763   9.176   8.739   6.994
   33POPC   C3A  764   9.155   8.994   6.642
   33POPC   C4A  765   8.958   8.982   6.271
   33POPC   C1B  766   8.595   8.861   7.594
   33POPC   C2B  767   8.678   8.871   7.122
   33POPC   C3B  768   8.703   8.744   6.670
   33POPC   C4B  769   8.463   8.673   6.262
   34POPC   NC3  770   5.062   0.377   8.208
   34POPC   PO4  771   4.656   0.857   7.942
   34POPC   GL1  772   4.879   0.528   7.703
   34POPC   GL2  773   4.713   0.195   7.669
   34POPC   C1A  774   5.084   0.498   7.273
   34POPC   D2A  775   5.283   0.666   6.873
   34POPC   C3A  776   5.036   0.626   6.485
   34POPC   C4A  777   5.112   0.572   6.039
   34POPC   C1B  778   4.726   0.127   7.199
   34POPC   C2B  779   5.040   0.219   6.823
   34POPC   C3B  780   5.059   0.125   6.337
   34POPC   C4B  781   4.890   0.124   5.862
   35POPC   NC3  782   0.330   6.762   8.253
   35POPC   PO4  783   0.880   6.611   8.119
   35POPC   GL1  784   0.783   6.475   7.724
   35POPC   GL2  785   0.472   6.533   7.792
   35POPC   C1A  786   0.756   6.639   7.306
   35POPC   D2A  787   0.793   6.941   6.961
   35POPC   C3A  788   0.760   6.709   6.581
   35POPC   C4A  789   0.615   6.774   6.156
   35POPC   C1B  790   0.293   6.458   7.409
   35POPC   C2B  791   0.419   6.435   6.964
   35POPC   C3B  792   0.315   6.469   6.544
   35POPC   C4B  793   0.169   6.170   6.269
   36POPC   NC3  794   7.623   8.617   7.957
   36POPC   PO4  795   7.837   9.248   8.063
   36POPC   GL1  796   7.531   9.104   7.770
   36POPC   GL2  797   7.213   8.985   7.917
   36POPC   C1A  798   7.611   9.066   7.320
   36POPC   D2A  799   7.833   9.073   6.919
   36POPC   C3A  800   7.631   9.040   6.517
   36POPC   C4A  801   7.553   9.185   6.072
   36POPC   C1B  802   7.219   8.779   7.493
   36POPC   C2B  803   7.288   8.709   7.057
   36POPC   C3B  804   7.043   8.665   6.666
   36POPC   C4B  805   7.210   8.857   6.298
   37POPC   NC3  806   2.010   8.702   8.181
   37POPC   PO4  807   2.314   8.207   7.885
   37POPC   GL1  808   2.004   8.514   7.709
   37POPC   GL2  809   2.048   8.899   7.705
   37POPC   C1A  810   1.922   8.607   7.283
   37POPC   D2A  811   2.091   8.878   6.966
   37POPC   C3A  812   2.042   8.732   6.537
   37POPC   C4A  813   1.670   8.647   6.294
   37POPC   C1B  814   2.218   9.216   7.384
   37POPC   C2B  815   2.424   9.263   6.948
   37POPC   C3B  816   2.217   9.233   6.544
   37POPC   C4B  817   1.925   9.125   6.205
   38POPC   NC3  818   0.708   6.194   8.150
   38POPC   PO4  819   0.472   5.575   7.982
   38POPC   GL1  820   0.498   5.978   7.740
   38POPC   GL2  821   0.844   5.935   7.695
   38POPC   C1A  822   0.557   6.055   7.303
   38POPC   D2A  823   0.458   5.794   6.960
   38POPC   C3A  824   0.535   5.978   6.574
   38POPC   C4A  825   0.718   6.274   6.283
   38POPC   C1B  826   0.871   5.665   7.284
   38POPC   C2B  827   0.756   5.397   6.892
   38POPC   C3B  828   0.573   5.461   6.472
   38POPC   C4B  829   0.235   5.672   6.243
   39POPC   NC3  830   2.144   7.137   8.148
   39POPC   PO4  831   1.552   7.651   8.128
   39POPC   GL1  832   1.751   7.577   7.727
   39POPC   GL2  833   2.013   7.317   7.695
   39POPC   C1A  834   1.905   7.600   7.280
   39POPC   D2A  835   1.799   7.425   6.869
   39POPC   C3A  836   1.825   7.685   6.510
   39POPC   C4A  837   2.061   7.721   6.109
   39POPC   C1B  838   2.226   7.175   7.336
   39POPC   C2B  839   2.169   7.070   6.890
   39POPC   C3B  840   2.191   7.309   6.471
   39POPC   C4B  841   2.207   7.263   5.974
   40POPC   NC3  842   6.544   0.102   8.033
   40POPC   PO4  843   6.960   0.637   8.008
   40POPC   GL1  844   6.910   0.312   7.705
   40POPC   GL2  845   6.595   0.439   7.656
   40POPC   C1A  846   6.839   0.298   7.240
   40POPC   D2A  847   6.784   0.591   6.885
   40POPC   C3A  848   6.860   0.442   6.434
   40POPC   C4A  849   6.755   0.756   6.112
   40POPC   C1B  850   6.342   0.323   7.338
   40POPC   C2B  851   6.204   0.470   6.967
   40POPC   C3B  852   6.374   0.524   6.565
   40POPC   C4B  853   6.417   0.270   6.229
   41POPC   NC3  854   8.929   7.369   8.184
   41POPC   PO4  855   8.465   6.872   8.206
   41POPC   GL1  856   8.631   7.168   7.808
   41POPC   GL2  857   9.042   7.271   7.705
   41POPC   C1A  858   8.708   7.409   7.374
   41POPC   D2A  859   8.994   7.386   7.029
   41POPC   C3A  860   8.859   7.397   6.625
   41POPC   C4A  861   8.748   7.495   6.222
   41POPC   C1B  862   9.233   7.608   7.399
   41POPC   C2B  863   9.409   7.691   6.934
   41POPC   C3B  864   9.207   7.735   6.467
   41POPC   C4B  865   9.224   7.727   5.967
   42POPC   NC3  866   2.440   3.705   8.234
   42POPC   PO4  867   1.826   3.970   8.414
   42POPC   GL1  868   1.817   3.867   7.948
   42POPC   GL2  869   1.842   3.486   7.855
   42POPC   C1A  870   1.801   3.865   7.488
   42POPC   D2A  871   2.045   3.615   7.182
   42POPC   C3A  872   1.861   3.642   6.759
   42POPC   C4A  873   1.627   3.844   6.426
   42POPC   C1B  874   1.670   3.362   7.415
   42POPC   C2B  875   1.554   3.163   6.997
   42POPC   C3B  876   1.705   3.186   6.551
   42POPC   C4B  877   1.949   3.418   6.248
   43POPC   NC3  878   1.029   3.082   8.114
   43POPC   PO4  879   0.723   2.521   7.992
   43POPC   GL1  880   0.918   2.781   7.707
   43POPC   GL2  881   1.286   2.778   7.763
   43POPC   C1A  882   0.931   2.728   7.287
   43POPC   D2A  883   0.820   2.568   6.915
   43POPC   C3A  884   0.927   2.792   6.562
   43POPC   C4A  885   1.068   2.681   6.137
   43POPC   C1B  886   1.504   2.722   7.353
   43POPC   C2B  887   1.332   2.680   6.936
   43POPC   C3B  888   1.442   2.718   6.518
   43POPC   C4B  889   1.460   2.993   6.158
   44POPC   NC3  890   9.424   1.818   7.982
   44POPC   PO4  891   9.967   2.245   8.087
   44POPC   GL1  892   9.755   2.175   7.711
   44POPC   GL2  893   9.873   1.834   7.723
   44POPC   C1A  894   9.543   2.249   7.294
   44POPC   D2A  895   9.514   2.474   6.868
   44POPC   C3A  896   9.840   2.427   6.502
   44POPC   C4A  897   9.771   2.309   6.012
   44POPC   C1B  898   9.837   1.744   7.278
   44POPC   C2B  899   9.906   1.484   6.888
   44POPC   C3B  900   9.901   1.572   6.450
   44POPC   C4B  901   9.697   1.962   6.365
   45POPC   NC3  902   0.310   2.560   8.216
   45POPC   PO4  903   0.515   3.184   8.147
   45POPC   GL1  904   0.385   2.937   7.764
   45POPC   GL2  905   0.156   2.620   7.722
   45POPC   C1A  906   0.240   3.044   7.329
   45POPC   D2A  907   0.523   2.974   6.974
   45POPC   C3A  908   0.493   3.050   6.546
   45POPC   C4A  909   0.585   2.834   6.166
   45POPC   C1B  910   0.421   2.572   7.325
   45POPC   C2B  911   0.314   2.510   6.866
   45POPC   C3B  912   0.376   2.436   6.417
   45POPC   C4B  913   0.220   2.531   5.990
   46POPC   NC3  914   8.165   7.156   8.383
   46POPC   PO4  915   7.918   6.587   8.079
   46POPC   GL1  916   8.190   6.820   7.775
   46POPC   GL2  917   8.452   6.599   7.687
   46POPC   C1A  918   8.439   6.984   7.365
   46POPC   D2A  919   8.604   7.076   6.937
   46POPC   C3A  920   8.386   7.155   6.523
   46POPC   C4A  921   8.182   6.907   6.151
   46POPC   C1B  922   8.131   6.582   7.335
   46POPC   C2B  923   8.221   6.755   6.938
   46POPC   C3B  924   8.385   6.635   6.556
   46POPC   C4B  925   8.053   6.447   6.370
   47POPC   NC3  926   4.990   1.494   8.376
   47POPC   PO4  927   4.481   1.851   8.145
   47POPC   GL1  928   4.761   1.805   7.816
   47POPC   GL2  929   5.081   1.857   7.971
   47POPC   C1A  930   4.769   1.797   7.363
   47POPC   D2A  931   4.972   1.935   6.969
   47POPC   C3A  932   4.714   2.013   6.585
   47POPC   C4A  933   4.730   2.390   6.352
   47POPC   C1B  934   5.309   1.944   7.547
   47POPC   C2B  935   5.486   1.956   7.092
   47POPC   C3B  936   5.363   2.038   6.648
   47POPC   C4B  937   5.163   2.053   6.240
   48POPC   NC3  938   2.618   4.535   7.980
   48POPC   PO4  939   2.721   5.194   8.050
   48POPC   GL1  940   2.585   5.221   7.605
   48POPC   GL2  941   2.577   4.860   7.510
   48POPC   C1A  942   2.599   5.242   7.132
   48POPC   D2A  943   2.712   5.091   6.709
   48POPC   C3A  944   2.549   5.263   6.324
   48POPC   C4A  945   2.515   5.175   5.888
   48POPC   C1B  946   2.522   4.736   7.046
   48POPC   C2B  947   2.643   4.579   6.591
   48POPC   C3B  948   2.913   4.463   6.195
   48POPC   C4B  949   3.001   4.518   5.727
   49POPC   NC3  950   4.281   2.289   8.175
   49POPC   PO4  951   3.746   1.800   8.217
   49POPC   GL1  952   4.024   1.946   7.854
   49POPC   GL2  953   4.249   1.688   7.706
   49POPC   C1A  954   4.051   2.075   7.382
   49POPC   D2A  955   3.844   2.218   6.967
   49POPC   C3A  956   3.976   2.245   6.513
   49POPC   C4A  957   4.284   2.196   6.173
   49POPC   C1B  958   4.279   1.628   7.250
   49POPC   C2B  959   4.259   1.871   6.863
   49POPC   C3B  960   4.162   1.764   6.432
   49POPC   C4B  961   4.282   1.522   6.066
   50POPC   NC3  962   6.385   7.305   7.999
   50POPC   PO4  963   6.863   7.116   8.440
   50POPC   GL1  964   6.831   7.173   7.811
   50POPC   GL2  965   7.071   7.395   7.659
   50POPC   C1A  966   6.637   7.364   7.376
   50POPC   D2A  967   6.448   7.469   6.933
   50POPC   C3A  968   6.588   7.406   6.487
   50POPC   C4A  969   6.587   7.168   6.068
   50POPC   C1B  970   7.094   7.488   7.224
   50POPC   C2B  971   7.050   7.290   6.849
   50POPC   C3B  972   7.085   7.486   6.451
   50POPC   C4B  973   6.822   7.637   6.081
   51POPC   NC3  974   9.716   2.630   8.047
   51POPC   PO4  975   9.177   3.073   8.205
   51POPC   GL1  976   9.389   2.957   7.747
   51POPC   GL2  977   9.626   2.680   7.573
   51POPC   C1A  978   9.305   2.874   7.260
   51POPC   D2A  979   9.498   3.077   6.909
   51POPC   C3A  980   9.532   2.875   6.535
   51POPC   C4A  981   9.281   2.953   6.181
   51POPC   C1B  982   9.897   2.663   7.210
   51POPC   C2B  983   0.004   2.926   6.843
   51POPC   C3B  984   0.043   2.880   6.393
   51POPC   C4B  985   9.764   2.802   6.068
   52POPC   NC3  986   6.687   1.853   8.298
   52POPC   PO4  987   7.093   1.368   8.163
   52POPC   GL1  988   6.823   1.543   7.850
   52POPC   GL2  989   6.749   1.915   7.761
   52POPC   C1A  990   6.726   1.494   7.408
   52POPC   D2A  991   6.422   1.472   7.072
   52POPC   C3A  992   6.582   1.564   6.658
   52POPC   C4A  993   6.811   1.797   6.329
   52POPC   C1B  994   6.461   1.957   7.355
   52POPC   C2B  995   6.378   1.994   6.876
   52POPC   C3B  996   6.334   1.995   6.414
   52POPC   C4B  997   6.606   2.192   6.070
   53POPC   NC3  998   0.228   3.483   7.933
   53POPC   PO4  999   9.877   3.003   8.263
   53POPC   GL1 1000   9.884   3.083   7.807
   53POPC   GL2 1001   9.702   3.408   7.788
   53POPC   C1A 1002   9.750   3.162   7.355
   53POPC   D2A 1003   9.980   3.425   7.035
   53POPC   C3A 1004   9.753   3.485   6.640
   53POPC   C4A 1005   9.685   3.279   6.247
   53POPC   C1B 1006   9.711   3.713   7.407
   53POPC   C2B 1007   9.753   3.893   6.971
   53POPC   C3B 1008   9.543   3.989   6.568
   53POPC   C4B 1009   9.421   3.712   6.215
   54POPC   NC3 1010   7.013   8.750   8.475
   54POPC   PO4 1011   6.444   9.055   8.356
   54POPC   GL1 1012   6.456   8.961   7.893
   54POPC   GL2 1013   6.760   8.725   7.835
   54POPC   C1A 1014   6.342   9.069   7.427
   54POPC   D2A 1015   6.526   9.127   6.983
   54POPC   C3A 1016   6.277   9.136   6.622
   54POPC   C4A 1017   6.280   8.849   6.304
   54POPC   C1B 1018   6.851   9.111   7.578
   54POPC   C2B 1019   7.115   9.235   7.183
   54POPC   C3B 1020   7.105   9.166   6.720
   54POPC   C4B 1021   6.744   9.000   6.439
   55POPC   NC3 1022   9.648   0.334   7.809
   55POPC   PO4 1023   9.254   0.723   8.212
   55POPC   GL1 1024   9.544   0.821   7.795
   55POPC   GL2 1025   9.901   0.836   7.682
   55POPC   C1A 1026   9.475   0.757   7.315
   55POPC   D2A 1027   9.579   0.538   6.902
   55POPC   C3A 1028   9.364   0.715   6.553
   55POPC   C4A 1029   9.216   0.626   6.143
   55POPC   C1B 1030   9.938   0.555   7.285
   55POPC   C2B 1031   0.002   0.226   6.945
   55POPC   C3B 1032   9.945   0.390   6.533
   55POPC   C4B 1033   9.587   0.308   6.319
   56POPC   NC3 1034   0.091   5.837   8.023
   56POPC   PO4 1035   9.563   6.190   7.844
   56POPC   GL1 1036   9.939   6.048   7.567
   56POPC   GL2 1037   0.107   5.721   7.510
   56POPC   C1A 1038   0.065   6.076   7.135
   56POPC   D2A 1039   0.010   5.885   6.726
   56POPC   C3A 1040   9.696   6.082   6.486
   56POPC   C4A 1041   9.714   5.992   6.071
   56POPC   C1B 1042   9.756   5.667   7.204
   56POPC   C2B 1043   9.587   5.562   6.793
   56POPC   C3B 1044   9.636   5.580   6.351
   56POPC   C4B 1045   9.361   5.640   5.957
   57POPC   NC3 1046   8.151   9.578   8.139
   57POPC   PO4 1047   8.635   0.007   7.983
   57POPC   GL1 1048   8.266   9.825   7.681
   57POPC   GL2 1049   8.263   9.411   7.666
   57POPC   C1A 1050   7.902   9.953   7.351
   57POPC   D2A 1051   7.693   0.001   6.914
   57POPC   C3A 1052   7.836   9.925   6.460
   57POPC   C4A 1053   8.157   9.845   6.142
   57POPC   C1B 1054   8.000   9.445   7.275
   57POPC   C2B 1055   7.970   9.563   6.811
   57POPC   C3B 1056   7.940   9.426   6.364
   57POPC   C4B 1057   8.083   9.379   5.905
   58POPC   NC3 1058   3.764   7.556   8.098
   58POPC   PO4 1059   3.587   6.986   8.089
   58POPC   GL1 1060   3.693   7.306   7.636
   58POPC   GL2 1061   3.505   7.617   7.450
   58POPC   C1A 1062   3.861   7.455   7.160
   58POPC   D2A 1063   3.634   7.570   6.745
   58POPC   C3A 1064   3.407   7.229   6.538
   58POPC   C4A 1065   3.451   7.170   6.096
   58POPC   C1B 1066   3.200   7.572   7.120
   58POPC   C2B 1067   3.119   7.656   6.672
   58POPC   C3B 1068   3.360   7.664   6.279
   58POPC   C4B 1069   3.663   7.644   5.943
   59POPC   NC3 1070   8.824   2.214   7.869
   59POPC   PO4 1071   9.009   1.602   8.080
   59POPC   GL1 1072   9.066   1.651   7.622
   59POPC   GL2 1073   8.770   1.822   7.536
   59POPC   C1A 1074   9.338   1.633   7.225
   59POPC   D2A 1075   9.501   1.922   6.869
   59POPC   C3A 1076   9.210   1.957   6.490
   59POPC   C4A 1077   9.013   1.694   6.178
   59POPC   C1B 1078   9.054   2.066   7.268
   59POPC   C2B 1079   8.997   2.245   6.863
   59POPC   C3B 1080   8.695   2.059   6.571
   59POPC   C4B 1081   8.534   1.737   6.306
   60POPC   NC3 1082   6.723   1.052   8.189
   60POPC   PO4 1083   6.100   0.770   8.282
   60POPC   GL1 1084   6.352   0.817   7.887
   60POPC   GL2 1085   6.528   1.113   7.726
   60POPC   C1A 1086   6.242   0.803   7.420
   60POPC   D2A 1087   6.358   0.951   7.001
   60POPC   C3A 1088   6.094   0.920   6.645
   60POPC   C4A 1089   6.262   0.944   6.223
   60POPC   C1B 1090   6.750   0.980   7.335
   60POPC   C2B 1091   6.818   1.160   6.919
   60POPC   C3B 1092   6.630   1.040   6.550
   60POPC   C4B 1093   6.577   1.338   6.196
   61POPC   NC3 1094   1.053   4.047   7.884
   61POPC   PO4 1095   0.913   4.678   7.963
   61POPC   GL1 1096   0.857   4.436   7.594
   61POPC   GL2 1097   1.210   4.375   7.530
   61POPC   C1A 1098   0.851   4.434   7.107
   61POPC   D2A 1099   0.834   4.690   6.733
   61POPC   C3A 1100   0.871   4.500   6.324
   61POPC   C4A 1101   0.985   4.364   5.883
   61POPC   C1B 1102   1.223   4.098   7.172
   61POPC   C2B 1103   1.142   4.202   6.707
   61POPC   C3B 1104   1.326   4.271   6.282
   61POPC   C4B 1105   1.358   4.007   5.915
   62POPC   NC3 1106   7.633   3.313   8.177
   62POPC   PO4 1107   7.169   3.786   7.998
   62POPC   GL1 1108   7.436   3.505   7.747
   62POPC   GL2 1109   7.207   3.263   7.648
   62POPC   C1A 1110   7.623   3.350   7.330
   62POPC   D2A 1111   7.510   3.071   6.992
   62POPC   C3A 1112   7.589   3.269   6.554
   62POPC   C4A 1113   7.845   3.416   6.194
   62POPC   C1B 1114   7.143   3.519   7.297
   62POPC   C2B 1115   7.282   3.517   6.886
   62POPC   C3B 1116   7.117   3.490   6.484
   62POPC   C4B 1117   7.209   3.637   6.055
   63POPC   NC3 1118   1.918   2.853   8.218
   63POPC   PO4 1119   2.493   3.242   8.257
   63POPC   GL1 1120   2.273   3.080   7.840
   63POPC   GL2 1121   2.170   2.737   7.781
   63POPC   C1A 1122   2.090   3.071   7.363
   63POPC   D2A 1123   2.057   3.191   6.910
   63POPC   C3A 1124   2.170   2.956   6.514
   63POPC   C4A 1125   2.096   2.955   6.058
   63POPC   C1B 1126   2.055   2.567   7.379
   63POPC   C2B 1127   1.911   2.703   6.967
   63POPC   C3B 1128   1.926   2.507   6.565
   63POPC   C4B 1129   1.767   2.591   6.138
   64POPC   NC3 1130   8.075   7.828   7.941
   64POPC   PO4 1131   8.273   8.408   8.284
   64POPC   GL1 1132   8.401   8.435   7.819
   64POPC   GL2 1133   8.347   8.108   7.635
   64POPC   C1A 1134   8.391   8.470   7.321
   64POPC   D2A 1135   8.423   8.123   7.018
   64POPC   C3A 1136   8.431   8.315   6.645
   64POPC   C4A 1137   8.367   8.164   6.261
   64POPC   C1B 1138   7.998   8.089   7.296
   64POPC   C2B 1139   7.971   7.823   6.883
   64POPC   C3B 1140   7.840   7.947   6.465
   64POPC   C4B 1141   8.010   7.882   6.059
   65POPC   NC3 1142   4.263   9.798   8.201
   65POPC   PO4 1143   4.759   9.290   8.278
   65POPC   GL1 1144   4.489   9.438   7.876
   65POPC   GL2 1145   4.405   9.779   7.727
   65POPC   C1A 1146   4.498   9.366   7.420
   65POPC   D2A 1147   4.465   9.656   7.050
   65POPC   C3A 1148   4.380   9.507   6.585
   65POPC   C4A 1149   4.636   9.360   6.257
   65POPC   C1B 1150   4.060   9.638   7.499
   65POPC   C2B 1151   3.954   9.807   7.095
   65POPC   C3B 1152   4.178   9.951   6.691
   65POPC   C4B 1153   4.092   9.828   6.222
   66POPC   NC3 1154   2.056   1.208   8.081
   66POPC   PO4 1155   1.554   0.806   8.143
   66POPC   GL1 1156   1.741   0.936   7.766
   66POPC   GL2 1157   2.098   0.931   7.628
   66POPC   C1A 1158   1.654   1.168   7.395
   66POPC   D2A 1159   1.754   1.074   6.984
   66POPC   C3A 1160   1.722   1.231   6.567
   66POPC   C4A 1161   1.971   1.106   6.216
   66POPC   C1B 1162   2.174   1.207   7.254
   66POPC   C2B 1163   2.167   1.356   6.810
   66POPC   C3B 1164   2.082   1.586   6.413
   66POPC   C4B 1165   1.985   1.609   5.952
   67POPC   NC3 1166   7.371   4.208   7.997
   67POPC   PO4 1167   7.645   4.773   7.917
   67POPC   GL1 1168   7.757   4.396   7.627
   67POPC   GL2 1169   7.810   4.014   7.743
   67POPC   C1A 1170   7.783   4.260   7.184
   67POPC   D2A 1171   7.748   4.144   6.742
   67POPC   C3A 1172   7.497   4.359   6.447
   67POPC   C4A 1173   7.447   4.640   6.117
   67POPC   C1B 1174   7.527   3.871   7.404
   67POPC   C2B 1175   7.289   4.009   7.046
   67POPC   C3B 1176   7.213   3.972   6.610
   67POPC   C4B 1177   7.553   3.780   6.424
   68POPC   NC3 1178   2.084   5.365   8.146
   68POPC   PO4 1179   2.271   4.741   8.233
   68POPC   GL1 1180   2.180   4.982   7.829
   68POPC   GL2 1181   1.829   5.027   7.735
   68POPC   C1A 1182   2.145   5.092   7.358
   68POPC   D2A 1183   2.089   5.365   7.008
   68POPC   C3A 1184   2.125   5.180   6.608
   68POPC   C4A 1185   2.210   4.906   6.254
   68POPC   C1B 1186   1.615   4.954   7.321
   68POPC   C2B 1187   1.623   5.172   6.902
   68POPC   C3B 1188   1.648   5.030   6.464
   68POPC   C4B 1189   1.767   4.720   6.119
   69POPC   NC3 1190   7.943   2.767   8.036
   69POPC   PO4 1191   8.481   2.450   8.037
   69POPC   GL1 1192   8.425   2.701   7.705
   69POPC   GL2 1193   8.246   2.992   7.690
   69POPC   C1A 1194   8.325   2.630   7.287
   69POPC   D2A 1195   8.447   2.463   6.885
   69POPC   C3A 1196   8.108   2.543   6.592
   69POPC   C4A 1197   7.853   2.492   6.212
   69POPC   C1B 1198   8.132   3.214   7.332
   69POPC   C2B 1199   7.979   3.221   6.904
   69POPC   C3B 1200   8.043   3.045   6.494
   69POPC   C4B 1201   8.227   2.828   6.152
   70POPC   NC3 1202   1.161   7.315   8.189
   70POPC   PO4 1203   1.705   6.795   8.165
   70POPC   GL1 1204   1.560   7.109   7.763
   70POPC   GL2 1205   1.274   7.381   7.711
   70POPC   C1A 1206   1.511   7.292   7.293
   70POPC   D2A 1207   1.272   7.188   6.928
   70POPC   C3A 1208   1.414   7.303   6.510
   70POPC   C4A 1209   1.743   7.291   6.194
   70POPC   C1B 1210   1.004   7.486   7.322
   70POPC   C2B 1211   0.902   7.506   6.874
   70POPC   C3B 1212   0.876   7.215   6.502
   70POPC   C4B 1213   0.926   7.223   6.033
   71POPC   NC3 1214   0.653   9.653   8.222
   71POPC   PO4 1215   1.251   9.245   8.148
   71POPC   GL1 1216   1.283   9.401   7.726
   71POPC   GL2 1217   1.006   9.626   7.762
   71POPC   C1A 1218   1.255   9.321   7.264
   71POPC   D2A 1219   0.955   9.092   6.965
   71POPC   C3A 1220   0.951   9.237   6.511
   71POPC   C4A 1221   0.923   9.337   6.050
   71POPC   C1B 1222   1.286   9.831   7.452
   71POPC   C2B 1223   1.360   9.922   7.014
   71POPC   C3B 1224   1.069   9.938   6.666
   71POPC   C4B 1225   0.889   9.853   6.280
   72POPC   NC3 1226   6.752   6.812   8.132
   72POPC   PO4 1227   6.243   6.947   7.740
   72POPC   GL1 1228   6.599   6.865   7.470
   72POPC   GL2 1229   6.843   6.656   7.640
   72POPC   C1A 1230   6.662   6.974   7.014
   72POPC   D2A 1231   6.781   6.941   6.582
   72POPC   C3A 1232   6.427   6.794   6.391
   72POPC   C4A 1233   6.246   6.778   5.978
   72POPC   C1B 1234   6.804   6.489   7.183
   72POPC   C2B 1235   6.654   6.454   6.736
   72POPC   C3B 1236   6.647   6.228   6.318
   72POPC   C4B 1237   6.470   6.310   5.905
   73POPC   NC3 1238   7.590   6.331   7.877
   73POPC   PO4 1239   7.204   6.876   8.006
   73POPC   GL1 1240   7.294   6.898   7.624
   73POPC   GL2 1241   7.644   6.796   7.646
   73POPC   C1A 1242   7.116   6.893   7.208
   73POPC   D2A 1243   7.203   6.624   6.839
   73POPC   C3A 1244   7.048   6.540   6.414
   73POPC   C4A 1245   6.790   6.682   6.068
   73POPC   C1B 1246   7.629   6.708   7.231
   73POPC   C2B 1247   7.752   6.589   6.829
   73POPC   C3B 1248   7.570   6.586   6.438
   73POPC   C4B 1249   7.460   6.227   6.207
   74POPC   NC3 1250   6.213   2.666   7.959
   74POPC   PO4 1251   6.708   2.291   8.144
   74POPC   GL1 1252   6.809   2.494   7.751
   74POPC   GL2 1253   6.926   2.844   7.718
   74POPC   C1A 1254   6.625   2.612   7.350
   74POPC   D2A 1255   6.366   2.512   7.006
   74POPC   C3A 1256   6.500   2.443   6.575
   74POPC   C4A 1257   6.318   2.574   6.191
   74POPC   C1B 1258   6.928   3.007   7.233
   74POPC   C2B 1259   6.756   2.794   6.832
   74POPC   C3B 1260   6.720   2.884   6.343
   74POPC   C4B 1261   6.529   2.957   5.910
   75POPC   NC3 1262   3.562   0.554   8.145
   75POPC   PO4 1263   3.899   1.109   8.163
   75POPC   GL1 1264   3.928   0.819   7.796
   75POPC   GL2 1265   3.777   0.499   7.692
   75POPC   C1A 1266   3.964   0.787   7.329
   75POPC   D2A 1267   3.618   0.801   7.040
   75POPC   C3A 1268   3.630   0.554   6.665
   75POPC   C4A 1269   3.776   0.684   6.242
   75POPC   C1B 1270   3.424   0.454   7.412
   75POPC   C2B 1271   3.227   0.450   7.005
   75POPC   C3B 1272   3.217   0.231   6.625
   75POPC   C4B 1273   3.267   0.505   6.272
   76POPC   NC3 1274   2.488   2.031   8.239
   76POPC   PO4 1275   2.992   2.447   8.333
   76POPC   GL1 1276   3.068   2.344   7.863
   76POPC   GL2 1277   2.871   2.030   7.838
   76POPC   C1A 1278   3.039   2.201   7.375
   76POPC   D2A 1279   2.756   2.075   6.974
   76POPC   C3A 1280   2.795   2.118   6.492
   76POPC   C4A 1281   2.873   2.066   6.005
   76POPC   C1B 1282   2.678   1.853   7.451
   76POPC   C2B 1283   2.499   1.645   7.091
   76POPC   C3B 1284   2.560   1.668   6.633
   76POPC   C4B 1285   2.804   1.628   6.237
   77POPC   NC3 1286   1.394   4.689   7.932
   77POPC   PO4 1287   1.481   5.259   8.005
   77POPC   GL1 1288   1.125   5.105   7.774
   77POPC   GL2 1289   1.005   5.444   7.739
   77POPC   C1A 1290   1.068   4.836   7.364
   77POPC   D2A 1291   1.325   4.599   7.035
   77POPC   C3A 1292   1.312   4.685   6.593
   77POPC   C4A 1293   1.265   4.836   6.171
   77POPC   C1B 1294   1.232   5.304   7.332
   77POPC   C2B 1295   1.134   5.070   6.926
   77POPC   C3B 1296   1.116   5.218   6.504
   77POPC   C4B 1297   1.346   5.382   6.143
   78POPC   NC3 1298   8.007   0.914   8.031
   78POPC   PO4 1299   8.028   1.538   8.262
   78POPC   GL1 1300   8.238   1.313   7.830
   78POPC   GL2 1301   8.580   1.385   7.725
   78POPC   C1A 1302   8.123   1.071   7.386
   78POPC   D2A 1303   8.314   0.988   6.942
   78POPC   C3A 1304   8.156   0.835   6.519
   78POPC   C4A 1305   7.905   0.967   6.125
   78POPC   C1B 1306   8.334   1.535   7.337
   78POPC   C2B 1307   7.998   1.411   7.006
   78POPC   C3B 1308   7.957   1.301   6.555
   78POPC   C4B 1309   8.208   1.365   6.152
   79POPC   NC3 1310   1.924   0.537   8.088
   79POPC   PO4 1311   1.935   9.884   8.081
   79POPC   GL1 1312   1.645   0.042   7.756
   79POPC   GL2 1313   1.576   0.428   7.725
   79POPC   C1A 1314   1.762   0.112   7.322
   79POPC   D2A 1315   2.190   0.204   7.099
   79POPC   C3A 1316   2.217   0.245   6.639
   79POPC   C4A 1317   2.060   0.213   6.207
   79POPC   C1B 1318   1.776   0.641   7.340
   79POPC   C2B 1319   2.098   0.710   6.998
   79POPC   C3B 1320   2.009   0.728   6.552
   79POPC   C4B 1321   1.698   0.559   6.259
   80POPC   NC3 1322   5.165   9.609   8.357
   80POPC   PO4 1323   4.643   0.093   8.224
   80POPC   GL1 1324   4.846   9.785   7.981
   80POPC   GL2 1325   5.109   9.946   7.898
   80POPC   C1A 1326   4.867   9.714   7.496
   80POPC   D2A 1327   5.039   9.759   7.054
   80POPC   C3A 1328   4.769   9.822   6.675
   80POPC   C4A 1329   4.609   9.878   6.249
   80POPC   C1B 1330   5.319   9.581   7.680
   80POPC   C2B 1331   5.452   9.506   7.231
   80POPC   C3B 1332   5.301   9.418   6.775
   80POPC   C4B 1333   5.084   9.569   6.363
   81POPC   NC3 1334   1.055   8.817   8.130
   81POPC   PO4 1335   1.594   8.369   8.097
   81POPC   GL1 1336   1.556   8.818   7.862
   81POPC   GL2 1337   1.225   8.900   7.667
   81POPC   C1A 1338   1.641   9.020   7.429
   81POPC   D2A 1339   1.378   8.786   7.099
   81POPC   C3A 1340   1.291   8.811   6.629
   81POPC   C4A 1341   1.366   9.055   6.203
   81POPC   C1B 1342   1.019   8.590   7.416
   81POPC   C2B 1343   0.878   8.541   7.002
   81POPC   C3B 1344   0.742   8.742   6.638
   81POPC   C4B 1345   0.947   8.762   6.255
   82POPC   NC3 1346   9.525   8.910   8.222
   82POPC   PO4 1347   9.967   8.444   8.162
   82POPC   GL1 1348   9.831   8.671   7.818
   82POPC   GL2 1349   9.505   8.547   7.845
   82POPC   C1A 1350   9.994   8.831   7.395
   82POPC   D2A 1351   9.989   9.170   7.045
   82POPC   C3A 1352   9.835   9.000   6.626
   82POPC   C4A 1353   9.849   8.741   6.178
   82POPC   C1B 1354   9.513   8.604   7.395
   82POPC   C2B 1355   9.676   8.655   6.979
   82POPC   C3B 1356   9.486   8.643   6.523
   82POPC   C4B 1357   9.474   9.080   6.244
   83POPC   NC3 1358   2.498   5.589   7.953
   83POPC   PO4 1359   1.939   5.705   8.405
   83POPC   GL1 1360   1.827   5.682   7.861
   83POPC   GL2 1361   2.097   5.515   7.652
   83POPC   C1A 1362   1.843   5.939   7.463
   83POPC   D2A 1363   2.070   6.069   7.066
   83POPC   C3A 1364   2.065   5.898   6.664
   83POPC   C4A 1365   1.758   6.024   6.387
   83POPC   C1B 1366   1.741   5.456   7.372
   83POPC   C2B 1367   1.710   5.697   6.968
   83POPC   C3B 1368   1.746   5.530   6.523
   83POPC   C4B 1369   2.128   5.561   6.255
   84POPC   NC3 1370   7.542   5.217   7.953
   84POPC   PO4 1371   7.588   5.874   7.912
   84POPC   GL1 1372   7.846   5.520   7.630
   84POPC   GL2 1373   7.846   5.110   7.577
   84POPC   C1A 1374   7.768   5.391   7.156
   84POPC   D2A 1375   7.739   5.338   6.667
   84POPC   C3A 1376   7.613   5.667   6.354
   84POPC   C4A 1377   7.634   5.626   5.900
   84POPC   C1B 1378   7.676   4.831   7.262
   84POPC   C2B 1379   7.617   4.658   6.867
   84POPC   C3B 1380   7.488   4.904   6.534
   84POPC   C4B 1381   7.659   5.138   6.179
   85POPC   NC3 1382   1.285   6.652   8.311
   85POPC   PO4 1383   0.763   7.076   8.345
   85POPC   GL1 1384   0.932   7.015   7.840
   85POPC   GL2 1385   1.227   6.753   7.809
   85POPC   C1A 1386   1.122   6.979   7.386
   85POPC   D2A 1387   1.252   6.670   7.051
   85POPC   C3A 1388   1.257   6.790   6.597
   85POPC   C4A 1389   1.102   6.621   6.191
   85POPC   C1B 1390   1.494   6.542   7.516
   85POPC   C2B 1391   1.574   6.269   7.145
   85POPC   C3B 1392   1.630   6.399   6.720
   85POPC   C4B 1393   1.587   6.544   6.296
   86POPC   NC3 1394   0.315   8.725   8.036
   86POPC   PO4 1395   0.298   9.342   8.112
   86POPC   GL1 1396   0.722   9.192   7.909
   86POPC   GL2 1397   0.711   8.850   7.738
   86POPC   C1A 1398   0.792   9.264   7.453
   86POPC   D2A 1399   0.500   9.315   7.085
   86POPC   C3A 1400   0.442   9.170   6.669
   86POPC   C4A 1401   0.546   9.061   6.243
   86POPC   C1B 1402   0.545   8.835   7.299
   86POPC   C2B 1403   0.262   8.756   6.942
   86POPC   C3B 1404   0.253   8.729   6.492
   86POPC   C4B 1405   0.410   8.580   6.120
   87POPC   NC3 1406   0.471   7.423   8.253
   87POPC   PO4 1407   9.934   7.023   8.255
   87POPC   GL1 1408   0.132   7.163   7.868
   87POPC   GL2 1409   0.044   7.507   7.793
   87POPC   C1A 1410   0.183   6.956   7.434
   87POPC   D2A 1411   0.111   6.864   6.978
   87POPC   C3A 1412   0.332   7.010   6.587
   87POPC   C4A 1413   0.410   7.253   6.215
   87POPC   C1B 1414   0.383   7.418   7.456
   87POPC   C2B 1415   0.426   7.330   6.992
   87POPC   C3B 1416   0.499   7.574   6.591
   87POPC   C4B 1417   0.824   7.707   6.301
   88POPC   NC3 1418   8.223   0.276   7.990
   88POPC   PO4 1419   7.644   0.625   8.122
   88POPC   GL1 1420   7.883   0.551   7.720
   88POPC   GL2 1421   8.229   0.639   7.612
   88POPC   C1A 1422   7.834   0.491   7.324
   88POPC   D2A 1423   8.066   0.531   6.957
   88POPC   C3A 1424   7.889   0.401   6.604
   88POPC   C4A 1425   7.722   0.514   6.217
   88POPC   C1B 1426   8.307   0.280   7.346
   88POPC   C2B 1427   8.232   0.031   6.958
   88POPC   C3B 1428   8.348   0.104   6.535
   88POPC   C4B 1429   8.225   0.388   6.205
   89POPC   NC3 1430   5.037   1.035   8.102
   89POPC   PO4 1431   5.439   1.572   8.219
   89POPC   GL1 1432   5.366   1.482   7.765
   89POPC   GL2 1433   5.051   1.380   7.746
   89POPC   C1A 1434   5.190   1.513   7.290
   89POPC   D2A 1435   4.839   1.453   6.954
   89POPC   C3A 1436   5.033   1.604   6.530
   89POPC   C4A 1437   5.479   1.621   6.364
   89POPC   C1B 1438   5.089   1.017   7.451
   89POPC   C2B 1439   4.924   0.963   7.061
   89POPC   C3B 1440   5.063   1.101   6.652
   89POPC   C4B 1441   5.235   1.174   6.269
   90POPC   NC3 1442   5.321   7.890   8.162
   90POPC   PO4 1443   4.902   8.421   8.254
   90POPC   GL1 1444   4.783   8.263   7.852
   90POPC   GL2 1445   5.135   8.216   7.807
   90POPC   C1A 1446   4.859   8.362   7.418
   90POPC   D2A 1447   5.143   8.353   7.077
   90POPC   C3A 1448   5.033   8.506   6.704
   90POPC   C4A 1449   4.810   8.384   6.315
   90POPC   C1B 1450   5.244   7.982   7.441
   90POPC   C2B 1451   5.071   7.847   7.040
   90POPC   C3B 1452   4.981   8.004   6.650
   90POPC   C4B 1453   5.288   8.156   6.395
   91POPC   NC3 1454   9.674   7.439   8.280
   91POPC   PO4 1455   9.233   7.032   8.124
   91POPC   GL1 1456   9.549   7.206   7.850
   91POPC   GL2 1457   9.505   7.546   7.814
   91POPC   C1A 1458   9.714   7.196   7.431
   91POPC   D2A 1459   9.586   6.944   7.054
   91POPC   C3A 1460   9.566   7.170   6.663
   91POPC   C4A 1461   9.849   7.141   6.294
   91POPC   C1B 1462   9.731   7.734   7.438
   91POPC   C2B 1463   9.977   7.562   7.107
   91POPC   C3B 1464   0.003   7.445   6.673
   91POPC   C4B 1465   9.697   7.630   6.360
   92POPC   NC3 1466   7.892   1.804   7.912
   92POPC   PO4 1467   7.635   2.418   7.996
   92POPC   GL1 1468   8.003   2.394   7.675
   92POPC   GL2 1469   8.351   2.189   7.611
   92POPC   C1A 1470   8.001   2.246   7.251
   92POPC   D2A 1471   7.901   1.966   6.943
   92POPC   C3A 1472   7.750   2.179   6.597
   92POPC   C4A 1473   7.581   2.051   6.230
   92POPC   C1B 1474   8.482   2.032   7.172
   92POPC   C2B 1475   8.352   1.733   6.819
   92POPC   C3B 1476   8.062   1.792   6.465
   92POPC   C4B 1477   8.213   2.144   6.256
   93POPC   NC3 1478   1.260   8.024   8.124
   93POPC   PO4 1479   0.702   8.481   8.116
   93POPC   GL1 1480   0.900   8.209   7.744
   93POPC   GL2 1481   1.027   7.848   7.708
   93POPC   C1A 1482   0.959   8.087   7.272
   93POPC   D2A 1483   0.871   8.013   6.827
   93POPC   C3A 1484   1.018   8.314   6.548
   93POPC   C4A 1485   1.302   8.304   6.249
   93POPC   C1B 1486   1.395   7.802   7.414
   93POPC   C2B 1487   1.379   7.729   6.953
   93POPC   C3B 1488   1.300   7.825   6.500
   93POPC   C4B 1489   1.585   7.902   6.126
   94POPC   NC3 1490   0.792   2.113   8.181
   94POPC   PO4 1491   1.379   1.785   8.244
   94POPC   GL1 1492   1.126   1.885   7.856
   94POPC   GL2 1493   1.153   2.262   7.833
   94POPC   C1A 1494   1.029   1.799   7.385
   94POPC   D2A 1495   0.917   1.705   6.921
   94POPC   C3A 1496   1.140   1.821   6.511
   94POPC   C4A 1497   1.058   1.943   6.045
   94POPC   C1B 1498   1.180   2.300   7.383
   94POPC   C2B 1499   1.141   2.173   6.949
   94POPC   C3B 1500   1.090   2.317   6.525
   94POPC   C4B 1501   1.389   2.278   6.200
   95POPC   NC3 1502   8.302   3.858   8.105
   95POPC   PO4 1503   8.079   3.213   8.111
   95POPC   GL1 1504   7.994   3.495   7.775
   95POPC   GL2 1505   8.344   3.518   7.726
   95POPC   C1A 1506   8.015   3.708   7.357
   95POPC   D2A 1507   7.767   3.694   6.974
   95POPC   C3A 1508   8.019   3.664   6.617
   95POPC   C4A 1509   8.218   3.784   6.247
   95POPC   C1B 1510   8.546   3.543   7.350
   95POPC   C2B 1511   8.383   3.530   6.965
   95POPC   C3B 1512   8.449   3.370   6.565
   95POPC   C4B 1513   8.351   3.318   6.131
   96POPC   NC3 1514   8.207   8.876   8.169
   96POPC   PO4 1515   7.904   8.260   7.920
   96POPC   GL1 1516   7.963   8.563   7.586
   96POPC   GL2 1517   8.006   8.901   7.701
   96POPC   C1A 1518   7.807   8.579   7.170
   96POPC   D2A 1519   7.947   8.324   6.826
   96POPC   C3A 1520   7.957   8.492   6.410
   96POPC   C4A 1521   7.650   8.677   6.120
   96POPC   C1B 1522   8.173   8.943   7.300
   96POPC   C2B 1523   8.235   8.751   6.897
   96POPC   C3B 1524   8.234   9.025   6.556
   96POPC   C4B 1525   8.045   8.965   6.185
   97POPC   NC3 1526   3.465   8.180   8.219
   97POPC   PO4 1527   3.352   7.582   7.911
   97POPC   GL1 1528   3.678   7.953   7.808
   97POPC   GL2 1529   3.591   8.307   7.753
   97POPC   C1A 1530   3.881   8.005   7.432
   97POPC   D2A 1531   3.683   7.940   7.070
   97POPC   C3A 1532   3.806   8.093   6.684
   97POPC   C4A 1533   3.682   8.038   6.273
   97POPC   C1B 1534   3.369   8.125   7.421
   97POPC   C2B 1535   3.197   8.066   7.014
   97POPC   C3B 1536   3.295   8.152   6.602
   97POPC   C4B 1537   3.254   8.338   6.207
   98POPC   NC3 1538   2.307   9.614   8.068
   98POPC   PO4 1539   2.930   9.957   8.154
   98POPC   GL1 1540   2.951   9.569   7.847
   98POPC   GL2 1541   2.620   9.457   7.692
   98POPC   C1A 1542   3.064   9.586   7.396
   98POPC   D2A 1543   2.824   9.611   6.988
   98POPC   C3A 1544   2.838   9.855   6.591
   98POPC   C4A 1545   2.512   9.981   6.292
   98POPC   C1B 1546   2.742   9.179   7.344
   98POPC   C2B 1547   2.936   9.118   6.926
   98POPC   C3B 1548   2.907   9.342   6.537
   98POPC   C4B 1549   2.576   9.486   6.281
   99POPC   NC3 1550   3.276   9.643   8.238
   99POPC   PO4 1551   3.957   9.388   8.167
   99POPC   GL1 1552   3.800   9.753   7.936
   99POPC   GL2 1553   3.510   9.584   7.798
   99POPC   C1A 1554   3.649   9.989   7.531
   99POPC   D2A 1555   3.430   9.965   7.111
   99POPC   C3A 1556   3.675   0.035   6.723
   99POPC   C4A 1557   3.647   0.179   6.300
   99POPC   C1B 1558   3.583   9.492   7.365
   99POPC   C2B 1559   3.344   9.451   6.978
   99POPC   C3B 1560   3.322   9.659   6.596
   99POPC   C4B 1561   3.584   9.691   6.238
  100POPC   NC3 1562   8.895   4.444   8.098
  100POPC   PO4 1563   9.474   4.522   8.414
  100POPC   GL1 1564   9.348   4.226   7.944
  100POPC   GL2 1565   9.024   4.230   7.679
  100POPC   C1A 1566   9.435   4.189   7.425
  100POPC   D2A 1567   9.262   4.069   7.001
  100POPC   C3A 1568   9.044   4.228   6.628
  100POPC   C4A 1569   9.129   4.360   6.199
  100POPC   C1B 1570   8.742   4.046   7.372
  100POPC   C2B 1571   8.785   3.852   7.000
  100POPC   C3B 1572   8.584   3.887   6.634
  100POPC   C4B 1573   8.652   4.085   6.253
  101POPC   NC3 1574   7.550   1.514   8.253
  101POPC   PO4 1575   7.149   2.003   8.366
  101POPC   GL1 1576   7.243   1.859   7.928
  101POPC   GL2 1577   7.235   2.182   7.742
  101POPC   C1A 1578   7.162   1.782   7.439
  101POPC   D2A 1579   7.000   1.692   6.973
  101POPC   C3A 1580   7.272   1.789   6.575
  101POPC   C4A 1581   7.294   1.633   6.129
  101POPC   C1B 1582   7.485   2.268   7.360
  101POPC   C2B 1583   7.388   2.147   6.947
  101POPC   C3B 1584   7.247   2.316   6.544
  101POPC   C4B 1585   7.205   2.631   6.238
  102POPC   NC3 1586   1.140   0.604   8.136
  102POPC   PO4 1587   0.944   0.015   8.098
  102POPC   GL1 1588   1.091   0.242   7.745
  102POPC   GL2 1589   0.907   0.551   7.680
  102POPC   C1A 1590   1.258   0.336   7.323
  102POPC   D2A 1591   1.097   0.395   6.901
  102POPC   C3A 1592   1.299   0.356   6.493
  102POPC   C4A 1593   1.326   0.095   6.135
  102POPC   C1B 1594   0.814   0.855   7.349
  102POPC   C2B 1595   0.732   0.738   6.919
  102POPC   C3B 1596   0.972   0.801   6.591
  102POPC   C4B 1597   0.884   0.869   6.186
  103POPC   NC3 1598   1.787   2.047   8.249
  103POPC   PO4 1599   2.285   1.609   8.146
  103POPC   GL1 1600   2.308   1.924   7.779
  103POPC   GL2 1601   2.087   2.210   7.780
  103POPC   C1A 1602   2.194   2.017   7.329
  103POPC   D2A 1603   2.027   1.935   6.913
  103POPC   C3A 1604   2.256   2.082   6.575
  103POPC   C4A 1605   2.404   1.925   6.196
  103POPC   C1B 1606   1.694   2.242   7.536
  103POPC   C2B 1607   1.636   2.280   7.081
  103POPC   C3B 1608   1.592   2.127   6.644
  103POPC   C4B 1609   1.851   2.049   6.241
  104POPC   NC3 1610   7.774   8.044   8.315
  104POPC   PO4 1611   7.222   8.468   8.179
  104POPC   GL1 1612   7.334   8.150   7.842
  104POPC   GL2 1613   7.505   8.330   7.558
  104POPC   C1A 1614   7.343   7.869   7.453
  104POPC   D2A 1615   7.535   8.041   7.055
  104POPC   C3A 1616   7.341   7.905   6.624
  104POPC   C4A 1617   7.301   7.845   6.177
  104POPC   C1B 1618   7.084   8.296   7.380
  104POPC   C2B 1619   7.087   8.236   6.941
  104POPC   C3B 1620   7.457   8.388   6.661
  104POPC   C4B 1621   7.230   8.342   6.298
  105POPC   NC3 1622   3.141   7.184   8.084
  105POPC   PO4 1623   3.149   7.861   8.299
  105POPC   GL1 1624   2.856   7.576   7.872
  105POPC   GL2 1625   3.029   7.378   7.599
  105POPC   C1A 1626   2.573   7.542   7.434
  105POPC   D2A 1627   2.353   7.532   6.996
  105POPC   C3A 1628   2.613   7.565   6.641
  105POPC   C4A 1629   2.552   7.574   6.209
  105POPC   C1B 1630   2.736   7.067   7.460
  105POPC   C2B 1631   2.659   7.072   7.015
  105POPC   C3B 1632   2.887   7.156   6.627
  105POPC   C4B 1633   2.989   7.322   6.218
  106POPC   NC3 1634   3.133   5.392   7.999
  106POPC   PO4 1635   2.835   5.887   7.925
  106POPC   GL1 1636   2.603   5.872   7.560
  106POPC   GL2 1637   2.340   6.073   7.571
  106POPC   C1A 1638   2.417   5.718   7.179
  106POPC   D2A 1639   2.456   5.572   6.733
  106POPC   C3A 1640   2.686   5.741   6.391
  106POPC   C4A 1641   2.942   5.420   6.057
  106POPC   C1B 1642   2.537   6.219   7.205
  106POPC   C2B 1643   2.520   6.092   6.776
  106POPC   C3B 1644   2.625   6.290   6.396
  106POPC   C4B 1645   2.979   6.251   6.143
  107POPC   NC3 1646   0.514   4.490   8.108
  107POPC   PO4 1647   0.220   3.899   8.171
  107POPC   GL1 1648   0.522   4.049   7.830
  107POPC   GL2 1649   0.344   4.272   7.668
  107POPC   C1A 1650   0.690   4.022   7.360
  107POPC   D2A 1651   0.796   3.902   6.958
  107POPC   C3A 1652   0.621   4.113   6.619
  107POPC   C4A 1653   0.410   4.017   6.245
  107POPC   C1B 1654   0.381   4.436   7.282
  107POPC   C2B 1655   0.391   4.490   6.858
  107POPC   C3B 1656   0.360   4.590   6.445
  107POPC   C4B 1657   0.032   4.603   6.152
  108POPC   NC3 1658   7.144   7.326   8.159
  108POPC   PO4 1659   7.743   7.564   8.204
  108POPC   GL1 1660   7.647   7.622   7.775
  108POPC   GL2 1661   7.573   7.318   7.705
  108POPC   C1A 1662   7.780   7.615   7.321
  108POPC   D2A 1663   7.521   7.549   6.925
  108POPC   C3A 1664   7.620   7.452   6.483
  108POPC   C4A 1665   7.677   7.503   6.017
  108POPC   C1B 1666   7.495   7.202   7.287
  108POPC   C2B 1667   7.501   7.047   6.867
  108POPC   C3B 1668   7.281   7.005   6.486
  108POPC   C4B 1669   7.092   7.130   6.109
  109POPC   NC3 1670   6.582   9.585   8.290
  109POPC   PO4 1671   6.234   9.858   7.798
  109POPC   GL1 1672   6.590   9.903   7.565
  109POPC   GL2 1673   6.699   9.605   7.754
  109POPC   C1A 1674   6.532   9.924   7.119
  109POPC   D2A 1675   6.619   0.110   6.762
  109POPC   C3A 1676   6.519   9.832   6.446
  109POPC   C4A 1677   6.313   9.800   6.033
  109POPC   C1B 1678   6.674   9.484   7.296
  109POPC   C2B 1679   6.832   9.591   6.846
  109POPC   C3B 1680   6.874   9.481   6.374
  109POPC   C4B 1681   6.460   9.357   6.209
  110POPC   NC3 1682   3.859   2.997   8.018
  110POPC   PO4 1683   4.413   2.734   8.166
  110POPC   GL1 1684   4.298   2.563   7.733
  110POPC   GL2 1685   3.965   2.502   7.673
  110POPC   C1A 1686   4.315   2.495   7.251
  110POPC   D2A 1687   4.373   2.371   6.797
  110POPC   C3A 1688   4.299   2.652   6.434
  110POPC   C4A 1689   4.395   3.040   6.188
  110POPC   C1B 1690   3.827   2.648   7.247
  110POPC   C2B 1691   3.868   2.694   6.766
  110POPC   C3B 1692   3.902   2.968   6.380
  110POPC   C4B 1693   3.927   3.382   6.151
  111POPC   NC3 1694   1.574   9.599   8.109
  111POPC   PO4 1695   2.190   9.172   8.116
  111POPC   GL1 1696   1.916   9.413   7.761
  111POPC   GL2 1697   2.097   9.711   7.613
  111POPC   C1A 1698   1.728   9.565   7.314
  111POPC   D2A 1699   1.878   9.818   6.908
  111POPC   C3A 1700   1.671   9.947   6.484
  111POPC   C4A 1701   1.741   9.846   5.998
  111POPC   C1B 1702   2.335   9.704   7.211
  111POPC   C2B 1703   2.360   9.740   6.742
  111POPC   C3B 1704   2.101   9.697   6.359
  111POPC   C4B 1705   2.172   9.535   5.944
  112POPC   NC3 1706   9.512   8.176   8.268
  112POPC   PO4 1707   0.046   7.743   8.275
  112POPC   GL1 1708   9.931   8.010   7.891
  112POPC   GL2 1709   9.584   8.041   7.804
  112POPC   C1A 1710   9.901   8.273   7.485
  112POPC   D2A 1711   9.889   8.125   7.048
  112POPC   C3A 1712   9.938   8.384   6.652
  112POPC   C4A 1713   9.913   8.217   6.221
  112POPC   C1B 1714   9.331   8.121   7.453
  112POPC   C2B 1715   9.363   8.231   7.035
  112POPC   C3B 1716   9.513   8.115   6.631
  112POPC   C4B 1717   9.354   8.177   6.222
  113POPC   NC3 1718   0.034   9.683   7.971
  113POPC   PO4 1719   0.428   0.039   8.382
  113POPC   GL1 1720   0.466   9.930   7.846
  113POPC   GL2 1721   0.483   9.604   7.710
  113POPC   C1A 1722   0.758   9.956   7.454
  113POPC   D2A 1723   0.894   9.675   7.110
  113POPC   C3A 1724   0.657   9.638   6.708
  113POPC   C4A 1725   0.461   9.575   6.297
  113POPC   C1B 1726   0.189   9.593   7.357
  113POPC   C2B 1727   0.209   9.737   6.934
  113POPC   C3B 1728   0.038   9.490   6.616
  113POPC   C4B 1729   0.080   9.220   6.245
  114POPC   NC3 1730   3.673   8.991   8.190
  114POPC   PO4 1731   3.168   8.535   8.153
  114POPC   GL1 1732   3.361   8.750   7.807
  114POPC   GL2 1733   3.455   9.085   7.742
  114POPC   C1A 1734   3.442   8.625   7.381
  114POPC   D2A 1735   3.572   8.430   6.997
  114POPC   C3A 1736   3.603   8.588   6.559
  114POPC   C4A 1737   3.467   8.802   6.190
  114POPC   C1B 1738   3.257   9.097   7.354
  114POPC   C2B 1739   3.389   8.920   6.962
  114POPC   C3B 1740   3.373   9.110   6.578
  114POPC   C4B 1741   3.737   9.218   6.362
  115POPC   NC3 1742   3.380   2.693   8.328
  115POPC   PO4 1743   3.472   3.275   8.059
  115POPC   GL1 1744   3.216   2.912   7.867
  115POPC   GL2 1745   3.486   2.717   7.700
  115POPC   C1A 1746   3.041   2.704   7.458
  115POPC   D2A 1747   2.834   2.576   7.066
  115POPC   C3A 1748   3.010   2.639   6.659
  115POPC   C4A 1749   3.072   2.472   6.242
  115POPC   C1B 1750   3.422   2.964   7.264
  115POPC   C2B 1751   3.406   2.958   6.768
  115POPC   C3B 1752   3.454   3.195   6.346
  115POPC   C4B 1753   3.382   3.213   5.878
  116POPC   NC3 1754   3.184   3.629   8.035
  116POPC   PO4 1755   2.691   4.073   8.068
  116POPC   GL1 1756   2.757   3.661   7.777
  116POPC   GL2 1757   2.770   3.284   7.853
  116POPC   C1A 1758   2.947   3.342   7.402
  116POPC   D2A 1759   2.954   3.081   7.022
  116POPC   C3A 1760   3.041   3.352   6.632
  116POPC   C4A 1761   3.047   3.512   6.179
  116POPC   C1B 1762   2.448   3.407   7.490
  116POPC   C2B 1763   2.509   3.395   7.031
  116POPC   C3B 1764   2.368   3.445   6.578
  116POPC   C4B 1765   2.509   3.252   6.173
  117POPC   NC3 1766   5.690   1.983   8.147
  117POPC   PO4 1767   6.261   1.539   8.163
  117POPC   GL1 1768   5.885   1.580   7.882
  117POPC   GL2 1769   6.035   1.898   7.773
  117POPC   C1A 1770   5.725   1.641   7.441
  117POPC   D2A 1771   5.983   1.754   7.086
  117POPC   C3A 1772   5.860   1.872   6.652
  117POPC   C4A 1773   5.950   1.733   6.203
  117POPC   C1B 1774   5.858   2.132   7.426
  117POPC   C2B 1775   5.943   2.254   6.989
  117POPC   C3B 1776   5.973   2.374   6.547
  117POPC   C4B 1777   5.684   2.166   6.262
  118POPC   NC3 1778   2.674   2.810   8.301
  118POPC   PO4 1779   2.139   2.388   8.239
  118POPC   GL1 1780   2.539   2.429   7.933
  118POPC   GL2 1781   2.695   2.743   7.813
  118POPC   C1A 1782   2.550   2.382   7.455
  118POPC   D2A 1783   2.337   2.380   7.000
  118POPC   C3A 1784   2.499   2.535   6.596
  118POPC   C4A 1785   2.588   2.739   6.184
  118POPC   C1B 1786   2.574   2.911   7.411
  118POPC   C2B 1787   2.447   2.887   6.980
  118POPC   C3B 1788   2.667   3.018   6.603
  118POPC   C4B 1789   3.003   2.999   6.257
  119POPC   NC3 1790   2.731   1.101   8.045
  119POPC   PO4 1791   3.094   1.666   8.146
  119POPC   GL1 1792   2.910   1.493   7.741
  119POPC   GL2 1793   2.523   1.422   7.703
  119POPC   C1A 1794   2.986   1.466   7.276
  119POPC   D2A 1795   3.020   1.623   6.853
  119POPC   C3A 1796   3.027   1.306   6.533
  119POPC   C4A 1797   2.936   0.862   6.434
  119POPC   C1B 1798   2.652   1.107   7.379
  119POPC   C2B 1799   2.671   1.196   6.906
  119POPC   C3B 1800   2.520   1.193   6.469
  119POPC   C4B 1801   2.407   1.338   6.069
  120POPC   NC3 1802   1.512   5.630   8.249
  120POPC   PO4 1803   1.221   6.191   8.256
  120POPC   GL1 1804   1.230   6.238   7.836
  120POPC   GL2 1805   1.367   5.912   7.776
  120POPC   C1A 1806   1.094   6.252   7.379
  120POPC   D2A 1807   1.064   6.066   6.954
  120POPC   C3A 1808   1.175   6.250   6.539
  120POPC   C4A 1809   1.346   6.126   6.121
  120POPC   C1B 1810   1.355   5.806   7.329
  120POPC   C2B 1811   1.237   5.583   6.915
  120POPC   C3B 1812   1.276   5.738   6.519
  120POPC   C4B 1813   0.937   5.809   6.280
  121POPC   NC3 1814   4.491   7.337   8.235
  121POPC   PO4 1815   5.140   7.455   8.182
  121POPC   GL1 1816   4.866   7.751   7.910
  121POPC   GL2 1817   4.541   7.603   7.809
  121POPC   C1A 1818   4.752   7.853   7.436
  121POPC   D2A 1819   4.612   7.626   7.013
  121POPC   C3A 1820   4.651   7.640   6.525
  121POPC   C4A 1821   4.693   7.515   6.063
  121POPC   C1B 1822   4.267   7.678   7.426
  121POPC   C2B 1823   4.176   7.869   6.996
  121POPC   C3B 1824   4.119   7.718   6.542
  121POPC   C4B 1825   3.873   7.364   6.334
  122POPC   NC3 1826   1.665   6.297   8.131
  122POPC   PO4 1827   2.211   5.942   8.043
  122POPC   GL1 1828   2.088   6.399   7.858
  122POPC   GL2 1829   2.030   6.790   7.750
  122POPC   C1A 1830   1.992   6.424   7.414
  122POPC   D2A 1831   2.035   6.573   6.977
  122POPC   C3A 1832   2.132   6.397   6.563
  122POPC   C4A 1833   2.263   6.554   6.148
  122POPC   C1B 1834   1.809   6.891   7.322
  122POPC   C2B 1835   1.689   6.913   6.857
  122POPC   C3B 1836   1.930   6.872   6.448
  122POPC   C4B 1837   1.878   6.830   5.958
  123POPC   NC3 1838   4.426   8.334   8.216
  123POPC   PO4 1839   4.199   7.693   8.195
  123POPC   GL1 1840   4.240   8.015   7.834
  123POPC   GL2 1841   4.088   8.328   7.827
  123POPC   C1A 1842   4.372   8.194   7.412
  123POPC   D2A 1843   4.633   8.153   7.017
  123POPC   C3A 1844   4.457   8.124   6.622
  123POPC   C4A 1845   4.480   7.987   6.184
  123POPC   C1B 1846   3.949   8.500   7.412
  123POPC   C2B 1847   4.084   8.374   7.026
  123POPC   C3B 1848   4.108   8.509   6.630
  123POPC   C4B 1849   4.101   8.299   6.295
  124POPC   NC3 1850   0.614   0.337   8.068
  124POPC   PO4 1851   9.981   0.131   8.046
  124POPC   GL1 1852   0.181   0.344   7.709
  124POPC   GL2 1853   0.397   0.662   7.704
  124POPC   C1A 1854   0.281   0.091   7.349
  124POPC   D2A 1855   0.590   0.128   6.982
  124POPC   C3A 1856   0.403   0.080   6.575
  124POPC   C4A 1857   0.043   9.928   6.353
  124POPC   C1B 1858   0.428   0.558   7.274
  124POPC   C2B 1859   0.241   0.654   6.861
  124POPC   C3B 1860   0.445   0.601   6.464
  124POPC   C4B 1861   0.806   0.359   6.371
  125POPC   NC3 1862   5.933   1.200   8.220
  125POPC   PO4 1863   5.395   0.731   8.214
  125POPC   GL1 1864   5.543   1.016   7.879
  125POPC   GL2 1865   5.889   0.977   7.775
  125POPC   C1A 1866   5.581   1.157   7.423
  125POPC   D2A 1867   5.415   1.157   7.015
  125POPC   C3A 1868   5.589   1.006   6.634
  125POPC   C4A 1869   5.547   0.788   6.227
  125POPC   C1B 1870   6.084   1.277   7.479
  125POPC   C2B 1871   5.946   1.253   7.042
  125POPC   C3B 1872   6.073   1.415   6.628
  125POPC   C4B 1873   5.850   1.238   6.264
  126POPC   NC3 1874   4.290   0.798   8.218
  126POPC   PO4 1875   3.828   0.280   8.427
  126POPC   GL1 1876   4.091   0.230   7.996
  126POPC   GL2 1877   4.319   0.478   7.831
  126POPC   C1A 1878   4.123   0.161   7.504
  126POPC   D2A 1879   3.856   0.315   7.143
  126POPC   C3A 1880   4.114   0.461   6.797
  126POPC   C4A 1881   4.139   0.329   6.351
  126POPC   C1B 1882   4.445   0.567   7.380
  126POPC   C2B 1883   4.625   0.561   6.960
  126POPC   C3B 1884   4.589   0.304   6.606
  126POPC   C4B 1885   4.640   0.413   6.201
  127POPC   NC3 1886   9.755   4.950   8.031
  127POPC   PO4 1887   0.377   4.871   8.345
  127POPC   GL1 1888   0.202   5.143   7.902
  127POPC   GL2 1889   9.903   5.392   7.839
  127POPC   C1A 1890   0.076   5.087   7.449
  127POPC   D2A 1891   0.095   4.826   7.090
  127POPC   C3A 1892   9.931   4.847   6.672
  127POPC   C4A 1893   9.697   5.044   6.350
  127POPC   C1B 1894   9.598   5.250   7.481
  127POPC   C2B 1895   9.660   5.122   7.060
  127POPC   C3B 1896   9.374   5.070   6.739
  127POPC   C4B 1897   9.210   5.337   6.410
  128POPC   NC3 1898   9.707   9.942   8.367
  128POPC   PO4 1899   9.366   9.354   8.177
  128POPC   GL1 1900   9.580   9.497   7.842
  128POPC   GL2 1901   9.826   9.211   7.857
  128POPC   C1A 1902   9.687   9.737   7.444
  128POPC   D2A 1903   9.727   9.619   7.032
  128POPC   C3A 1904   9.653   9.904   6.693
  128POPC   C4A 1905   9.322   9.837   6.404
  128POPC   C1B 1906   9.574   9.120   7.478
  128POPC   C2B 1907   9.475   9.154   7.029
  128POPC   C3B 1908   9.478   9.404   6.640
  128POPC   C4B 1909   9.695   9.557   6.247
  129POPC   NC3 1910   2.691   7.974   8.111
  129POPC   PO4 1911   2.390   8.508   8.369
  129POPC   GL1 1912   2.720   8.466   7.851
  129POPC   GL2 1913   3.015   8.230   7.779
  129POPC   C1A 1914   2.674   8.316   7.340
  129POPC   D2A 1915   2.389   8.301   6.936
  129POPC   C3A 1916   2.453   8.433   6.506
  129POPC   C4A 1917   2.763   8.499   6.183
  129POPC   C1B 1918   2.929   7.894   7.466
  129POPC   C2B 1919   2.737   7.870   7.049
  129POPC   C3B 1920   2.785   8.068   6.648
  129POPC   C4B 1921   2.931   7.928   6.247
  130POPC   NC3 1922   9.034   9.699   7.951
  130POPC   PO4 1923   8.532   9.280   8.248
  130POPC   GL1 1924   8.764   9.272   7.850
  130POPC   GL2 1925   9.127   9.251   7.749
  130POPC   C1A 1926   8.752   9.318   7.397
  130POPC   D2A 1927   8.968   9.287   6.997
  130POPC   C3A 1928   8.701   9.258   6.631
  130POPC   C4A 1929   8.438   9.552   6.424
  130POPC   C1B 1930   9.251   9.502   7.361
  130POPC   C2B 1931   9.201   9.771   6.972
  130POPC   C3B 1932   8.884   9.751   6.629
  130POPC   C4B 1933   8.933   9.509   6.218
  131POPC   NC3 1934   8.762   2.808   8.129
  131POPC   PO4 1935   9.274   2.283   7.921
  131POPC   GL1 1936   9.125   2.508   7.576
  131POPC   GL2 1937   8.922   2.807   7.650
  131POPC   C1A 1938   8.824   2.532   7.251
  131POPC   D2A 1939   8.899   2.806   6.935
  131POPC   C3A 1940   9.045   2.656   6.551
  131POPC   C4A 1941   9.364   2.430   6.314
  131POPC   C1B 1942   8.631   3.025   7.359
  131POPC   C2B 1943   8.441   3.020   6.961
  131POPC   C3B 1944   8.530   2.865   6.575
  131POPC   C4B 1945   8.564   2.493   6.363
  132POPC   NC3 1946   2.764   8.744   8.255
  132POPC   PO4 1947   3.228   9.196   8.187
  132POPC   GL1 1948   2.934   9.032   7.826
  132POPC   GL2 1949   2.563   8.960   7.820
  132POPC   C1A 1950   2.943   8.725   7.470
  132POPC   D2A 1951   3.049   8.540   7.045
  132POPC   C3A 1952   3.075   8.674   6.599
  132POPC   C4A 1953   2.990   8.946   6.227
  132POPC   C1B 1954   2.432   8.752   7.425
  132POPC   C2B 1955   2.589   8.761   7.004
  132POPC   C3B 1956   2.606   8.913   6.569
  132POPC   C4B 1957   2.480   8.995   6.121
  133POPC   NC3 1958   2.860   0.419   8.140
  133POPC   PO4 1959   2.321   0.821   8.077
  133POPC   GL1 1960   2.514   0.622   7.776
  133POPC   GL2 1961   2.855   0.704   7.693
  133POPC   C1A 1962   2.453   0.622   7.356
  133POPC   D2A 1963   2.747   0.721   7.048
  133POPC   C3A 1964   2.516   0.707   6.687
  133POPC   C4A 1965   2.458   0.744   6.252
  133POPC   C1B 1966   2.879   0.340   7.364
  133POPC   C2B 1967   2.722   0.248   6.886
  133POPC   C3B 1968   2.788   0.369   6.403
  133POPC   C4B 1969   2.978   0.172   5.985
  134POPC   NC3 1970   5.853   3.053   8.302
  134POPC   PO4 1971   5.820   2.437   8.075
  134POPC   GL1 1972   5.811   2.752   7.694
  134POPC   GL2 1973   6.087   2.585   7.462
  134POPC   C1A 1974   5.921   3.021   7.311
  134POPC   D2A 1975   5.962   2.802   6.903
  134POPC   C3A 1976   6.258   2.905   6.594
  134POPC   C4A 1977   6.101   3.025   6.178
  134POPC   C1B 1978   5.654   2.572   7.247
  134POPC   C2B 1979   5.534   2.499   6.804
  134POPC   C3B 1980   5.420   2.596   6.377
  134POPC   C4B 1981   5.069   2.713   6.126
  135POPC   NC3 1982   8.635   5.409   8.056
  135POPC   PO4 1983   7.977   5.303   8.094
  135POPC   GL1 1984   8.296   5.235   7.736
  135POPC   GL2 1985   8.361   4.880   7.640
  135POPC   C1A 1986   8.235   5.214   7.277
  135POPC   D2A 1987   8.048   5.020   6.929
  135POPC   C3A 1988   8.304   4.919   6.586
  135POPC   C4A 1989   8.186   5.032   6.201
  135POPC   C1B 1990   8.146   4.670   7.312
  135POPC   C2B 1991   8.110   4.528   6.876
  135POPC   C3B 1992   7.918   4.644   6.427
  135POPC   C4B 1993   7.884   4.722   5.935
  136POPC   NC3 1994   6.828   8.237   8.054
  136POPC   PO4 1995   6.742   7.602   8.069
  136POPC   GL1 1996   6.837   7.869   7.678
  136POPC   GL2 1997   6.591   8.166   7.603
  136POPC   C1A 1998   6.770   7.890   7.224
  136POPC   D2A 1999   6.874   7.761   6.821
  136POPC   C3A 2000   6.853   8.004   6.450
  136POPC   C4A 2001   6.508   8.047   6.163
  136POPC   C1B 2002   6.236   8.091   7.279
  136POPC   C2B 2003   6.012   8.211   6.868
  136POPC   C3B 2004   6.148   8.314   6.444
  136POPC   C4B 2005   6.574   8.459   6.494
  137POPC   NC3 2006   8.875   0.425   8.095
  137POPC   PO4 2007   9.412   9.974   8.012
  137POPC   GL1 2008   9.165   0.210   7.682
  137POPC   GL2 2009   8.809   0.303   7.606
  137POPC   C1A 2010   9.275   0.258   7.233
  137POPC   D2A 2011   9.076   0.423   6.851
  137POPC   C3A 2012   9.050   0.259   6.449
  137POPC   C4A 2013   9.220   0.127   6.023
  137POPC   C1B 2014   8.771   0.164   7.183
  137POPC   C2B 2015   8.563   0.434   6.890
  137POPC   C3B 2016   8.614   0.572   6.480
  137POPC   C4B 2017   8.740   0.459   6.060
  138POPC   NC3 2018   5.557   7.288   8.114
  138POPC   PO4 2019   6.104   7.201   8.355
  138POPC   GL1 2020   5.948   7.372   7.818
  138POPC   GL2 2021   6.064   7.728   7.747
  138POPC   C1A 2022   6.116   7.458   7.341
  138POPC   D2A 2023   5.979   7.720   6.986
  138POPC   C3A 2024   5.865   7.448   6.643
  138POPC   C4A 2025   6.138   7.220   6.325
  138POPC   C1B 2026   5.659   7.634   7.471
  138POPC   C2B 2027   5.498   7.566   7.035
  138POPC   C3B 2028   5.362   7.654   6.589
  138POPC   C4B 2029   5.269   7.539   6.154
  139POPC   NC3 2030   0.400   3.535   8.427
  139POPC   PO4 2031   0.988   3.653   8.110
  139POPC   GL1 2032   0.839   3.400   7.772
  139POPC   GL2 2033   0.598   3.603   7.616
  139POPC   C1A 2034   0.715   3.182   7.408
  139POPC   D2A 2035   0.524   3.470   7.101
  139POPC   C3A 2036   0.740   3.461   6.715
  139POPC   C4A 2037   0.653   3.558   6.308
  139POPC   C1B 2038   0.236   3.816   7.384
  139POPC   C2B 2039   0.265   3.986   6.983
  139POPC   C3B 2040   0.266   3.704   6.642
  139POPC   C4B 2041   0.174   3.376   6.326
  140POPC   NC3 2042   8.742   8.291   8.292
  140POPC   PO4 2043   9.249   7.752   8.242
  140POPC   GL1 2044   9.070   7.878   7.841
  140POPC   GL2 2045   9.092   8.238   7.905
  140POPC   C1A 2046   8.816   7.930   7.419
  140POPC   D2A 2047   8.935   7.888   6.969
  140POPC   C3A 2048   8.730   7.913   6.570
  140POPC   C4A 2049   8.843   7.994   6.148
  140POPC   C1B 2050   8.888   8.428   7.542
  140POPC   C2B 2051   8.850   8.377   7.088
  140POPC   C3B 2052   9.024   8.334   6.657
  140POPC   C4B 2053   8.920   8.473   6.250
  141POPC   NC3 2054   6.889   3.397   8.044
  141POPC   PO4 2055   6.235   3.118   8.063
  141POPC   GL1 2056   6.393   3.012   7.608
  141POPC   GL2 2057   6.662   3.261   7.583
  141POPC   C1A 2058   6.406   3.040   7.109
  141POPC   D2A 2059   6.640   3.260   6.711
  141POPC   C3A 2060   6.382   3.385   6.351
  141POPC   C4A 2061   6.281   3.405   5.886
  141POPC   C1B 2062   6.648   3.482   7.185
  141POPC   C2B 2063   6.810   3.729   6.846
  141POPC   C3B 2064   6.711   3.772   6.407
  141POPC   C4B 2065   6.765   3.914   5.989
  142POPC   NC3 2066   1.441   3.749   8.270
  142POPC   PO4 2067   1.509   3.078   8.180
  142POPC   GL1 2068   1.352   3.306   7.803
  142POPC   GL2 2069   1.355   3.660   7.739
  142POPC   C1A 2070   1.216   3.144   7.401
  142POPC   D2A 2071   1.021   3.126   6.988
  142POPC   C3A 2072   1.204   3.214   6.596
  142POPC   C4A 2073   1.002   3.195   6.221
  142POPC   C1B 2074   1.079   3.628   7.350
  142POPC   C2B 2075   1.235   3.621   6.913
  142POPC   C3B 2076   1.125   3.721   6.477
  142POPC   C4B 2077   0.909   4.004   6.222
  143POPC   NC3 2078   8.694   1.290   8.219
  143POPC   PO4 2079   8.447   0.696   8.057
  143POPC   GL1 2080   8.699   0.855   7.724
  143POPC   GL2 2081   9.046   0.756   7.721
  143POPC   C1A 2082   8.648   1.083   7.328
  143POPC   D2A 2083   8.699   1.378   6.982
  143POPC   C3A 2084   8.525   1.271   6.555
  143POPC   C4A 2085   8.710   1.296   6.113
  143POPC   C1B 2086   8.954   0.678   7.277
  143POPC   C2B 2087   8.833   0.881   6.870
  143POPC   C3B 2088   8.929   0.963   6.433
  143POPC   C4B 2089   9.266   1.123   6.205
  144POPC   NC3 2090   2.012   3.820   3.743
  144POPC   PO4 2091   1.990   3.100   3.862
  144POPC   GL1 2092   1.996   3.467   4.129
  144POPC   GL2 2093   1.654   3.660   4.115
  144POPC   C1A 2094   2.212   3.475   4.541
  144POPC   D2A 2095   2.408   3.505   4.953
  144POPC   C3A 2096   2.343   3.288   5.347
  144POPC   C4A 2097   2.204   3.388   5.780
  144POPC   C1B 2098   1.729   3.661   4.566
  144POPC   C2B 2099   1.862   3.457   4.961
  144POPC   C3B 2100   1.865   3.520   5.418
  144POPC   C4B 2101   1.803   3.728   5.847
  145POPC   NC3 2102   2.567   2.060   4.009
  145POPC   PO4 2103   2.556   1.464   3.744
  145POPC   GL1 2104   2.443   1.552   4.182
  145POPC   GL2 2105   2.760   1.723   4.324
  145POPC   C1A 2106   2.392   1.690   4.637
  145POPC   D2A 2107   2.740   1.630   4.951
  145POPC   C3A 2108   2.623   1.509   5.370
  145POPC   C4A 2109   2.494   1.713   5.740
  145POPC   C1B 2110   2.956   1.993   4.646
  145POPC   C2B 2111   3.093   2.042   5.093
  145POPC   C3B 2112   2.919   1.924   5.488
  145POPC   C4B 2113   2.991   1.587   5.757
  146POPC   NC3 2114   7.351   7.028   3.852
  146POPC   PO4 2115   7.710   6.618   4.071
  146POPC   GL1 2116   7.418   6.720   4.380
  146POPC   GL2 2117   7.108   6.929   4.287
  146POPC   C1A 2118   7.472   6.658   4.847
  146POPC   D2A 2119   7.585   6.848   5.250
  146POPC   C3A 2120   7.418   6.601   5.580
  146POPC   C4A 2121   7.296   6.678   5.998
  146POPC   C1B 2122   7.009   6.869   4.736
  146POPC   C2B 2123   7.066   6.750   5.200
  146POPC   C3B 2124   6.919   6.455   5.569
  146POPC   C4B 2125   7.022   6.231   5.950
  147POPC   NC3 2126   5.657   9.225   3.984
  147POPC   PO4 2127   5.376   8.637   3.887
  147POPC   GL1 2128   5.660   8.773   4.261
  147POPC   GL2 2129   5.979   8.855   4.416
  147POPC   C1A 2130   5.639   8.821   4.754
  147POPC   D2A 2131   5.863   8.973   5.124
  147POPC   C3A 2132   5.697   8.766   5.491
  147POPC   C4A 2133   5.480   8.869   5.879
  147POPC   C1B 2134   6.120   8.614   4.733
  147POPC   C2B 2135   6.268   8.668   5.114
  147POPC   C3B 2136   6.262   8.738   5.527
  147POPC   C4B 2137   6.010   8.884   5.870
  148POPC   NC3 2138   0.981   5.090   3.819
  148POPC   PO4 2139   1.586   5.347   3.986
  148POPC   GL1 2140   1.155   5.296   4.262
  148POPC   GL2 2141   1.226   4.980   4.423
  148POPC   C1A 2142   0.904   5.243   4.713
  148POPC   D2A 2143   0.950   5.035   5.145
  148POPC   C3A 2144   1.027   5.195   5.580
  148POPC   C4A 2145   0.848   5.366   5.994
  148POPC   C1B 2146   1.382   5.113   4.844
  148POPC   C2B 2147   1.451   5.081   5.292
  148POPC   C3B 2148   1.516   5.054   5.748
  148POPC   C4B 2149   1.816   5.232   6.042
  149POPC   NC3 2150   6.509   8.131   3.894
  149POPC   PO4 2151   6.123   8.614   4.017
  149POPC   GL1 2152   6.341   8.310   4.367
  149POPC   GL2 2153   6.454   7.916   4.387
  149POPC   C1A 2154   6.490   8.220   4.817
  149POPC   D2A 2155   6.308   8.190   5.252
  149POPC   C3A 2156   6.469   8.215   5.652
  149POPC   C4A 2157   6.324   8.479   5.974
  149POPC   C1B 2158   6.819   7.851   4.730
  149POPC   C2B 2159   6.818   8.002   5.152
  149POPC   C3B 2160   6.849   7.870   5.587
  149POPC   C4B 2161   6.926   8.150   5.931
  150POPC   NC3 2162   8.959   2.450   3.904
  150POPC   PO4 2163   8.945   3.080   3.940
  150POPC   GL1 2164   9.039   3.038   4.349
  150POPC   GL2 2165   9.044   2.669   4.372
  150POPC   C1A 2166   8.787   3.202   4.677
  150POPC   D2A 2167   8.541   2.985   4.987
  150POPC   C3A 2168   8.749   3.011   5.373
  150POPC   C4A 2169   8.541   2.992   5.772
  150POPC   C1B 2170   9.025   2.768   4.834
  150POPC   C2B 2171   8.888   2.534   5.204
  150POPC   C3B 2172   8.857   2.578   5.654
  150POPC   C4B 2173   8.933   2.593   6.058
  151POPC   NC3 2174   8.038   2.199   3.955
  151POPC   PO4 2175   8.648   2.136   4.085
  151POPC   GL1 2176   8.485   1.826   4.368
  151POPC   GL2 2177   8.139   1.902   4.361
  151POPC   C1A 2178   8.520   1.790   4.793
  151POPC   D2A 2179   8.678   1.766   5.188
  151POPC   C3A 2180   8.315   1.770   5.442
  151POPC   C4A 2181   8.265   1.807   5.873
  151POPC   C1B 2182   8.033   2.211   4.682
  151POPC   C2B 2183   7.978   2.098   5.102
  151POPC   C3B 2184   8.113   2.218   5.490
  151POPC   C4B 2185   7.906   2.146   5.854
  152POPC   NC3 2186   8.865   4.226   3.944
  152POPC   PO4 2187   9.050   4.839   3.824
  152POPC   GL1 2188   9.046   4.624   4.244
  152POPC   GL2 2189   9.193   4.310   4.316
  152POPC   C1A 2190   9.175   4.586   4.725
  152POPC   D2A 2191   9.339   4.605   5.142
  152POPC   C3A 2192   8.963   4.547   5.418
  152POPC   C4A 2193   8.739   4.410   5.822
  152POPC   C1B 2194   8.871   4.156   4.643
  152POPC   C2B 2195   8.797   4.000   5.087
  152POPC   C3B 2196   8.897   3.987   5.546
  152POPC   C4B 2197   9.028   3.930   5.968
  153POPC   NC3 2198   7.345   7.767   4.191
  153POPC   PO4 2199   7.639   7.322   3.668
  153POPC   GL1 2200   7.559   7.236   4.243
  153POPC   GL2 2201   7.666   7.543   4.535
  153POPC   C1A 2202   7.447   7.131   4.667
  153POPC   D2A 2203   7.534   7.327   5.040
  153POPC   C3A 2204   7.230   7.230   5.344
  153POPC   C4A 2205   7.437   7.086   5.720
  153POPC   C1B 2206   7.333   7.746   4.812
  153POPC   C2B 2207   7.259   7.750   5.222
  153POPC   C3B 2208   7.538   7.592   5.515
  153POPC   C4B 2209   7.214   7.522   5.796
  154POPC   NC3 2210   1.177   3.503   3.880
  154POPC   PO4 2211   0.614   3.709   4.075
  154POPC   GL1 2212   0.826   3.666   4.436
  154POPC   GL2 2213   1.104   3.439   4.387
  154POPC   C1A 2214   0.905   3.665   4.883
  154POPC   D2A 2215   1.029   3.412   5.217
  154POPC   C3A 2216   0.834   3.581   5.533
  154POPC   C4A 2217   0.967   3.628   5.915
  154POPC   C1B 2218   1.337   3.438   4.796
  154POPC   C2B 2219   1.441   3.717   5.150
  154POPC   C3B 2220   1.374   3.613   5.599
  154POPC   C4B 2221   1.416   3.504   6.097
  155POPC   NC3 2222   0.220   4.938   4.162
  155POPC   PO4 2223   0.773   4.629   3.841
  155POPC   GL1 2224   0.824   4.696   4.264
  155POPC   GL2 2225   0.697   5.017   4.315
  155POPC   C1A 2226   0.818   4.758   4.717
  155POPC   D2A 2227   0.467   4.925   5.013
  155POPC   C3A 2228   0.531   5.079   5.444
  155POPC   C4A 2229   0.362   4.896   5.826
  155POPC   C1B 2230   0.398   5.271   4.646
  155POPC   C2B 2231   0.088   5.349   5.005
  155POPC   C3B 2232   0.156   5.512   5.430
  155POPC   C4B 2233   0.365   5.410   5.820
  156POPC   NC3 2234   9.079   8.146   3.710
  156POPC   PO4 2235   8.616   7.796   3.856
  156POPC   GL1 2236   8.717   7.925   4.256
  156POPC   GL2 2237   9.054   7.873   4.231
  156POPC   C1A 2238   8.515   8.051   4.670
  156POPC   D2A 2239   8.406   8.334   5.043
  156POPC   C3A 2240   8.725   8.336   5.403
  156POPC   C4A 2241   8.578   8.349   5.838
  156POPC   C1B 2242   9.061   8.181   4.564
  156POPC   C2B 2243   9.317   8.316   4.921
  156POPC   C3B 2244   9.265   8.362   5.367
  156POPC   C4B 2245   9.083   8.272   5.780
  157POPC   NC3 2246   7.588   2.657   3.889
  157POPC   PO4 2247   7.016   2.255   3.872
  157POPC   GL1 2248   7.188   2.396   4.275
  157POPC   GL2 2249   7.279   2.704   4.269
  157POPC   C1A 2250   7.186   2.474   4.726
  157POPC   D2A 2251   7.106   2.373   5.128
  157POPC   C3A 2252   7.219   2.607   5.446
  157POPC   C4A 2253   7.301   2.889   5.734
  157POPC   C1B 2254   7.652   2.586   4.561
  157POPC   C2B 2255   7.616   2.482   5.012
  157POPC   C3B 2256   7.620   2.310   5.436
  157POPC   C4B 2257   7.476   2.426   5.859
  158POPC   NC3 2258   5.040   0.546   4.053
  158POPC   PO4 2259   5.158   9.923   3.949
  158POPC   GL1 2260   5.230   0.150   4.398
  158POPC   GL2 2261   5.289   0.533   4.499
  158POPC   C1A 2262   5.126   0.247   4.869
  158POPC   D2A 2263   5.318   0.517   5.216
  158POPC   C3A 2264   5.327   0.279   5.614
  158POPC   C4A 2265   5.568   0.318   6.006
  158POPC   C1B 2266   4.959   0.741   4.741
  158POPC   C2B 2267   4.817   0.622   5.148
  158POPC   C3B 2268   4.884   0.610   5.587
  158POPC   C4B 2269   4.669   0.838   5.933
  159POPC   NC3 2270   1.350   6.729   3.992
  159POPC   PO4 2271   0.863   6.217   3.884
  159POPC   GL1 2272   1.053   6.369   4.228
  159POPC   GL2 2273   1.378   6.330   4.407
  159POPC   C1A 2274   0.925   6.587   4.585
  159POPC   D2A 2275   0.980   6.843   4.959
  159POPC   C3A 2276   1.128   6.648   5.347
  159POPC   C4A 2277   0.931   6.764   5.741
  159POPC   C1B 2278   1.419   6.738   4.661
  159POPC   C2B 2279   1.475   6.949   5.068
  159POPC   C3B 2280   1.608   6.842   5.493
  159POPC   C4B 2281   1.420   6.512   5.768
  160POPC   NC3 2282   0.570   5.817   3.791
  160POPC   PO4 2283   0.506   5.137   3.846
  160POPC   GL1 2284   0.606   5.483   4.174
  160POPC   GL2 2285   0.315   5.666   4.235
  160POPC   C1A 2286   0.685   5.683   4.621
  160POPC   D2A 2287   0.592   5.494   5.070
  160POPC   C3A 2288   0.753   5.618   5.486
  160POPC   C4A 2289   0.639   5.852   5.879
  160POPC   C1B 2290   0.167   5.739   4.659
  160POPC   C2B 2291   0.328   5.964   5.005
  160POPC   C3B 2292   0.408   5.989   5.434
  160POPC   C4B 2293   0.138   5.933   5.792
  161POPC   NC3 2294   0.536   7.519   3.916
  161POPC   PO4 2295   0.014   7.043   3.870
  161POPC   GL1 2296   0.190   7.280   4.209
  161POPC   GL2 2297   0.510   7.090   4.239
  161POPC   C1A 2298   0.270   7.492   4.617
  161POPC   D2A 2299   0.143   7.692   5.033
  161POPC   C3A 2300   0.309   7.540   5.449
  161POPC   C4A 2301   0.548   7.601   5.867
  161POPC   C1B 2302   0.692   7.198   4.671
  161POPC   C2B 2303   0.664   7.508   5.029
  161POPC   C3B 2304   0.791   7.414   5.470
  161POPC   C4B 2305   0.531   7.104   5.725
  162POPC   NC3 2306   4.166   3.538   3.788
  162POPC   PO4 2307   4.417   4.026   3.774
  162POPC   GL1 2308   4.387   3.728   4.198
  162POPC   GL2 2309   4.529   3.380   4.182
  162POPC   C1A 2310   4.177   3.422   4.542
  162POPC   D2A 2311   4.167   3.123   4.918
  162POPC   C3A 2312   3.911   3.176   5.304
  162POPC   C4A 2313   3.775   3.452   5.643
  162POPC   C1B 2314   4.643   3.204   4.643
  162POPC   C2B 2315   4.611   2.927   5.042
  162POPC   C3B 2316   4.338   2.890   5.432
  162POPC   C4B 2317   4.078   3.043   5.791
  163POPC   NC3 2318   8.131   7.048   3.842
  163POPC   PO4 2319   7.772   7.628   4.063
  163POPC   GL1 2320   8.117   7.366   4.248
  163POPC   GL2 2321   8.442   7.503   4.283
  163POPC   C1A 2322   8.353   7.109   4.614
  163POPC   D2A 2323   8.437   6.940   5.059
  163POPC   C3A 2324   8.089   6.940   5.363
  163POPC   C4A 2325   7.942   7.123   5.741
  163POPC   C1B 2326   8.219   7.606   4.677
  163POPC   C2B 2327   8.136   7.358   5.039
  163POPC   C3B 2328   8.327   7.388   5.446
  163POPC   C4B 2329   8.034   7.626   5.635
  164POPC   NC3 2330   8.171   7.816   3.967
  164POPC   PO4 2331   7.537   8.133   3.943
  164POPC   GL1 2332   7.745   8.062   4.324
  164POPC   GL2 2333   8.022   8.252   4.216
  164POPC   C1A 2334   7.981   8.062   4.726
  164POPC   D2A 2335   8.034   7.876   5.150
  164POPC   C3A 2336   8.302   8.050   5.482
  164POPC   C4A 2337   8.466   7.853   5.847
  164POPC   C1B 2338   7.823   8.522   4.527
  164POPC   C2B 2339   7.889   8.512   4.982
  164POPC   C3B 2340   8.036   8.505   5.427
  164POPC   C4B 2341   8.068   8.402   5.899
  165POPC   NC3 2342   6.392   0.499   3.890
  165POPC   PO4 2343   6.091   1.024   4.068
  165POPC   GL1 2344   6.364   0.774   4.329
  165POPC   GL2 2345   6.659   0.553   4.318
  165POPC   C1A 2346   6.497   0.813   4.741
  165POPC   D2A 2347   6.403   0.548   5.072
  165POPC   C3A 2348   6.267   0.709   5.445
  165POPC   C4A 2349   6.338   0.605   5.851
  165POPC   C1B 2350   6.619   0.286   4.666
  165POPC   C2B 2351   6.621   0.070   5.053
  165POPC   C3B 2352   6.681   0.270   5.401
  165POPC   C4B 2353   6.563   0.157   5.768
  166POPC   NC3 2354   3.147   8.730   3.969
  166POPC   PO4 2355   3.786   8.948   3.982
  166POPC   GL1 2356   3.456   8.920   4.359
  166POPC   GL2 2357   3.404   9.254   4.527
  166POPC   C1A 2358   3.309   8.877   4.832
  166POPC   D2A 2359   3.413   9.222   5.130
  166POPC   C3A 2360   3.298   9.240   5.597
  166POPC   C4A 2361   3.331   9.291   6.060
  166POPC   C1B 2362   3.816   9.146   4.662
  166POPC   C2B 2363   3.841   8.978   5.033
  166POPC   C3B 2364   3.730   8.952   5.446
  166POPC   C4B 2365   3.738   9.065   5.856
  167POPC   NC3 2366   7.145   9.273   3.814
  167POPC   PO4 2367   6.953   9.901   3.887
  167POPC   GL1 2368   7.091   9.620   4.249
  167POPC   GL2 2369   7.430   9.485   4.186
  167POPC   C1A 2370   7.113   9.381   4.683
  167POPC   D2A 2371   7.332   9.301   5.084
  167POPC   C3A 2372   7.113   9.408   5.480
  167POPC   C4A 2373   7.196   9.556   5.928
  167POPC   C1B 2374   7.488   9.705   4.573
  167POPC   C2B 2375   7.568   9.781   5.007
  167POPC   C3B 2376   7.542   9.707   5.434
  167POPC   C4B 2377   7.387   9.995   5.722
  168POPC   NC3 2378   9.020   7.506   3.887
  168POPC   PO4 2379   8.571   7.116   3.967
  168POPC   GL1 2380   8.791   7.080   4.346
  168POPC   GL2 2381   8.938   7.381   4.364
  168POPC   C1A 2382   8.829   7.182   4.812
  168POPC   D2A 2383   8.811   7.323   5.228
  168POPC   C3A 2384   8.822   7.014   5.573
  168POPC   C4A 2385   9.053   7.137   5.979
  168POPC   C1B 2386   8.895   7.697   4.695
  168POPC   C2B 2387   8.912   7.999   5.050
  168POPC   C3B 2388   8.943   7.863   5.494
  168POPC   C4B 2389   8.793   7.500   5.719
  169POPC   NC3 2390   3.893   8.064   3.997
  169POPC   PO4 2391   3.233   7.839   3.803
  169POPC   GL1 2392   3.394   8.143   4.167
  169POPC   GL2 2393   3.630   8.461   4.200
  169POPC   C1A 2394   3.303   8.317   4.594
  169POPC   D2A 2395   3.219   8.121   5.015
  169POPC   C3A 2396   3.376   8.195   5.408
  169POPC   C4A 2397   3.431   8.055   5.810
  169POPC   C1B 2398   3.711   8.603   4.659
  169POPC   C2B 2399   3.609   8.542   5.113
  169POPC   C3B 2400   3.801   8.455   5.538
  169POPC   C4B 2401   3.727   8.442   5.965
  170POPC   NC3 2402   7.256   0.921   3.935
  170POPC   PO4 2403   7.395   1.557   3.894
  170POPC   GL1 2404   7.402   1.242   4.286
  170POPC   GL2 2405   7.730   1.259   4.434
  170POPC   C1A 2406   7.418   1.020   4.757
  170POPC   D2A 2407   7.493   1.118   5.230
  170POPC   C3A 2408   7.218   0.903   5.563
  170POPC   C4A 2409   6.793   0.725   5.593
  170POPC   C1B 2410   7.366   1.520   4.688
  170POPC   C2B 2411   7.146   1.483   5.075
  170POPC   C3B 2412   7.271   1.472   5.539
  170POPC   C4B 2413   7.553   1.219   5.797
  171POPC   NC3 2414   2.243   6.272   3.897
  171POPC   PO4 2415   1.605   6.347   3.969
  171POPC   GL1 2416   1.920   6.119   4.280
  171POPC   GL2 2417   1.855   5.774   4.288
  171POPC   C1A 2418   2.105   6.005   4.727
  171POPC   D2A 2419   1.943   5.994   5.198
  171POPC   C3A 2420   2.103   5.976   5.673
  171POPC   C4A 2421   2.227   6.041   6.163
  171POPC   C1B 2422   1.613   5.929   4.680
  171POPC   C2B 2423   1.420   6.000   5.104
  171POPC   C3B 2424   1.556   6.032   5.575
  171POPC   C4B 2425   1.701   5.756   5.946
  172POPC   NC3 2426   0.723   4.125   3.869
  172POPC   PO4 2427   1.361   3.845   3.643
  172POPC   GL1 2428   1.187   3.934   4.131
  172POPC   GL2 2429   0.950   4.180   4.304
  172POPC   C1A 2430   1.258   3.909   4.604
  172POPC   D2A 2431   1.115   4.125   5.003
  172POPC   C3A 2432   1.039   4.045   5.459
  172POPC   C4A 2433   0.648   4.012   5.738
  172POPC   C1B 2434   1.199   4.435   4.590
  172POPC   C2B 2435   1.230   4.630   5.003
  172POPC   C3B 2436   1.177   4.647   5.457
  172POPC   C4B 2437   1.444   4.515   5.804
  173POPC   NC3 2438   2.137   7.319   3.814
  173POPC   PO4 2439   2.415   6.675   3.756
  173POPC   GL1 2440   2.212   6.645   4.250
  173POPC   GL2 2441   1.828   6.618   4.345
  173POPC   C1A 2442   2.087   6.798   4.723
  173POPC   D2A 2443   1.969   7.009   5.121
  173POPC   C3A 2444   2.284   7.123   5.419
  173POPC   C4A 2445   2.358   6.836   5.734
  173POPC   C1B 2446   1.786   6.396   4.731
  173POPC   C2B 2447   1.685   6.458   5.155
  173POPC   C3B 2448   1.912   6.440   5.543
  173POPC   C4B 2449   1.842   6.292   5.955
  174POPC   NC3 2450   7.143   4.600   4.033
  174POPC   PO4 2451   7.506   4.072   3.984
  174POPC   GL1 2452   7.388   4.175   4.366
  174POPC   GL2 2453   7.583   3.928   4.503
  174POPC   C1A 2454   7.262   4.224   4.811
  174POPC   D2A 2455   7.348   4.224   5.258
  174POPC   C3A 2456   7.051   4.135   5.612
  174POPC   C4A 2457   7.198   4.154   6.078
  174POPC   C1B 2458   7.792   4.287   4.679
  174POPC   C2B 2459   7.892   4.403   5.110
  174POPC   C3B 2460   7.645   4.585   5.440
  174POPC   C4B 2461   7.558   4.296   5.749
  175POPC   NC3 2462   4.087   7.357   4.153
  175POPC   PO4 2463   3.908   6.796   4.208
  175POPC   GL1 2464   3.860   7.100   4.568
  175POPC   GL2 2465   3.826   7.494   4.627
  175POPC   C1A 2466   4.080   7.194   4.947
  175POPC   D2A 2467   4.389   7.382   5.225
  175POPC   C3A 2468   4.387   7.266   5.667
  175POPC   C4A 2469   4.316   7.139   6.117
  175POPC   C1B 2470   4.003   7.712   4.997
  175POPC   C2B 2471   4.369   7.881   5.243
  175POPC   C3B 2472   4.441   7.808   5.688
  175POPC   C4B 2473   4.188   7.612   6.024
  176POPC   NC3 2474   8.658   4.926   4.046
  176POPC   PO4 2475   8.252   5.436   3.740
  176POPC   GL1 2476   8.226   5.205   4.117
  176POPC   GL2 2477   8.095   4.870   3.988
  176POPC   C1A 2478   8.379   5.213   4.568
  176POPC   D2A 2479   8.302   5.253   5.014
  176POPC   C3A 2480   8.349   5.292   5.468
  176POPC   C4A 2481   8.449   5.351   5.911
  176POPC   C1B 2482   8.036   4.824   4.441
  176POPC   C2B 2483   8.005   4.851   4.895
  176POPC   C3B 2484   8.070   4.865   5.350
  176POPC   C4B 2485   8.317   4.838   5.723
  177POPC   NC3 2486   0.319   4.729   3.717
  177POPC   PO4 2487   0.246   4.089   3.854
  177POPC   GL1 2488   0.425   4.370   4.204
  177POPC   GL2 2489   0.440   4.072   4.371
  177POPC   C1A 2490   0.391   4.492   4.690
  177POPC   D2A 2491   0.716   4.463   5.098
  177POPC   C3A 2492   0.644   4.550   5.537
  177POPC   C4A 2493   0.492   4.438   5.971
  177POPC   C1B 2494   0.689   4.087   4.730
  177POPC   C2B 2495   0.590   3.977   5.169
  177POPC   C3B 2496   0.270   4.219   5.426
  177POPC   C4B 2497   0.106   4.107   5.856
  178POPC   NC3 2498   8.662   9.750   4.078
  178POPC   PO4 2499   9.269   9.429   3.862
  178POPC   GL1 2500   9.099   9.603   4.260
  178POPC   GL2 2501   9.091   9.967   4.325
  178POPC   C1A 2502   8.990   9.544   4.680
  178POPC   D2A 2503   9.152   9.374   5.048
  178POPC   C3A 2504   8.984   9.479   5.472
  178POPC   C4A 2505   9.095   9.204   5.835
  178POPC   C1B 2506   8.868   0.032   4.746
  178POPC   C2B 2507   8.978   9.937   5.210
  178POPC   C3B 2508   8.895   9.954   5.695
  178POPC   C4B 2509   8.726   9.975   6.176
  179POPC   NC3 2510   3.494   7.443   3.666
  179POPC   PO4 2511   4.065   7.683   3.788
  179POPC   GL1 2512   3.634   7.659   4.118
  179POPC   GL2 2513   3.569   7.357   4.222
  179POPC   C1A 2514   3.391   7.772   4.556
  179POPC   D2A 2515   3.202   7.626   4.961
  179POPC   C3A 2516   3.449   7.679   5.352
  179POPC   C4A 2517   3.428   7.315   5.608
  179POPC   C1B 2518   3.374   7.235   4.636
  179POPC   C2B 2519   3.581   7.275   5.060
  179POPC   C3B 2520   3.893   7.379   5.400
  179POPC   C4B 2521   3.904   7.238   5.823
  180POPC   NC3 2522   9.942   2.602   3.804
  180POPC   PO4 2523   9.939   3.186   4.154
  180POPC   GL1 2524   9.793   2.979   4.480
  180POPC   GL2 2525   9.536   2.742   4.470
  180POPC   C1A 2526   9.788   2.849   4.882
  180POPC   D2A 2527   9.598   3.046   5.163
  180POPC   C3A 2528   9.734   2.883   5.540
  180POPC   C4A 2529   9.527   3.163   5.780
  180POPC   C1B 2530   9.387   2.422   4.729
  180POPC   C2B 2531   9.409   2.536   5.149
  180POPC   C3B 2532   9.240   2.831   5.451
  180POPC   C4B 2533   9.371   2.606   5.815
  181POPC   NC3 2534   1.021   1.224   3.980
  181POPC   PO4 2535   0.900   0.643   3.670
  181POPC   GL1 2536   1.175   0.763   4.122
  181POPC   GL2 2537   1.438   1.017   4.277
  181POPC   C1A 2538   1.044   0.953   4.588
  181POPC   D2A 2539   1.207   1.239   4.918
  181POPC   C3A 2540   1.200   1.162   5.365
  181POPC   C4A 2541   1.162   1.101   5.815
  181POPC   C1B 2542   1.632   1.309   4.658
  181POPC   C2B 2543   1.619   1.499   5.136
  181POPC   C3B 2544   1.610   1.369   5.603
  181POPC   C4B 2545   1.538   1.367   6.080
  182POPC   NC3 2546   2.190   1.622   3.503
  182POPC   PO4 2547   1.946   1.801   4.094
  182POPC   GL1 2548   1.811   2.025   4.450
  182POPC   GL2 2549   1.708   2.349   4.330
  182POPC   C1A 2550   1.905   1.845   4.866
  182POPC   D2A 2551   2.300   1.858   5.113
  182POPC   C3A 2552   2.356   2.118   5.432
  182POPC   C4A 2553   2.139   2.068   5.802
  182POPC   C1B 2554   1.748   2.508   4.746
  182POPC   C2B 2555   1.964   2.294   5.110
  182POPC   C3B 2556   1.825   1.990   5.413
  182POPC   C4B 2557   1.677   2.267   5.758
  183POPC   NC3 2558   7.758   1.241   3.895
  183POPC   PO4 2559   8.363   1.523   3.647
  183POPC   GL1 2560   8.188   1.441   4.145
  183POPC   GL2 2561   8.392   1.213   4.307
  183POPC   C1A 2562   8.178   1.415   4.690
  183POPC   D2A 2563   8.340   1.362   5.162
  183POPC   C3A 2564   8.043   1.371   5.609
  183POPC   C4A 2565   7.804   1.621   5.993
  183POPC   C1B 2566   8.513   1.020   4.740
  183POPC   C2B 2567   8.513   0.887   5.184
  183POPC   C3B 2568   8.492   1.112   5.626
  183POPC   C4B 2569   8.415   0.882   6.065
  184POPC   NC3 2570   8.245   8.959   3.882
  184POPC   PO4 2571   7.578   9.096   3.821
  184POPC   GL1 2572   7.883   9.240   4.127
  184POPC   GL2 2573   7.964   8.943   4.289
  184POPC   C1A 2574   8.010   9.350   4.585
  184POPC   D2A 2575   7.852   9.351   5.012
  184POPC   C3A 2576   8.044   9.223   5.409
  184POPC   C4A 2577   7.838   8.941   5.710
  184POPC   C1B 2578   8.192   8.857   4.651
  184POPC   C2B 2579   8.245   8.889   5.073
  184POPC   C3B 2580   8.464   8.759   5.418
  184POPC   C4B 2581   8.319   8.814   5.793
  185POPC   NC3 2582   8.114   9.498   3.711
  185POPC   PO4 2583   8.361   0.126   3.942
  185POPC   GL1 2584   8.213   9.834   4.267
  185POPC   GL2 2585   7.887   9.740   4.240
  185POPC   C1A 2586   8.434   9.683   4.676
  185POPC   D2A 2587   8.636   9.601   5.061
  185POPC   C3A 2588   8.504   9.760   5.440
  185POPC   C4A 2589   8.530   9.637   5.875
  185POPC   C1B 2590   7.964   9.855   4.703
  185POPC   C2B 2591   8.066   9.781   5.164
  185POPC   C3B 2592   8.014   9.815   5.625
  185POPC   C4B 2593   7.856   0.147   5.901
  186POPC   NC3 2594   4.988   2.117   3.914
  186POPC   PO4 2595   5.186   1.432   4.024
  186POPC   GL1 2596   5.107   1.729   4.309
  186POPC   GL2 2597   5.222   2.036   4.358
  186POPC   C1A 2598   4.957   1.742   4.736
  186POPC   D2A 2599   5.024   1.921   5.154
  186POPC   C3A 2600   4.795   1.916   5.573
  186POPC   C4A 2601   4.686   1.870   6.064
  186POPC   C1B 2602   5.037   2.257   4.727
  186POPC   C2B 2603   4.879   2.415   5.120
  186POPC   C3B 2604   5.039   2.463   5.521
  186POPC   C4B 2605   4.888   2.301   5.884
  187POPC   NC3 2606   3.397   2.856   3.950
  187POPC   PO4 2607   4.023   3.129   3.939
  187POPC   GL1 2608   3.863   3.009   4.367
  187POPC   GL2 2609   3.665   2.705   4.404
  187POPC   C1A 2610   3.671   3.001   4.812
  187POPC   D2A 2611   3.282   2.861   5.049
  187POPC   C3A 2612   3.268   2.851   5.503
  187POPC   C4A 2613   2.969   2.734   5.813
  187POPC   C1B 2614   3.573   2.466   4.808
  187POPC   C2B 2615   3.453   2.403   5.272
  187POPC   C3B 2616   3.357   2.406   5.748
  187POPC   C4B 2617   3.462   2.745   6.061
  188POPC   NC3 2618   2.828   8.060   3.707
  188POPC   PO4 2619   2.227   7.817   3.848
  188POPC   GL1 2620   2.493   8.014   4.220
  188POPC   GL2 2621   2.865   8.087   4.198
  188POPC   C1A 2622   2.399   8.146   4.673
  188POPC   D2A 2623   2.187   8.029   5.065
  188POPC   C3A 2624   2.443   8.127   5.421
  188POPC   C4A 2625   2.497   8.430   5.750
  188POPC   C1B 2626   2.892   8.026   4.612
  188POPC   C2B 2627   2.807   8.383   4.917
  188POPC   C3B 2628   2.881   8.401   5.382
  188POPC   C4B 2629   2.934   8.181   5.798
  189POPC   NC3 2630   9.329   5.120   4.043
  189POPC   PO4 2631   9.967   5.321   4.082
  189POPC   GL1 2632   9.723   5.027   4.351
  189POPC   GL2 2633   9.561   4.693   4.285
  189POPC   C1A 2634   9.587   4.958   4.768
  189POPC   D2A 2635   9.626   5.092   5.151
  189POPC   C3A 2636   9.490   4.900   5.554
  189POPC   C4A 2637   9.413   5.143   5.955
  189POPC   C1B 2638   9.693   4.476   4.689
  189POPC   C2B 2639   9.874   4.621   5.117
  189POPC   C3B 2640   0.024   4.952   5.426
  189POPC   C4B 2641   9.886   5.015   5.856
  190POPC   NC3 2642   8.740   1.242   3.705
  190POPC   PO4 2643   9.332   1.425   3.920
  190POPC   GL1 2644   8.915   1.304   4.178
  190POPC   GL2 2645   8.765   0.924   4.170
  190POPC   C1A 2646   8.814   1.409   4.597
  190POPC   D2A 2647   9.062   1.498   4.968
  190POPC   C3A 2648   8.929   1.356   5.375
  190POPC   C4A 2649   9.157   1.377   5.775
  190POPC   C1B 2650   8.972   0.902   4.535
  190POPC   C2B 2651   9.028   0.976   4.974
  190POPC   C3B 2652   8.967   0.855   5.409
  190POPC   C4B 2653   8.893   0.906   5.863
  191POPC   NC3 2654   0.772   2.743   4.069
  191POPC   PO4 2655   1.387   2.416   3.946
  191POPC   GL1 2656   1.287   2.734   4.242
  191POPC   GL2 2657   1.296   3.038   4.048
  191POPC   C1A 2658   1.098   2.965   4.622
  191POPC   D2A 2659   0.954   2.926   5.081
  191POPC   C3A 2660   1.222   2.701   5.365
  191POPC   C4A 2661   1.528   2.754   5.703
  191POPC   C1B 2662   1.550   3.147   4.431
  191POPC   C2B 2663   1.553   2.997   4.899
  191POPC   C3B 2664   1.475   3.166   5.331
  191POPC   C4B 2665   1.175   3.156   5.715
  192POPC   NC3 2666   1.902   9.653   3.786
  192POPC   PO4 2667   1.342   9.701   4.057
  192POPC   GL1 2668   1.718   9.568   4.263
  192POPC   GL2 2669   2.039   9.755   4.255
  192POPC   C1A 2670   1.843   9.463   4.686
  192POPC   D2A 2671   2.068   9.550   5.076
  192POPC   C3A 2672   1.907   9.605   5.503
  192POPC   C4A 2673   1.661   9.365   5.816
  192POPC   C1B 2674   2.234   9.773   4.627
  192POPC   C2B 2675   2.392   9.954   4.954
  192POPC   C3B 2676   2.209   0.073   5.322
  192POPC   C4B 2677   2.147   0.030   5.741
  193POPC   NC3 2678   7.977   6.247   4.100
  193POPC   PO4 2679   8.367   6.640   3.745
  193POPC   GL1 2680   8.255   6.726   4.219
  193POPC   GL2 2681   7.951   6.914   4.383
  193POPC   C1A 2682   8.287   6.586   4.671
  193POPC   D2A 2683   8.495   6.433   5.091
  193POPC   C3A 2684   8.467   6.615   5.523
  193POPC   C4A 2685   8.281   6.432   5.915
  193POPC   C1B 2686   7.920   6.917   4.837
  193POPC   C2B 2687   7.972   6.536   5.088
  193POPC   C3B 2688   7.952   6.437   5.526
  193POPC   C4B 2689   7.792   6.570   5.941
  194POPC   NC3 2690   7.797   5.399   3.857
  194POPC   PO4 2691   7.529   4.798   3.913
  194POPC   GL1 2692   7.544   4.664   4.374
  194POPC   GL2 2693   7.227   4.831   4.484
  194POPC   C1A 2694   7.516   4.673   4.878
  194POPC   D2A 2695   7.527   5.022   5.185
  194POPC   C3A 2696   7.550   5.040   5.655
  194POPC   C4A 2697   7.956   5.227   5.783
  194POPC   C1B 2698   7.010   4.791   4.905
  194POPC   C2B 2699   7.155   4.702   5.321
  194POPC   C3B 2700   7.128   4.618   5.745
  194POPC   C4B 2701   6.963   4.609   6.221
  195POPC   NC3 2702   3.614   1.813   4.081
  195POPC   PO4 2703   3.685   2.478   3.957
  195POPC   GL1 2704   3.772   2.205   4.359
  195POPC   GL2 2705   3.410   2.198   4.381
  195POPC   C1A 2706   3.930   1.794   4.633
  195POPC   D2A 2707   4.056   1.668   5.064
  195POPC   C3A 2708   3.891   1.709   5.521
  195POPC   C4A 2709   3.815   1.718   6.017
  195POPC   C1B 2710   3.461   1.948   4.733
  195POPC   C2B 2711   3.610   1.923   5.129
  195POPC   C3B 2712   3.438   1.954   5.524
  195POPC   C4B 2713   3.348   1.905   5.934
  196POPC   NC3 2714   4.730   1.382   4.000
  196POPC   PO4 2715   4.016   1.535   3.927
  196POPC   GL1 2716   3.927   1.376   4.330
  196POPC   GL2 2717   4.153   1.123   4.266
  196POPC   C1A 2718   4.062   1.254   4.767
  196POPC   D2A 2719   4.098   1.168   5.234
  196POPC   C3A 2720   4.365   1.490   5.447
  196POPC   C4A 2721   4.676   1.441   5.758
  196POPC   C1B 2722   4.509   1.040   4.556
  196POPC   C2B 2723   4.548   1.033   4.997
  196POPC   C3B 2724   4.585   1.018   5.444
  196POPC   C4B 2725   4.256   1.106   5.763
  197POPC   NC3 2726   7.404   7.720   3.721
  197POPC   PO4 2727   6.871   7.933   4.083
  197POPC   GL1 2728   7.080   8.163   4.391
  197POPC   GL2 2729   7.334   8.434   4.349
  197POPC   C1A 2730   7.008   8.346   4.777
  197POPC   D2A 2731   7.242   8.542   5.096
  197POPC   C3A 2732   7.131   8.289   5.433
  197POPC   C4A 2733   7.324   8.013   5.679
  197POPC   C1B 2734   7.490   8.223   4.753
  197POPC   C2B 2735   7.590   8.145   5.200
  197POPC   C3B 2736   7.801   8.083   5.603
  197POPC   C4B 2737   7.631   8.193   6.033
  198POPC   NC3 2738   8.921   3.492   3.734
  198POPC   PO4 2739   9.308   3.942   3.979
  198POPC   GL1 2740   9.085   3.776   4.344
  198POPC   GL2 2741   8.814   3.521   4.246
  198POPC   C1A 2742   9.075   3.640   4.806
  198POPC   D2A 2743   9.118   3.289   5.099
  198POPC   C3A 2744   9.012   3.450   5.511
  198POPC   C4A 2745   9.108   3.399   5.943
  198POPC   C1B 2746   8.610   3.700   4.626
  198POPC   C2B 2747   8.629   3.511   5.063
  198POPC   C3B 2748   8.479   3.433   5.482
  198POPC   C4B 2749   8.621   3.644   5.850
  199POPC   NC3 2750   1.899   9.021   3.823
  199POPC   PO4 2751   2.345   9.456   3.952
  199POPC   GL1 2752   2.145   9.250   4.284
  199POPC   GL2 2753   2.173   8.883   4.254
  199POPC   C1A 2754   2.282   9.199   4.713
  199POPC   D2A 2755   2.093   8.936   5.029
  199POPC   C3A 2756   1.899   9.093   5.378
  199POPC   C4A 2757   2.136   9.071   5.740
  199POPC   C1B 2758   1.847   8.923   4.583
  199POPC   C2B 2759   1.581   8.825   4.980
  199POPC   C3B 2760   1.522   8.735   5.438
  199POPC   C4B 2761   1.680   8.860   5.828
  200POPC   NC3 2762   7.928   0.379   4.119
  200POPC   PO4 2763   7.664   0.814   3.742
  200POPC   GL1 2764   8.012   0.880   4.139
  200POPC   GL2 2765   8.325   0.648   4.284
  200POPC   C1A 2766   8.035   0.904   4.606
  200POPC   D2A 2767   7.970   1.042   5.027
  200POPC   C3A 2768   8.029   0.706   5.345
  200POPC   C4A 2769   8.043   0.602   5.782
  200POPC   C1B 2770   8.330   0.228   4.589
  200POPC   C2B 2771   8.424   0.115   5.010
  200POPC   C3B 2772   8.232   0.222   5.405
  200POPC   C4B 2773   8.402   0.141   5.800
  201POPC   NC3 2774   8.916   9.249   3.615
  201POPC   PO4 2775   8.394   9.371   4.054
  201POPC   GL1 2776   8.678   9.289   4.344
  201POPC   GL2 2777   8.953   9.126   4.150
  201POPC   C1A 2778   8.593   9.181   4.774
  201POPC   D2A 2779   8.740   9.113   5.198
  201POPC   C3A 2780   8.555   9.223   5.605
  201POPC   C4A 2781   8.528   9.170   6.089
  201POPC   C1B 2782   9.075   9.036   4.605
  201POPC   C2B 2783   9.103   8.805   5.013
  201POPC   C3B 2784   9.092   8.835   5.473
  201POPC   C4B 2785   8.823   8.780   5.824
  202POPC   NC3 2786   7.393   3.633   3.992
  202POPC   PO4 2787   7.609   3.104   3.754
  202POPC   GL1 2788   7.484   3.165   4.213
  202POPC   GL2 2789   7.380   3.441   4.449
  202POPC   C1A 2790   7.350   2.993   4.655
  202POPC   D2A 2791   7.272   2.919   5.064
  202POPC   C3A 2792   7.419   3.261   5.345
  202POPC   C4A 2793   7.544   3.333   5.789
  202POPC   C1B 2794   7.251   3.682   4.818
  202POPC   C2B 2795   7.177   3.737   5.251
  202POPC   C3B 2796   7.415   3.783   5.594
  202POPC   C4B 2797   7.673   3.832   5.940
  203POPC   NC3 2798   5.591   0.037   3.510
  203POPC   PO4 2799   5.505   0.485   4.063
  203POPC   GL1 2800   5.878   0.570   4.301
  203POPC   GL2 2801   5.865   0.859   4.497
  203POPC   C1A 2802   6.130   0.442   4.655
  203POPC   D2A 2803   6.136   0.086   4.950
  203POPC   C3A 2804   6.185   0.193   5.394
  203POPC   C4A 2805   6.048   0.190   5.817
  203POPC   C1B 2806   5.677   0.626   4.807
  203POPC   C2B 2807   5.863   0.486   5.139
  203POPC   C3B 2808   5.773   0.518   5.545
  203POPC   C4B 2809   5.441   0.781   5.700
  204POPC   NC3 2810   4.433   7.926   3.691
  204POPC   PO4 2811   4.092   7.780   4.300
  204POPC   GL1 2812   3.810   8.022   4.481
  204POPC   GL2 2813   4.043   8.271   4.461
  204POPC   C1A 2814   3.709   8.115   4.850
  204POPC   D2A 2815   4.008   8.225   5.126
  204POPC   C3A 2816   3.906   7.947   5.472
  204POPC   C4A 2817   4.012   8.046   5.869
  204POPC   C1B 2818   4.437   8.236   4.685
  204POPC   C2B 2819   4.521   8.356   5.115
  204POPC   C3B 2820   4.330   8.298   5.539
  204POPC   C4B 2821   4.431   8.430   5.944
  205POPC   NC3 2822   5.740   8.337   3.957
  205POPC   PO4 2823   6.153   7.819   3.947
  205POPC   GL1 2824   5.931   7.974   4.355
  205POPC   GL2 2825   5.802   8.323   4.441
  205POPC   C1A 2826   6.010   8.127   4.829
  205POPC   D2A 2827   5.826   8.396   5.154
  205POPC   C3A 2828   5.955   8.322   5.611
  205POPC   C4A 2829   6.046   8.033   5.969
  205POPC   C1B 2830   5.533   8.036   4.689
  205POPC   C2B 2831   5.390   8.101   5.121
  205POPC   C3B 2832   5.509   8.079   5.560
  205POPC   C4B 2833   5.537   7.950   5.999
  206POPC   NC3 2834   9.615   9.159   3.993
  206POPC   PO4 2835   9.996   8.655   3.879
  206POPC   GL1 2836   9.993   8.959   4.242
  206POPC   GL2 2837   9.691   8.809   4.359
  206POPC   C1A 2838   9.981   9.126   4.670
  206POPC   D2A 2839   0.186   9.217   5.070
  206POPC   C3A 2840   0.020   9.322   5.475
  206POPC   C4A 2841   9.773   9.262   5.850
  206POPC   C1B 2842   9.567   8.831   4.788
  206POPC   C2B 2843   9.566   8.809   5.240
  206POPC   C3B 2844   9.593   8.811   5.683
  206POPC   C4B 2845   9.310   8.679   6.005
  207POPC   NC3 2846   2.894   1.316   4.033
  207POPC   PO4 2847   2.332   0.968   3.942
  207POPC   GL1 2848   2.646   0.954   4.300
  207POPC   GL2 2849   2.768   1.248   4.510
  207POPC   C1A 2850   2.586   0.842   4.750
  207POPC   D2A 2851   2.656   1.110   5.046
  207POPC   C3A 2852   2.388   1.020   5.360
  207POPC   C4A 2853   2.505   0.918   5.775
  207POPC   C1B 2854   3.092   1.266   4.799
  207POPC   C2B 2855   3.174   1.056   5.164
  207POPC   C3B 2856   3.108   1.104   5.615
  207POPC   C4B 2857   2.895   1.166   6.031
  208POPC   NC3 2858   6.372   9.016   4.144
  208POPC   PO4 2859   6.897   8.878   3.756
  208POPC   GL1 2860   6.774   8.752   4.282
  208POPC   GL2 2861   6.704   9.094   4.539
  208POPC   C1A 2862   6.639   8.682   4.761
  208POPC   D2A 2863   6.730   8.500   5.197
  208POPC   C3A 2864   6.771   8.620   5.634
  208POPC   C4A 2865   6.812   8.616   6.091
  208POPC   C1B 2866   6.327   9.100   4.803
  208POPC   C2B 2867   6.361   9.162   5.222
  208POPC   C3B 2868   6.655   9.118   5.514
  208POPC   C4B 2869   6.534   8.984   5.896
  209POPC   NC3 2870   2.957   5.783   4.077
  209POPC   PO4 2871   2.296   5.794   3.934
  209POPC   GL1 2872   2.377   5.765   4.336
  209POPC   GL2 2873   2.630   6.026   4.378
  209POPC   C1A 2874   2.486   5.680   4.763
  209POPC   D2A 2875   2.485   6.003   5.102
  209POPC   C3A 2876   2.540   5.835   5.490
  209POPC   C4A 2877   2.516   5.693   5.923
  209POPC   C1B 2878   2.878   6.002   4.791
  209POPC   C2B 2879   2.986   5.787   5.244
  209POPC   C3B 2880   2.963   5.867   5.779
  209POPC   C4B 2881   3.152   5.816   6.252
  210POPC   NC3 2882   1.208   7.459   3.893
  210POPC   PO4 2883   0.902   6.865   3.956
  210POPC   GL1 2884   1.049   7.130   4.269
  210POPC   GL2 2885   0.879   7.465   4.294
  210POPC   C1A 2886   1.217   7.211   4.677
  210POPC   D2A 2887   1.137   7.332   5.112
  210POPC   C3A 2888   1.214   7.143   5.540
  210POPC   C4A 2889   1.386   6.987   5.961
  210POPC   C1B 2890   0.996   7.687   4.672
  210POPC   C2B 2891   1.199   7.833   5.062
  210POPC   C3B 2892   1.247   7.700   5.491
  210POPC   C4B 2893   1.378   7.495   5.886
  211POPC   NC3 2894   2.109   7.655   4.272
  211POPC   PO4 2895   1.652   7.306   3.894
  211POPC   GL1 2896   1.838   7.134   4.257
  211POPC   GL2 2897   2.171   7.142   4.336
  211POPC   C1A 2898   1.745   7.171   4.670
  211POPC   D2A 2899   1.585   7.491   4.913
  211POPC   C3A 2900   1.617   7.386   5.329
  211POPC   C4A 2901   1.807   7.281   5.681
  211POPC   C1B 2902   2.259   7.282   4.778
  211POPC   C2B 2903   2.073   7.522   5.122
  211POPC   C3B 2904   2.204   7.634   5.545
  211POPC   C4B 2905   2.583   7.776   5.752
  212POPC   NC3 2906   9.468   1.867   3.988
  212POPC   PO4 2907   9.541   2.523   4.031
  212POPC   GL1 2908   9.655   2.184   4.356
  212POPC   GL2 2909   9.905   1.890   4.299
  212POPC   C1A 2910   9.738   2.061   4.803
  212POPC   D2A 2911   9.825   2.158   5.233
  212POPC   C3A 2912   9.497   2.169   5.552
  212POPC   C4A 2913   9.317   2.046   5.963
  212POPC   C1B 2914   9.712   1.591   4.634
  212POPC   C2B 2915   9.537   1.662   5.084
  212POPC   C3B 2916   9.558   1.645   5.532
  212POPC   C4B 2917   9.799   1.828   5.862
  213POPC   NC3 2918   2.042   5.389   3.994
  213POPC   PO4 2919   2.490   4.928   4.072
  213POPC   GL1 2920   2.178   5.098   4.394
  213POPC   GL2 2921   1.810   5.045   4.334
  213POPC   C1A 2922   1.946   5.445   4.670
  213POPC   D2A 2923   1.639   5.537   5.028
  213POPC   C3A 2924   1.786   5.558   5.461
  213POPC   C4A 2925   2.125   5.462   5.719
  213POPC   C1B 2926   1.635   4.731   4.624
  213POPC   C2B 2927   1.732   4.635   5.053
  213POPC   C3B 2928   1.795   4.692   5.487
  213POPC   C4B 2929   2.087   4.916   5.751
  214POPC   NC3 2930   1.291   8.454   3.953
  214POPC   PO4 2931   0.900   7.851   3.958
  214POPC   GL1 2932   1.077   8.104   4.321
  214POPC   GL2 2933   1.447   8.138   4.329
  214POPC   C1A 2934   0.975   8.195   4.777
  214POPC   D2A 2935   0.730   8.013   5.168
  214POPC   C3A 2936   0.864   8.061   5.579
  214POPC   C4A 2937   1.119   7.932   5.935
  214POPC   C1B 2938   1.446   8.408   4.690
  214POPC   C2B 2939   1.313   8.360   5.125
  214POPC   C3B 2940   1.392   8.213   5.542
  214POPC   C4B 2941   1.668   8.346   5.869
  215POPC   NC3 2942   5.103   8.643   3.497
  215POPC   PO4 2943   4.785   8.996   3.987
  215POPC   GL1 2944   4.875   8.845   4.376
  215POPC   GL2 2945   5.175   8.805   4.363
  215POPC   C1A 2946   4.778   8.633   4.736
  215POPC   D2A 2947   4.684   8.841   5.103
  215POPC   C3A 2948   4.690   8.666   5.514
  215POPC   C4A 2949   4.880   8.678   5.908
  215POPC   C1B 2950   5.182   9.059   4.736
  215POPC   C2B 2951   5.060   9.198   5.146
  215POPC   C3B 2952   5.058   9.055   5.577
  215POPC   C4B 2953   5.033   9.134   6.023
  216POPC   NC3 2954   2.866   6.635   3.798
  216POPC   PO4 2955   3.312   7.089   3.908
  216POPC   GL1 2956   3.082   6.783   4.256
  216POPC   GL2 2957   2.742   6.533   4.302
  216POPC   C1A 2958   3.011   6.737   4.709
  216POPC   D2A 2959   2.719   6.565   5.040
  216POPC   C3A 2960   2.806   6.770   5.464
  216POPC   C4A 2961   3.098   6.965   5.792
  216POPC   C1B 2962   2.425   6.398   4.643
  216POPC   C2B 2963   2.209   6.431   5.058
  216POPC   C3B 2964   2.418   6.384   5.460
  216POPC   C4B 2965   2.573   6.210   5.833
  217POPC   NC3 2966   2.824   3.795   3.314
  217POPC   PO4 2967   2.879   4.139   3.931
  217POPC   GL1 2968   2.763   4.298   4.391
  217POPC   GL2 2969   2.478   4.575   4.470
  217POPC   C1A 2970   2.918   4.257   4.829
  217POPC   D2A 2971   3.033   4.229   5.286
  217POPC   C3A 2972   2.919   4.021   5.683
  217POPC   C4A 2973   2.592   4.141   5.993
  217POPC   C1B 2974   2.422   4.310   4.824
  217POPC   C2B 2975   2.492   4.100   5.192
  217POPC   C3B 2976   2.557   4.357   5.542
  217POPC   C4B 2977   2.537   4.664   5.916
  218POPC   NC3 2978   3.077   7.493   4.081
  218POPC   PO4 2979   2.483   7.476   4.106
  218POPC   GL1 2980   2.697   7.290   4.360
  218POPC   GL2 2981   2.622   6.987   4.137
  218POPC   C1A 2982   2.741   7.520   4.754
  218POPC   D2A 2983   2.705   7.873   5.058
  218POPC   C3A 2984   2.970   7.846   5.413
  218POPC   C4A 2985   3.091   7.647   5.821
  218POPC   C1B 2986   2.555   6.896   4.603
  218POPC   C2B 2987   2.704   7.076   5.016
  218POPC   C3B 2988   2.911   7.287   5.384
  218POPC   C4B 2989   2.691   7.273   5.783
  219POPC   NC3 2990   2.546   4.480   3.984
  219POPC   PO4 2991   1.968   4.096   4.099
  219POPC   GL1 2992   2.177   4.142   4.416
  219POPC   GL2 2993   1.982   4.371   4.583
  219POPC   C1A 2994   2.114   3.911   4.811
  219POPC   D2A 2995   1.976   3.968   5.217
  219POPC   C3A 2996   2.238   3.906   5.626
  219POPC   C4A 2997   2.203   3.854   6.120
  219POPC   C1B 2998   1.633   4.175   4.843
  219POPC   C2B 2999   1.511   4.229   5.294
  219POPC   C3B 3000   1.774   4.182   5.624
  219POPC   C4B 3001   2.122   4.396   5.796
  220POPC   NC3 3002   5.605   9.945   4.083
  220POPC   PO4 3003   6.278   0.060   3.879
  220POPC   GL1 3004   6.054   0.094   4.297
  220POPC   GL2 3005   5.977   9.794   4.423
  220POPC   C1A 3006   5.705   0.140   4.677
  220POPC   D2A 3007   5.544   0.058   5.107
  220POPC   C3A 3008   5.768   9.906   5.464
  220POPC   C4A 3009   5.826   9.724   5.872
  220POPC   C1B 3010   5.871   9.660   4.840
  220POPC   C2B 3011   5.977   9.488   5.240
  220POPC   C3B 3012   5.740   9.282   5.567
  220POPC   C4B 3013   5.428   9.392   5.857
  221POPC   NC3 3014   9.764   4.010   3.879
  221POPC   PO4 3015   9.994   4.572   4.020
  221POPC   GL1 3016   9.947   4.219   4.302
  221POPC   GL2 3017   9.627   4.067   4.375
  221POPC   C1A 3018   0.048   4.086   4.716
  221POPC   D2A 3019   9.767   4.112   5.056
  221POPC   C3A 3020   9.769   4.100   5.479
  221POPC   C4A 3021   9.855   4.513   5.663
  221POPC   C1B 3022   9.362   4.066   4.755
  221POPC   C2B 3023   9.288   4.095   5.234
  221POPC   C3B 3024   9.331   4.295   5.682
  221POPC   C4B 3025   9.609   4.158   6.036
  222POPC   NC3 3026   9.486   3.071   4.083
  222POPC   PO4 3027   9.957   3.359   3.679
  222POPC   GL1 3028   9.675   3.585   4.111
  222POPC   GL2 3029   9.940   3.674   4.408
  222POPC   C1A 3030   9.492   3.524   4.551
  222POPC   D2A 3031   9.599   3.642   4.972
  222POPC   C3A 3032   9.535   3.510   5.381
  222POPC   C4A 3033   9.403   3.778   5.689
  222POPC   C1B 3034   9.973   3.367   4.761
  222POPC   C2B 3035   0.090   3.186   5.132
  222POPC   C3B 3036   0.008   3.306   5.520
  222POPC   C4B 3037   9.842   3.576   5.834
  223POPC   NC3 3038   1.202   0.149   4.072
  223POPC   PO4 3039   0.710   0.594   4.175
  223POPC   GL1 3040   1.091   0.418   4.491
  223POPC   GL2 3041   1.462   0.435   4.400
  223POPC   C1A 3042   1.379   0.262   4.863
  223POPC   D2A 3043   1.154   0.215   5.221
  223POPC   C3A 3044   1.249   0.159   5.632
  223POPC   C4A 3045   0.896   0.217   5.895
  223POPC   C1B 3046   1.481   0.744   4.711
  223POPC   C2B 3047   1.249   0.725   5.088
  223POPC   C3B 3048   1.268   0.665   5.536
  223POPC   C4B 3049   1.249   0.571   5.981
  224POPC   NC3 3050   8.034   3.064   3.584
  224POPC   PO4 3051   8.475   3.492   3.843
  224POPC   GL1 3052   8.250   3.515   4.270
  224POPC   GL2 3053   7.878   3.535   4.340
  224POPC   C1A 3054   8.237   3.368   4.720
  224POPC   D2A 3055   8.127   3.584   5.118
  224POPC   C3A 3056   7.921   3.336   5.403
  224POPC   C4A 3057   8.019   3.129   5.787
  224POPC   C1B 3058   7.747   3.538   4.782
  224POPC   C2B 3059   7.698   3.895   5.058
  224POPC   C3B 3060   7.888   3.935   5.466
  224POPC   C4B 3061   8.104   3.639   5.768
  225POPC   NC3 3062   6.556   9.663   3.961
  225POPC   PO4 3063   6.020   9.321   4.241
  225POPC   GL1 3064   6.400   9.492   4.423
  225POPC   GL2 3065   6.514   9.862   4.417
  225POPC   C1A 3066   6.456   9.608   4.854
  225POPC   D2A 3067   6.646   9.591   5.246
  225POPC   C3A 3068   6.343   9.725   5.522
  225POPC   C4A 3069   6.212   9.363   5.740
  225POPC   C1B 3070   6.913   9.853   4.689
  225POPC   C2B 3071   7.084   9.827   5.138
  225POPC   C3B 3072   6.928   9.864   5.571
  225POPC   C4B 3073   6.710   9.534   5.812
  226POPC   NC3 3074   9.902   5.789   3.931
  226POPC   PO4 3075   9.251   5.476   3.743
  226POPC   GL1 3076   9.493   5.571   4.170
  226POPC   GL2 3077   9.456   5.899   4.201
  226POPC   C1A 3078   9.641   5.486   4.642
  226POPC   D2A 3079   9.611   5.617   5.113
  226POPC   C3A 3080   9.657   5.400   5.540
  226POPC   C4A 3081   9.868   5.513   5.912
  226POPC   C1B 3082   9.475   5.978   4.649
  226POPC   C2B 3083   9.822   6.059   4.908
  226POPC   C3B 3084   9.911   5.979   5.315
  226POPC   C4B 3085   9.635   5.902   5.594
  227POPC   NC3 3086   8.954   5.777   4.029
  227POPC   PO4 3087   9.258   6.390   3.918
  227POPC   GL1 3088   9.073   6.185   4.353
  227POPC   GL2 3089   9.008   5.833   4.511
  227POPC   C1A 3090   9.041   6.223   4.820
  227POPC   D2A 3091   9.149   5.824   5.027
  227POPC   C3A 3092   9.143   5.854   5.469
  227POPC   C4A 3093   9.231   6.115   5.825
  227POPC   C1B 3094   8.762   5.532   4.776
  227POPC   C2B 3095   8.767   5.446   5.200
  227POPC   C3B 3096   8.700   5.645   5.586
  227POPC   C4B 3097   8.861   5.820   5.963
  228POPC   NC3 3098   8.487   3.090   4.077
  228POPC   PO4 3099   8.057   2.643   3.793
  228POPC   GL1 3100   8.010   2.748   4.203
  228POPC   GL2 3101   7.979   3.084   4.115
  228POPC   C1A 3102   8.175   2.721   4.658
  228POPC   D2A 3103   8.097   2.614   5.105
  228POPC   C3A 3104   8.395   2.632   5.432
  228POPC   C4A 3105   8.396   2.449   5.867
  228POPC   C1B 3106   7.840   3.083   4.552
  228POPC   C2B 3107   7.775   3.028   4.990
  228POPC   C3B 3108   7.706   2.836   5.404
  228POPC   C4B 3109   7.934   2.640   5.728
  229POPC   NC3 3110   5.947   2.858   3.957
  229POPC   PO4 3111   5.359   3.059   4.187
  229POPC   GL1 3112   5.698   2.758   4.407
  229POPC   GL2 3113   5.585   2.407   4.491
  229POPC   C1A 3114   6.022   2.800   4.811
  229POPC   D2A 3115   6.269   2.802   5.262
  229POPC   C3A 3116   6.022   2.825   5.698
  229POPC   C4A 3117   5.827   2.616   6.064
  229POPC   C1B 3118   5.909   2.304   4.841
  229POPC   C2B 3119   6.049   2.328   5.290
  229POPC   C3B 3120   5.751   2.342   5.627
  229POPC   C4B 3121   5.395   2.380   5.901
  230POPC   NC3 3122   1.292   6.039   3.873
  230POPC   PO4 3123   0.969   5.569   3.783
  230POPC   GL1 3124   0.991   5.817   4.211
  230POPC   GL2 3125   1.340   5.784   4.289
  230POPC   C1A 3126   1.047   6.043   4.645
  230POPC   D2A 3127   0.838   5.971   5.053
  230POPC   C3A 3128   1.033   6.073   5.441
  230POPC   C4A 3129   0.962   6.258   5.831
  230POPC   C1B 3130   1.257   5.583   4.666
  230POPC   C2B 3131   1.118   5.531   5.079
  230POPC   C3B 3132   1.286   5.607   5.448
  230POPC   C4B 3133   1.164   5.752   5.829
  231POPC   NC3 3134   4.936   8.533   3.991
  231POPC   PO4 3135   5.434   7.992   3.976
  231POPC   GL1 3136   5.300   8.307   4.292
  231POPC   GL2 3137   4.939   8.273   4.413
  231POPC   C1A 3138   5.279   8.474   4.738
  231POPC   D2A 3139   5.059   8.513   5.142
  231POPC   C3A 3140   5.227   8.535   5.532
  231POPC   C4A 3141   5.265   8.360   5.925
  231POPC   C1B 3142   4.925   8.110   4.843
  231POPC   C2B 3143   4.880   8.055   5.304
  231POPC   C3B 3144   4.823   8.182   5.722
  231POPC   C4B 3145   4.970   7.950   6.078
  232POPC   NC3 3146   7.150   1.869   3.634
  232POPC   PO4 3147   7.591   2.154   4.031
  232POPC   GL1 3148   7.599   2.071   4.422
  232POPC   GL2 3149   7.659   1.732   4.307
  232POPC   C1A 3150   7.395   2.025   4.836
  232POPC   D2A 3151   7.325   1.924   5.268
  232POPC   C3A 3152   7.040   2.154   5.596
  232POPC   C4A 3153   7.102   2.136   6.062
  232POPC   C1B 3154   7.816   1.745   4.736
  232POPC   C2B 3155   7.857   1.570   5.136
  232POPC   C3B 3156   7.784   1.797   5.500
  232POPC   C4B 3157   7.455   1.919   5.754
  233POPC   NC3 3158   0.471   0.884   3.911
  233POPC   PO4 3159   0.695   1.569   3.960
  233POPC   GL1 3160   0.532   1.261   4.262
  233POPC   GL2 3161   0.173   1.221   4.207
  233POPC   C1A 3162   0.510   1.007   4.674
  233POPC   D2A 3163   0.787   0.972   5.071
  233POPC   C3A 3164   0.721   0.944   5.544
  233POPC   C4A 3165   0.619   1.209   5.929
  233POPC   C1B 3166   0.202   1.414   4.633
  233POPC   C2B 3167   0.470   1.398   5.017
  233POPC   C3B 3168   0.448   1.399   5.479
  233POPC   C4B 3169   0.176   1.475   5.865
  234POPC   NC3 3170   2.988   3.685   3.919
  234POPC   PO4 3171   2.444   3.913   3.553
  234POPC   GL1 3172   2.449   3.876   4.054
  234POPC   GL2 3173   2.538   3.544   4.151
  234POPC   C1A 3174   2.568   3.871   4.562
  234POPC   D2A 3175   2.837   3.777   4.968
  234POPC   C3A 3176   2.671   3.666   5.403
  234POPC   C4A 3177   2.624   3.652   5.872
  234POPC   C1B 3178   2.760   3.412   4.555
  234POPC   C2B 3179   2.875   3.255   4.978
  234POPC   C3B 3180   3.068   3.324   5.392
  234POPC   C4B 3181   2.877   3.228   5.788
  235POPC   NC3 3182   0.347   3.199   3.914
  235POPC   PO4 3183   0.411   2.486   3.855
  235POPC   GL1 3184   0.248   2.784   4.198
  235POPC   GL2 3185   0.022   2.548   4.333
  235POPC   C1A 3186   0.261   2.938   4.668
  235POPC   D2A 3187   0.445   2.822   5.080
  235POPC   C3A 3188   0.242   2.774   5.513
  235POPC   C4A 3189   0.178   3.048   5.912
  235POPC   C1B 3190   0.071   2.439   4.788
  235POPC   C2B 3191   0.328   2.305   5.149
  235POPC   C3B 3192   0.696   2.479   5.380
  235POPC   C4B 3193   0.814   2.776   5.692
  236POPC   NC3 3194   1.894   1.320   4.036
  236POPC   PO4 3195   1.694   0.637   4.018
  236POPC   GL1 3196   1.913   0.843   4.341
  236POPC   GL2 3197   2.216   0.722   4.415
  236POPC   C1A 3198   1.944   0.926   4.803
  236POPC   D2A 3199   1.679   1.001   5.131
  236POPC   C3A 3200   1.769   0.786   5.484
  236POPC   C4A 3201   1.632   0.896   5.868
  236POPC   C1B 3202   2.270   1.197   4.560
  236POPC   C2B 3203   2.173   1.376   4.983
  236POPC   C3B 3204   2.095   1.483   5.421
  236POPC   C4B 3205   2.055   1.153   5.724
  237POPC   NC3 3206   2.714   9.778   3.930
  237POPC   PO4 3207   3.094   9.191   4.107
  237POPC   GL1 3208   2.907   9.378   4.503
  237POPC   GL2 3209   2.614   9.564   4.394
  237POPC   C1A 3210   2.698   9.505   4.909
  237POPC   D2A 3211   2.458   9.275   5.203
  237POPC   C3A 3212   2.563   9.313   5.614
  237POPC   C4A 3213   2.857   9.314   5.899
  237POPC   C1B 3214   2.852   9.887   4.608
  237POPC   C2B 3215   2.891   0.008   5.046
  237POPC   C3B 3216   2.641   9.776   5.379
  237POPC   C4B 3217   2.606   9.797   5.835
  238POPC   NC3 3218   7.809   4.415   3.912
  238POPC   PO4 3219   8.477   4.486   3.957
  238POPC   GL1 3220   8.174   4.346   4.272
  238POPC   GL2 3221   7.996   4.017   4.193
  238POPC   C1A 3222   8.285   4.438   4.694
  238POPC   D2A 3223   8.634   4.481   4.982
  238POPC   C3A 3224   8.451   4.456   5.387
  238POPC   C4A 3225   8.073   4.392   5.606
  238POPC   C1B 3226   8.117   3.897   4.638
  238POPC   C2B 3227   8.275   4.060   5.037
  238POPC   C3B 3228   8.399   3.942   5.442
  238POPC   C4B 3229   8.348   4.077   5.859
  239POPC   NC3 3230   9.602   6.694   3.943
  239POPC   PO4 3231   9.922   6.151   4.216
  239POPC   GL1 3232   9.700   6.503   4.421
  239POPC   GL2 3233   9.871   6.856   4.343
  239POPC   C1A 3234   9.502   6.470   4.836
  239POPC   D2A 3235   9.419   6.235   5.221
  239POPC   C3A 3236   9.540   6.442   5.615
  239POPC   C4A 3237   9.469   6.414   6.135
  239POPC   C1B 3238   9.733   6.928   4.757
  239POPC   C2B 3239   9.729   6.794   5.188
  239POPC   C3B 3240   9.808   6.989   5.581
  239POPC   C4B 3241   9.638   6.841   5.938
  240POPC   NC3 3242   5.627   0.945   4.066
  240POPC   PO4 3243   5.886   1.469   3.678
  240POPC   GL1 3244   5.825   1.427   4.168
  240POPC   GL2 3245   5.550   1.358   4.335
  240POPC   C1A 3246   5.926   1.325   4.653
  240POPC   D2A 3247   6.032   0.976   4.982
  240POPC   C3A 3248   5.861   1.024   5.427
  240POPC   C4A 3249   5.911   0.902   5.861
  240POPC   C1B 3250   5.413   1.515   4.692
  240POPC   C2B 3251   5.387   1.549   5.117
  240POPC   C3B 3252   5.633   1.487   5.494
  240POPC   C4B 3253   5.535   1.286   5.871
  241POPC   NC3 3254   2.141   0.544   3.938
  241POPC   PO4 3255   1.699   0.187   3.534
  241POPC   GL1 3256   1.712   0.104   4.044
  241POPC   GL2 3257   1.954   0.271   4.292
  241POPC   C1A 3258   1.671   9.980   4.545
  241POPC   D2A 3259   1.827   9.986   4.983
  241POPC   C3A 3260   1.675   0.278   5.323
  241POPC   C4A 3261   1.704   0.347   5.786
  241POPC   C1B 3262   1.889   0.422   4.714
  241POPC   C2B 3263   2.072   0.544   5.115
  241POPC   C3B 3264   2.225   0.541   5.536
  241POPC   C4B 3265   2.079   0.667   5.936
  242POPC   NC3 3266   6.428   3.199   3.381
  242POPC   PO4 3267   6.290   3.363   3.987
  242POPC   GL1 3268   6.602   3.198   4.297
  242POPC   GL2 3269   6.969   3.187   4.250
  242POPC   C1A 3270   6.454   3.075   4.690
  242POPC   D2A 3271   6.250   3.252   5.024
  242POPC   C3A 3272   6.476   3.287   5.425
  242POPC   C4A 3273   6.711   3.674   5.539
  242POPC   C1B 3274   6.933   3.278   4.727
  242POPC   C2B 3275   6.930   3.292   5.194
  242POPC   C3B 3276   7.017   3.304   5.663
  242POPC   C4B 3277   6.768   3.396   6.030
  243POPC   NC3 3278   3.493   0.381   3.758
  243POPC   PO4 3279   3.202   0.971   3.932
  243POPC   GL1 3280   3.459   0.693   4.227
  243POPC   GL2 3281   3.624   0.351   4.238
  243POPC   C1A 3282   3.464   0.537   4.684
  243POPC   D2A 3283   3.402   0.145   4.964
  243POPC   C3A 3284   3.239   0.216   5.404
  243POPC   C4A 3285   3.379   0.454   5.781
  243POPC   C1B 3286   3.881   0.269   4.620
  243POPC   C2B 3287   3.812   0.457   5.046
  243POPC   C3B 3288   3.770   0.289   5.451
  243POPC   C4B 3289   3.885   0.285   5.873
  244POPC   NC3 3290   8.709   1.712   3.931
  244POPC   PO4 3291   9.176   2.096   3.734
  244POPC   GL1 3292   9.134   2.144   4.261
  244POPC   GL2 3293   9.037   1.800   4.318
  244POPC   C1A 3294   8.876   2.231   4.712
  244POPC   D2A 3295   8.496   2.239   5.064
  244POPC   C3A 3296   8.636   2.150   5.522
  244POPC   C4A 3297   8.755   2.105   5.990
  244POPC   C1B 3298   9.268   1.891   4.692
  244POPC   C2B 3299   9.186   2.046   5.125
  244POPC   C3B 3300   9.070   1.855   5.535
  244POPC   C4B 3301   8.720   1.647   5.740
  245POPC   NC3 3302   0.345   9.836   3.982
  245POPC   PO4 3303   0.743   9.318   3.831
  245POPC   GL1 3304   0.641   9.437   4.248
  245POPC   GL2 3305   0.326   9.363   4.354
  245POPC   C1A 3306   0.681   9.509   4.713
  245POPC   D2A 3307   0.537   9.570   5.133
  245POPC   C3A 3308   0.787   9.378   5.475
  245POPC   C4A 3309   0.473   9.309   5.798
  245POPC   C1B 3310   0.173   9.607   4.721
  245POPC   C2B 3311   0.059   9.771   5.123
  245POPC   C3B 3312   0.270   9.778   5.530
  245POPC   C4B 3313   0.119   9.650   5.928
  246POPC   NC3 3314   7.294   8.716   3.898
  246POPC   PO4 3315   6.775   9.264   4.091
  246POPC   GL1 3316   7.151   9.069   4.281
  246POPC   GL2 3317   7.465   8.972   4.318
  246POPC   C1A 3318   7.137   8.853   4.689
  246POPC   D2A 3319   6.918   8.979   5.075
  246POPC   C3A 3320   7.154   8.904   5.456
  246POPC   C4A 3321   7.041   9.061   5.874
  246POPC   C1B 3322   7.651   8.959   4.750
  246POPC   C2B 3323   7.648   8.889   5.218
  246POPC   C3B 3324   7.548   8.558   5.539
  246POPC   C4B 3325   7.247   8.557   5.844
  247POPC   NC3 3326   5.710   7.624   3.985
  247POPC   PO4 3327   6.150   7.133   3.983
  247POPC   GL1 3328   6.081   7.466   4.329
  247POPC   GL2 3329   5.759   7.366   4.432
  247POPC   C1A 3330   5.947   7.640   4.793
  247POPC   D2A 3331   5.896   7.865   5.247
  247POPC   C3A 3332   5.872   7.651   5.671
  247POPC   C4A 3333   5.831   7.579   6.141
  247POPC   C1B 3334   6.082   7.152   4.733
  247POPC   C2B 3335   6.314   7.262   5.149
  247POPC   C3B 3336   6.265   7.218   5.613
  247POPC   C4B 3337   5.900   7.154   5.873
  248POPC   NC3 3338   2.761   0.875   3.810
  248POPC   PO4 3339   2.598   0.227   3.893
  248POPC   GL1 3340   2.932   0.520   4.147
  248POPC   GL2 3341   3.123   0.285   4.371
  248POPC   C1A 3342   3.047   0.776   4.558
  248POPC   D2A 3343   3.065   0.575   5.008
  248POPC   C3A 3344   2.855   0.718   5.413
  248POPC   C4A 3345   2.923   0.670   5.897
  248POPC   C1B 3346   2.733   0.371   4.647
  248POPC   C2B 3347   2.574   0.417   5.096
  248POPC   C3B 3348   2.671   0.260   5.532
  248POPC   C4B 3349   2.501   0.350   5.939
  249POPC   NC3 3350   8.825   6.732   3.888
  249POPC   PO4 3351   8.585   6.126   4.109
  249POPC   GL1 3352   8.723   6.541   4.340
  249POPC   GL2 3353   9.113   6.689   4.314
  249POPC   C1A 3354   8.779   6.679   4.747
  249POPC   D2A 3355   9.023   6.650   5.136
  249POPC   C3A 3356   8.940   6.350   5.449
  249POPC   C4A 3357   8.764   6.305   5.856
  249POPC   C1B 3358   9.232   6.879   4.699
  249POPC   C2B 3359   9.290   7.077   5.122
  249POPC   C3B 3360   9.313   6.903   5.529
  249POPC   C4B 3361   9.130   6.653   5.847
  250POPC   NC3 3362   4.824   9.522   3.892
  250POPC   PO4 3363   5.537   9.612   3.754
  250POPC   GL1 3364   5.328   9.533   4.227
  250POPC   GL2 3365   5.024   9.333   4.320
  250POPC   C1A 3366   5.328   9.643   4.700
  250POPC   D2A 3367   5.458   9.539   5.155
  250POPC   C3A 3368   5.265   9.760   5.516
  250POPC   C4A 3369   5.324   9.875   5.967
  250POPC   C1B 3370   4.779   9.378   4.718
  250POPC   C2B 3371   4.857   9.680   5.051
  250POPC   C3B 3372   4.736   9.762   5.475
  250POPC   C4B 3373   4.890   9.599   5.871
  251POPC   NC3 3374   7.188   1.907   4.145
  251POPC   PO4 3375   6.519   1.819   3.878
  251POPC   GL1 3376   6.593   1.729   4.267
  251POPC   GL2 3377   6.258   1.641   4.349
  251POPC   C1A 3378   6.842   1.667   4.650
  251POPC   D2A 3379   6.881   1.929   5.002
  251POPC   C3A 3380   6.846   1.738   5.392
  251POPC   C4A 3381   6.883   1.688   5.827
  251POPC   C1B 3382   6.410   1.938   4.694
  251POPC   C2B 3383   6.383   1.956   5.157
  251POPC   C3B 3384   6.487   2.007   5.607
  251POPC   C4B 3385   6.396   1.743   5.960
  252POPC   NC3 3386   1.582   2.009   3.877
  252POPC   PO4 3387   1.441   1.418   3.970
  252POPC   GL1 3388   1.428   1.696   4.331
  252POPC   GL2 3389   1.298   2.035   4.312
  252POPC   C1A 3390   1.318   1.767   4.800
  252POPC   D2A 3391   1.049   1.646   5.202
  252POPC   C3A 3392   1.161   1.621   5.649
  252POPC   C4A 3393   1.516   1.819   5.872
  252POPC   C1B 3394   1.206   2.289   4.653
  252POPC   C2B 3395   1.051   2.157   5.067
  252POPC   C3B 3396   1.295   2.089   5.436
  252POPC   C4B 3397   1.170   2.366   5.753
  253POPC   NC3 3398   0.178   3.650   3.977
  253POPC   PO4 3399   0.807   3.229   3.905
  253POPC   GL1 3400   0.652   3.176   4.327
  253POPC   GL2 3401   0.365   3.376   4.389
  253POPC   C1A 3402   0.672   3.233   4.768
  253POPC   D2A 3403   0.526   3.433   5.134
  253POPC   C3A 3404   0.534   3.179   5.465
  253POPC   C4A 3405   0.652   3.232   5.871
  253POPC   C1B 3406   0.372   3.681   4.716
  253POPC   C2B 3407   0.119   3.739   5.104
  253POPC   C3B 3408   0.281   3.723   5.510
  253POPC   C4B 3409   0.343   3.627   5.915
  254POPC   NC3 3410   3.907   9.712   3.540
  254POPC   PO4 3411   4.360   9.419   3.801
  254POPC   GL1 3412   4.476   9.370   4.244
  254POPC   GL2 3413   4.618   9.703   4.357
  254POPC   C1A 3414   4.245   9.470   4.643
  254POPC   D2A 3415   4.341   9.621   5.098
  254POPC   C3A 3416   4.083   9.376   5.443
  254POPC   C4A 3417   3.844   9.557   5.810
  254POPC   C1B 3418   4.309   9.969   4.650
  254POPC   C2B 3419   4.077   0.039   5.063
  254POPC   C3B 3420   4.114   9.893   5.505
  254POPC   C4B 3421   4.370   9.624   5.816
  255POPC   NC3 3422   2.639   9.128   4.151
  255POPC   PO4 3423   2.700   8.501   3.883
  255POPC   GL1 3424   2.668   8.604   4.315
  255POPC   GL2 3425   2.940   8.818   4.450
  255POPC   C1A 3426   2.405   8.670   4.679
  255POPC   D2A 3427   2.355   8.520   5.115
  255POPC   C3A 3428   2.497   8.815   5.419
  255POPC   C4A 3429   2.836   8.832   5.732
  255POPC   C1B 3430   2.765   8.999   4.836
  255POPC   C2B 3431   2.929   9.071   5.241
  255POPC   C3B 3432   3.236   8.780   5.377
  255POPC   C4B 3433   3.288   8.572   5.752
  256POPC   NC3 3434   0.316   9.048   3.846
  256POPC   PO4 3435   0.900   8.674   4.072
  256POPC   GL1 3436   0.606   8.908   4.236
  256POPC   GL2 3437   0.383   8.652   4.212
  256POPC   C1A 3438   0.485   8.985   4.645
  256POPC   D2A 3439   0.676   9.079   5.018
  256POPC   C3A 3440   0.533   8.949   5.404
  256POPC   C4A 3441   0.728   8.864   5.807
  256POPC   C1B 3442   0.107   8.627   4.594
  256POPC   C2B 3443   0.223   8.717   5.013
  256POPC   C3B 3444   0.049   8.795   5.407
  256POPC   C4B 3445   0.168   8.927   5.821
  257POPC   NC3 3446   6.335   1.336   3.833
  257POPC   PO4 3447   6.789   0.762   3.870
  257POPC   GL1 3448   6.849   1.037   4.232
  257POPC   GL2 3449   6.575   1.224   4.267
  257POPC   C1A 3450   6.935   1.165   4.670
  257POPC   D2A 3451   6.969   1.008   5.115
  257POPC   C3A 3452   6.810   1.232   5.487
  257POPC   C4A 3453   6.470   1.097   5.766
  257POPC   C1B 3454   6.444   1.320   4.678
  257POPC   C2B 3455   6.580   1.459   5.068
  257POPC   C3B 3456   6.368   1.522   5.482
  257POPC   C4B 3457   6.046   1.397   5.806
  258POPC   NC3 3458   5.187   1.409   3.571
  258POPC   PO4 3459   4.794   0.909   3.879
  258POPC   GL1 3460   5.112   0.994   4.263
  258POPC   GL2 3461   4.979   1.254   4.456
  258POPC   C1A 3462   5.386   1.008   4.653
  258POPC   D2A 3463   5.475   1.019   5.084
  258POPC   C3A 3464   5.124   1.022   5.359
  258POPC   C4A 3465   5.057   1.102   5.796
  258POPC   C1B 3466   4.999   1.244   4.891
  258POPC   C2B 3467   4.852   1.446   5.246
  258POPC   C3B 3468   5.138   1.548   5.567
  258POPC   C4B 3469   5.112   1.593   6.002
  259POPC   NC3 3470   6.469   7.481   3.982
  259POPC   PO4 3471   7.110   7.412   3.973
  259POPC   GL1 3472   7.090   7.415   4.427
  259POPC   GL2 3473   6.774   7.477   4.385
  259POPC   C1A 3474   7.005   7.364   4.872
  259POPC   D2A 3475   6.773   7.511   5.215
  259POPC   C3A 3476   6.769   7.348   5.613
  259POPC   C4A 3477   6.942   6.949   5.669
  259POPC   C1B 3478   6.466   7.490   4.693
  259POPC   C2B 3479   6.373   7.755   5.029
  259POPC   C3B 3480   6.361   7.723   5.498
  259POPC   C4B 3481   6.322   7.596   5.959
  260POPC   NC3 3482   6.028   1.821   3.923
  260POPC   PO4 3483   6.060   2.391   4.023
  260POPC   GL1 3484   5.982   2.070   4.388
  260POPC   GL2 3485   5.693   1.858   4.398
  260POPC   C1A 3486   5.948   1.802   4.821
  260POPC   D2A 3487   5.764   1.899   5.227
  260POPC   C3A 3488   5.993   1.882   5.616
  260POPC   C4A 3489   6.100   2.168   5.962
  260POPC   C1B 3490   5.475   2.005   4.798
  260POPC   C2B 3491   5.405   2.258   5.167
  260POPC   C3B 3492   5.336   2.022   5.548
  260POPC   C4B 3493   5.552   1.837   5.888
  261POPC   NC3 3494   0.661   8.248   4.057
  261POPC   PO4 3495   0.158   7.795   3.943
  261POPC   GL1 3496   0.420   7.858   4.284
  261POPC   GL2 3497   0.261   8.183   4.378
  261POPC   C1A 3498   0.518   7.929   4.720
  261POPC   D2A 3499   0.268   8.197   5.019
  261POPC   C3A 3500   0.220   8.043   5.453
  261POPC   C4A 3501   0.402   8.079   5.889
  261POPC   C1B 3502   0.565   8.458   4.671
  261POPC   C2B 3503   0.685   8.522   5.114
  261POPC   C3B 3504   0.494   8.466   5.549
  261POPC   C4B 3505   0.075   8.439   5.777
  262POPC   NC3 3506   9.916   8.207   3.940
  262POPC   PO4 3507   9.393   7.821   3.777
  262POPC   GL1 3508   9.543   7.980   4.197
  262POPC   GL2 3509   9.852   7.844   4.333
  262POPC   C1A 3510   9.442   7.851   4.654
  262POPC   D2A 3511   9.661   7.924   5.062
  262POPC   C3A 3512   9.478   7.900   5.496
  262POPC   C4A 3513   9.740   7.825   5.885
  262POPC   C1B 3514   9.789   8.220   4.601
  262POPC   C2B 3515   9.811   8.426   4.983
  262POPC   C3B 3516   9.779   8.332   5.388
  262POPC   C4B 3517   9.592   8.308   5.795
  263POPC   NC3 3518   9.620   0.612   4.046
  263POPC   PO4 3519   0.053   0.115   3.728
  263POPC   GL1 3520   9.883   0.182   4.190
  263POPC   GL2 3521   9.575   0.147   4.373
  263POPC   C1A 3522   9.997   0.122   4.658
  263POPC   D2A 3523   9.827   0.247   5.100
  263POPC   C3A 3524   9.982   0.235   5.553
  263POPC   C4A 3525   0.041   0.431   6.007
  263POPC   C1B 3526   9.672   0.514   4.671
  263POPC   C2B 3527   9.472   0.675   5.038
  263POPC   C3B 3528   9.696   0.673   5.427
  263POPC   C4B 3529   9.582   0.445   5.807
  264POPC   NC3 3530   4.287   8.981   3.926
  264POPC   PO4 3531   4.565   8.362   3.760
  264POPC   GL1 3532   4.450   8.600   4.234
  264POPC   GL2 3533   4.096   8.752   4.349
  264POPC   C1A 3534   4.454   8.993   4.590
  264POPC   D2A 3535   4.307   9.138   5.007
  264POPC   C3A 3536   4.587   9.261   5.371
  264POPC   C4A 3537   4.576   9.126   5.793
  264POPC   C1B 3538   4.183   8.648   4.833
  264POPC   C2B 3539   4.197   8.724   5.296
  264POPC   C3B 3540   4.163   8.808   5.747
  264POPC   C4B 3541   4.000   8.782   6.195
  265POPC   NC3 3542   8.402   5.857   3.794
  265POPC   PO4 3543   7.799   5.843   3.949
  265POPC   GL1 3544   8.150   5.714   4.249
  265POPC   GL2 3545   8.525   5.673   4.330
  265POPC   C1A 3546   8.194   5.673   4.732
  265POPC   D2A 3547   8.274   5.728   5.213
  265POPC   C3A 3548   7.972   5.891   5.571
  265POPC   C4A 3549   7.574   6.121   5.718
  265POPC   C1B 3550   8.580   6.001   4.730
  265POPC   C2B 3551   8.702   5.985   5.169
  265POPC   C3B 3552   8.451   6.097   5.527
  265POPC   C4B 3553   8.363   5.878   5.922
  266POPC   NC3 3554   8.776   0.440   3.746
  266POPC   PO4 3555   9.344   0.270   3.934
  266POPC   GL1 3556   9.088   0.497   4.191
  266POPC   GL2 3557   8.754   0.366   4.275
  266POPC   C1A 3558   9.178   0.441   4.611
  266POPC   D2A 3559   9.356   0.159   4.900
  266POPC   C3A 3560   9.359   0.258   5.360
  266POPC   C4A 3561   9.097   0.459   5.675
  266POPC   C1B 3562   8.696   0.533   4.716
  266POPC   C2B 3563   8.943   0.453   5.070
  266POPC   C3B 3564   8.717   0.335   5.390
  266POPC   C4B 3565   8.522   0.610   5.630
  267POPC   NC3 3566   6.527   2.316   3.890
  267POPC   PO4 3567   6.243   2.827   3.598
  267POPC   GL1 3568   6.430   2.783   4.063
  267POPC   GL2 3569   6.786   2.712   4.107
  267POPC   C1A 3570   6.406   2.589   4.520
  267POPC   D2A 3571   6.667   2.366   4.836
  267POPC   C3A 3572   6.624   2.400   5.299
  267POPC   C4A 3573   6.399   2.498   5.681
  267POPC   C1B 3574   6.861   2.801   4.558
  267POPC   C2B 3575   6.764   2.834   5.021
  267POPC   C3B 3576   6.783   2.862   5.477
  267POPC   C4B 3577   6.881   2.583   5.846
  268POPC   NC3 3578   1.070   9.159   4.109
  268POPC   PO4 3579   1.572   9.321   3.712
  268POPC   GL1 3580   1.564   9.095   4.184
  268POPC   GL2 3581   1.381   8.785   4.330
  268POPC   C1A 3582   1.424   9.193   4.632
  268POPC   D2A 3583   1.140   9.277   4.942
  268POPC   C3A 3584   1.354   9.271   5.338
  268POPC   C4A 3585   1.206   9.090   5.703
  268POPC   C1B 3586   1.086   8.788   4.721
  268POPC   C2B 3587   1.086   8.830   5.180
  268POPC   C3B 3588   1.016   8.570   5.514
  268POPC   C4B 3589   1.236   8.614   5.871
  269POPC   NC3 3590   1.765   2.698   3.959
  269POPC   PO4 3591   2.381   2.444   3.845
  269POPC   GL1 3592   2.212   2.500   4.287
  269POPC   GL2 3593   2.181   2.847   4.261
  269POPC   C1A 3594   2.250   2.574   4.792
  269POPC   D2A 3595   2.343   2.621   5.284
  269POPC   C3A 3596   2.101   2.557   5.702
  269POPC   C4A 3597   2.224   2.409   6.158
  269POPC   C1B 3598   2.005   3.010   4.631
  269POPC   C2B 3599   2.041   2.976   5.071
  269POPC   C3B 3600   1.955   3.002   5.511
  269POPC   C4B 3601   1.715   3.225   5.802
  270POPC   NC3 3602   0.533   6.576   3.908
  270POPC   PO4 3603   0.190   6.074   3.696
  270POPC   GL1 3604   0.416   6.159   4.149
  270POPC   GL2 3605   0.269   6.503   4.329
  270POPC   C1A 3606   0.552   6.178   4.595
  270POPC   D2A 3607   0.606   6.450   4.974
  270POPC   C3A 3608   0.653   6.429   5.433
  270POPC   C4A 3609   0.455   6.350   5.854
  270POPC   C1B 3610   0.104   6.470   4.767
  270POPC   C2B 3611   0.135   6.426   5.221
  270POPC   C3B 3612   0.226   6.701   5.568
  270POPC   C4B 3613   0.150   6.871   5.990
  271POPC   NC3 3614   9.803   7.462   3.894
  271POPC   PO4 3615   9.266   7.039   3.929
  271POPC   GL1 3616   9.411   7.150   4.308
  271POPC   GL2 3617   9.432   7.492   4.241
  271POPC   C1A 3618   9.295   7.374   4.719
  271POPC   D2A 3619   9.242   7.612   5.110
  271POPC   C3A 3620   9.270   7.417   5.530
  271POPC   C4A 3621   9.534   7.331   5.907
  271POPC   C1B 3622   9.767   7.412   4.573
  271POPC   C2B 3623   9.714   7.380   5.038
  271POPC   C3B 3624   9.795   7.496   5.473
  271POPC   C4B 3625   0.046   7.375   5.863
  272POPC   NC3 3626   7.017   0.351   3.946
  272POPC   PO4 3627   7.546   0.635   4.219
  272POPC   GL1 3628   7.161   0.642   4.358
  272POPC   GL2 3629   7.105   0.269   4.441
  272POPC   C1A 3630   6.985   0.656   4.741
  272POPC   D2A 3631   7.057   0.313   4.990
  272POPC   C3A 3632   7.176   0.353   5.420
  272POPC   C4A 3633   7.043   0.365   5.871
  272POPC   C1B 3634   7.498   0.203   4.703
  272POPC   C2B 3635   7.851   0.246   5.007
  272POPC   C3B 3636   7.725   0.236   5.421
  272POPC   C4B 3637   7.537   0.516   5.737
  273POPC   NC3 3638   9.621   9.917   3.854
  273POPC   PO4 3639   0.013   9.399   3.969
  273POPC   GL1 3640   9.897   9.680   4.307
  273POPC   GL2 3641   9.589   9.619   4.270
  273POPC   C1A 3642   9.671   9.765   4.758
  273POPC   D2A 3643   9.485   9.758   5.187
  273POPC   C3A 3644   9.748   9.767   5.549
  273POPC   C4A 3645   9.731   9.982   5.951
  273POPC   C1B 3646   9.500   9.322   4.617
  273POPC   C2B 3647   9.666   9.288   5.054
  273POPC   C3B 3648   9.465   9.313   5.468
  273POPC   C4B 3649   9.347   9.638   5.840
  274POPC   NC3 3650   0.584   2.036   3.926
  274POPC   PO4 3651   0.593   2.467   4.389
  274POPC   GL1 3652   0.745   2.028   4.417
  274POPC   GL2 3653   0.453   1.787   4.359
  274POPC   C1A 3654   0.755   1.791   4.802
  274POPC   D2A 3655   0.567   1.854   5.231
  274POPC   C3A 3656   0.810   2.030   5.576
  274POPC   C4A 3657   0.700   2.319   5.958
  274POPC   C1B 3658   0.243   1.923   4.733
  274POPC   C2B 3659   0.045   1.692   5.054
  274POPC   C3B 3660   0.099   1.781   5.459
  274POPC   C4B 3661   0.303   2.131   5.663
  275POPC   NC3 3662   9.562   1.075   3.719
  275POPC   PO4 3663   8.981   0.857   3.736
  275POPC   GL1 3664   9.286   0.973   4.148
  275POPC   GL2 3665   9.651   1.104   4.215
  275POPC   C1A 3666   9.329   1.243   4.572
  275POPC   D2A 3667   9.583   1.178   4.946
  275POPC   C3A 3668   9.409   1.153   5.357
  275POPC   C4A 3669   9.372   0.905   5.737
  275POPC   C1B 3670   9.907   0.983   4.581
  275POPC   C2B 3671   0.082   1.047   5.014
  275POPC   C3B 3672   9.932   1.274   5.401
  275POPC   C4B 3673   9.726   1.246   5.827
  276POPC   NC3 3674   3.667   1.133   3.943
  276POPC   PO4 3675   3.196   1.640   4.107
  276POPC   GL1 3676   3.433   1.492   4.446
  276POPC   GL2 3677   3.320   1.186   4.361
  276POPC   C1A 3678   3.566   1.457   4.891
  276POPC   D2A 3679   3.287   1.537   5.276
  276POPC   C3A 3680   3.480   1.448   5.702
  276POPC   C4A 3681   3.350   1.434   6.153
  276POPC   C1B 3682   3.641   1.017   4.588
  276POPC   C2B 3683   3.670   0.945   5.002
  276POPC   C3B 3684   3.520   0.745   5.375
  276POPC   C4B 3685   3.774   0.779   5.737
  277POPC   NC3 3686   2.412   2.904   3.785
  277POPC   PO4 3687   3.025   3.202   3.949
  277POPC   GL1 3688   2.674   3.047   4.193
  277POPC   GL2 3689   2.684   2.694   4.187
  277POPC   C1A 3690   2.534   2.964   4.626
  277POPC   D2A 3691   2.750   2.750   4.970
  277POPC   C3A 3692   2.745   2.931   5.374
  277POPC   C4A 3693   2.466   2.930   5.717
  277POPC   C1B 3694   2.675   2.427   4.558
  277POPC   C2B 3695   2.631   2.253   4.992
  277POPC   C3B 3696   2.810   2.414   5.393
  277POPC   C4B 3697   2.581   2.411   5.786
  278POPC   NC3 3698   0.511   0.382   3.803
  278POPC   PO4 3699   9.973   0.881   3.863
  278POPC   GL1 3700   0.159   0.622   4.245
  278POPC   GL2 3701   0.361   0.261   4.291
  278POPC   C1A 3702   0.202   0.582   4.719
  278POPC   D2A 3703   0.397   0.621   5.144
  278POPC   C3A 3704   0.239   0.706   5.574
  278POPC   C4A 3705   0.523   0.614   5.945
  278POPC   C1B 3706   0.487   0.022   4.671
  278POPC   C2B 3707   0.498   0.087   5.136
  278POPC   C3B 3708   0.487   0.240   5.589
  278POPC   C4B 3709   0.421   0.105   6.054
  279POPC   NC3 3710   4.095   2.685   4.000
  279POPC   PO4 3711   4.557   2.264   3.911
  279POPC   GL1 3712   4.539   2.573   4.252
  279POPC   GL2 3713   4.366   2.887   4.370
  279POPC   C1A 3714   4.595   2.539   4.703
  279POPC   D2A 3715   4.366   2.475   5.107
  279POPC   C3A 3716   4.518   2.406   5.527
  279POPC   C4A 3717   4.481   2.620   5.923
  279POPC   C1B 3718   4.086   2.666   4.702
  279POPC   C2B 3719   3.900   2.685   5.147
  279POPC   C3B 3720   3.785   2.670   5.604
  279POPC   C4B 3721   3.958   2.588   6.045
  280POPC   NC3 3722   4.273   1.913   3.784
  280POPC   PO4 3723   4.872   1.724   3.707
  280POPC   GL1 3724   4.626   1.831   4.154
  280POPC   GL2 3725   4.711   2.105   4.374
  280POPC   C1A 3726   4.457   1.715   4.572
  280POPC   D2A 3727   4.564   2.033   4.899
  280POPC   C3A 3728   4.385   1.980   5.283
  280POPC   C4A 3729   4.296   1.944   5.728
  280POPC   C1B 3730   4.260   2.196   4.519
  280POPC   C2B 3731   3.998   2.196   4.918
  280POPC   C3B 3732   3.951   2.225   5.375
  280POPC   C4B 3733   3.824   2.169   5.793
  281POPC   NC3 3734   3.556   9.335   4.059
  281POPC   PO4 3735   3.528   9.917   3.697
  281POPC   GL1 3736   3.559   9.845   4.168
  281POPC   GL2 3737   3.263   9.721   4.339
  281POPC   C1A 3738   3.749   9.729   4.601
  281POPC   D2A 3739   3.817   9.547   5.024
  281POPC   C3A 3740   3.592   9.774   5.376
  281POPC   C4A 3741   3.509   9.959   5.804
  281POPC   C1B 3742   3.261   9.646   4.822
  281POPC   C2B 3743   3.100   9.591   5.253
  281POPC   C3B 3744   3.085   9.724   5.681
  281POPC   C4B 3745   3.052   9.707   6.154
  282POPC   NC3 3746   9.023   5.145   3.496
  282POPC   PO4 3747   8.917   5.327   4.151
  282POPC   GL1 3748   9.161   5.350   4.483
  282POPC   GL2 3749   9.174   5.032   4.512
  282POPC   C1A 3750   9.221   5.324   4.917
  282POPC   D2A 3751   9.120   5.070   5.244
  282POPC   C3A 3752   9.138   5.347   5.582
  282POPC   C4A 3753   8.944   5.326   5.992
  282POPC   C1B 3754   8.811   5.002   4.807
  282POPC   C2B 3755   8.627   4.927   5.226
  282POPC   C3B 3756   8.757   5.024   5.630
  282POPC   C4B 3757   8.675   4.908   6.104
  283POPC   NC3 3758   3.531   6.602   4.070
  283POPC   PO4 3759   3.028   6.235   4.011
  283POPC   GL1 3760   3.158   6.302   4.483
  283POPC   GL2 3761   3.453   6.496   4.555
  283POPC   C1A 3762   3.190   6.340   4.986
  283POPC   D2A 3763   2.936   6.260   5.387
  283POPC   C3A 3764   3.144   6.449   5.713
  283POPC   C4A 3765   3.377   6.576   6.096
  283POPC   C1B 3766   3.485   6.784   4.912
  283POPC   C2B 3767   3.359   6.849   5.353
  283POPC   C3B 3768   3.610   6.840   5.739
  283POPC   C4B 3769   3.839   6.855   6.175
  284POPC   NC3 3770   1.143   9.527   3.676
  284POPC   PO4 3771   0.787   0.028   3.914
  284POPC   GL1 3772   0.882   9.876   4.353
  284POPC   GL2 3773   1.119   9.580   4.482
  284POPC   C1A 3774   0.973   9.965   4.782
  284POPC   D2A 3775   1.001   9.726   5.137
  284POPC   C3A 3776   0.837   9.887   5.477
  284POPC   C4A 3777   0.692   9.748   5.836
  284POPC   C1B 3778   1.414   9.693   4.857
  284POPC   C2B 3779   1.459   9.788   5.328
  284POPC   C3B 3780   1.237   9.654   5.743
  284POPC   C4B 3781   1.341   9.583   6.209
  285POPC   NC3 3782   4.391   0.813   3.675
  285POPC   PO4 3783   3.817   0.706   3.813
  285POPC   GL1 3784   4.043   0.635   4.225
  285POPC   GL2 3785   4.426   0.668   4.210
  285POPC   C1A 3786   4.092   0.740   4.691
  285POPC   D2A 3787   4.307   0.577   5.082
  285POPC   C3A 3788   4.212   0.641   5.516
  285POPC   C4A 3789   4.217   0.642   5.970
  285POPC   C1B 3790   4.540   0.455   4.633
  285POPC   C2B 3791   4.610   0.162   5.018
  285POPC   C3B 3792   4.529   0.236   5.460
  285POPC   C4B 3793   4.367   0.141   5.877
  286POPC   NC3 3794   2.268   8.273   3.837
  286POPC   PO4 3795   1.710   8.627   3.946
  286POPC   GL1 3796   1.847   8.475   4.339
  286POPC   GL2 3797   1.990   8.153   4.374
  286POPC   C1A 3798   1.952   8.462   4.794
  286POPC   D2A 3799   1.829   8.383   5.217
  286POPC   C3A 3800   2.037   8.588   5.556
  286POPC   C4A 3801   2.116   8.633   6.021
  286POPC   C1B 3802   1.751   7.988   4.766
  286POPC   C2B 3803   1.678   7.892   5.215
  286POPC   C3B 3804   1.747   7.841   5.642
  286POPC   C4B 3805   2.094   8.103   5.783
  287W        W 3806   8.779   1.887   0.251
  288W        W 3807   4.543   0.970  10.758
  289W        W 3808   8.981   1.372   2.253
  290W        W 3809   0.016   7.988   1.665
  291W        W 3810   8.848   3.410   9.154
  292W        W 3811   7.188   7.359   9.531
  293W        W 3812   0.708   0.155   0.938
  294W        W 3813   3.497   7.687  11.223
  295W        W 3814   1.671   8.381   1.940
  296W        W 3815   8.642   1.669   3.241
  297W        W 3816   6.922   2.025  11.718
  298W        W 3817   2.140   0.760   8.975
  299W        W 3818   7.756   3.956   3.573
  300W        W 3819   4.599   3.683   8.947
  301W        W 3820   1.225   0.998   9.541
  302W        W 3821   5.725   6.287   2.523
  303W        W 3822   6.733   9.081  11.839
  304W        W 3823   8.700   2.577   2.462
  305W        W 3824   6.199   8.225   9.243
  306W        W 3825   4.743   6.768   9.525
  307W        W 3826   3.829   6.610   3.637
  308W        W 3827   5.142   4.639   0.985
  309W        W 3828   0.420   8.563   2.596
  310W        W 3829   7.294   6.031   1.899
  311W        W 3830   8.103   6.348  10.506
  312W        W 3831   4.505   1.857   0.441
  313W        W 3832   6.140   2.713  10.915
  314W        W 3833   2.842   3.313   3.498
  315W        W 3834   6.470   3.002  11.850
  316W        W 3835   6.924   6.910   2.747
  317W        W 3836   8.232   1.996   3.505
  318W        W 3837   5.495   0.560   1.668
  319W        W 3838   4.925   5.228  10.485
  320W        W 3839   2.817   4.704   9.457
  321W        W 3840   5.449   2.273  11.419
  322W        W 3841   2.270   9.315  10.387
  323W        W 3842   9.256   8.888   3.739
  324W        W 3843   3.715   0.540   3.298
  325W        W 3844   6.358   8.385   1.272
  326W        W 3845   8.755   4.505  11.062
  327W        W 3846   4.592   4.163  11.816
  328W        W 3847   9.554   0.674   9.561
  329W        W 3848   5.227   6.604  11.834
  330W        W 3849   8.693   2.191   3.337
  331W        W 3850   6.956   9.235   9.990
  332W        W 3851   3.320   4.651   0.877
  333W        W 3852   9.286   5.184   9.577
  334W        W 3853   5.815   7.939   3.586
  335W        W 3854   2.627   6.971   3.352
  336W        W 3855   2.642   6.678   9.558
  337W        W 3856   5.209   1.204   2.302
  338W        W 3857   1.412   2.098  10.597
  339W        W 3858   4.593   5.090   9.522
  340W        W 3859   0.456   5.936   1.670
  341W        W 3860   8.336   8.514   8.791
  342W        W 3861   6.901   2.784   0.110
  343W        W 3862   3.558   9.091   0.326
  344W        W 3863   4.126   1.850   9.446
  345W        W 3864   1.565   5.155   3.485
  346W        W 3865   0.374   3.418   2.221
  347W        W 3866   9.462   6.273   0.272
  348W        W 3867   3.023   4.777   8.613
  349W        W 3868   3.422   4.304   2.868
  350W        W 3869   2.930   0.397  11.513
  351W        W 3870   5.370   9.878   9.679
  352W        W 3871   8.024   2.405   0.481
  353W        W 3872   4.683   7.736   8.510
  354W        W 3873   4.725   0.917   0.692
  355W        W 3874   9.908   3.313  10.465
  356W        W 3875   9.342   0.598  10.036
  357W        W 3876   5.071   3.282   9.556
  358W        W 3877   7.286   3.643   9.717
  359W        W 3878   0.874   7.473   0.190
  360W        W 3879   3.069   4.140   1.738
  361W        W 3880   8.983   7.365   9.992
  362W        W 3881   0.337   0.873   8.871
  363W        W 3882   3.535   2.390  10.905
  364W        W 3883   4.599   5.106   3.006
  365W        W 3884   9.396   8.525   1.286
  366W        W 3885   1.417   3.569  11.536
  367W        W 3886   4.883   7.114   9.141
  368W        W 3887   0.109   1.081   8.445
  369W        W 3888   4.746   7.807   1.851
  370W        W 3889   9.495   9.649  11.210
  371W        W 3890   6.014   3.271   2.422
  372W        W 3891   5.492   1.742  10.795
  373W        W 3892   5.490   9.844   1.446
  374W        W 3893   2.253   3.965  11.447
  375W        W 3894   4.530   5.066   0.065
  376W        W 3895   2.779   2.225   9.318
  377W        W 3896   2.608   1.065   2.410
  378W        W 3897   5.969   8.168   1.031
  379W        W 3898   2.203   7.928  11.584
  380W        W 3899   4.604   6.137   0.310
  381W        W 3900   8.434   0.209   0.216
  382W        W 3901   3.633   3.408   2.716
  383W        W 3902   2.317   8.117   1.316
  384W        W 3903   3.954   6.367   1.309
  385W        W 3904   7.118   4.686  11.052
  386W        W 3905   9.644   2.380   9.689
  387W        W 3906   4.224   0.019   8.660
  388W        W 3907   6.862   1.528   2.717
  389W        W 3908   4.842   2.613   8.463
  390W        W 3909   3.556   8.118   9.871
  391W        W 3910   9.315   7.601   1.286
  392W        W 3911   1.161   7.297   1.503
  393W        W 3912   4.054   2.811   8.536
  394W        W 3913   2.434   1.544  11.313
  395W        W 3914   8.721   4.834   0.475
  396W        W 3915   2.531   2.432   8.613
  397W        W 3916   0.589   9.585  11.547
  398W        W 3917   7.922   9.880  11.400
  399W        W 3918   1.870   2.982   9.917
  400W        W 3919   5.243   2.686  11.212
  401W        W 3920   0.396   8.654  11.161
  402W        W 3921   5.051   5.718   8.873
  403W        W 3922   2.727   8.104   3.024
  404W        W 3923   0.354   3.245   1.097
  405W        W 3924   3.822   4.641  11.057
  406W        W 3925   1.668   0.483  10.591
  407W        W 3926   6.678   4.728   8.685
  408W        W 3927   4.797   2.410   1.111
  409W        W 3928   7.955   5.142   2.516
  410W        W 3929   4.101   6.145   0.194
  411W        W 3930   8.473   2.101   9.254
  412W        W 3931   6.016   7.447   3.595
  413W        W 3932   5.556   7.350  10.240
  414W        W 3933   2.692   6.605   8.977
  415W        W 3934   8.037   2.394  11.957
  416W        W 3935   3.198   3.244   9.507
  417W        W 3936   5.081   4.498   0.372
  418W        W 3937   8.796   1.663   1.284
  419W        W 3938   0.320   4.587   3.165
  420W        W 3939   1.898   5.336   2.706
  421W        W 3940   2.906   2.572   0.697
  422W        W 3941   3.720   4.017   9.095
  423W        W 3942   0.350   5.624   9.476
  424W        W 3943   4.244   2.823   2.616
  425W        W 3944   1.792   2.557   0.184
  426W        W 3945   5.461   0.123   9.220
  427W        W 3946   1.881   4.242   8.860
  428W        W 3947   2.755   7.631   3.234
  429W        W 3948   3.362   8.602   9.109
  430W        W 3949   6.551   5.163   8.423
  431W        W 3950   9.313   2.817   3.678
  432W        W 3951   9.794   7.780   0.665
  433W        W 3952   3.017   2.280   2.016
  434W        W 3953   0.466   7.471  11.858
  435W        W 3954   8.364   0.684   8.999
  436W        W 3955   4.958   3.566   0.300
  437W        W 3956   8.818   8.986  11.171
  438W        W 3957   4.240   9.997   3.190
  439W        W 3958   6.306   7.597   2.619
  440W        W 3959   3.571   3.671   1.175
  441W        W 3960   2.086   7.399   1.957
  442W        W 3961   6.169   1.483   1.866
  443W        W 3962   8.177   7.366   9.720
  444W        W 3963   9.683   2.955   0.926
  445W        W 3964   2.884   0.938   2.813
  446W        W 3965   8.019   5.538  11.461
  447W        W 3966   7.135   6.767   0.836
  448W        W 3967   9.202   7.399  11.500
  449W        W 3968   7.966   1.653   0.847
  450W        W 3969   6.882   9.550   0.181
  451W        W 3970   0.715   6.611   0.011
  452W        W 3971   4.238   2.054   0.891
  453W        W 3972   8.478   1.286   2.917
  454W        W 3973   2.229   8.120   2.270
  455W        W 3974   1.789   4.911   8.241
  456W        W 3975   9.820   3.650   3.089
  457W        W 3976   6.479   8.348  10.750
  458W        W 3977   4.000   6.180   0.833
  459W        W 3978   4.019   5.111   1.538
  460W        W 3979   8.500   4.634  10.082
  461W        W 3980   8.342   3.609   9.106
  462W        W 3981   3.293   2.001   0.881
  463W        W 3982   5.470   7.491  11.620
  464W        W 3983   0.841   4.491   9.217
  465W        W 3984   6.950   1.283  11.888
  466W        W 3985   0.550   4.422   0.906
  467W        W 3986   9.551   1.874   9.532
  468W        W 3987   8.919   7.054  10.430
  469W        W 3988   9.988   1.225   8.953
  470W        W 3989   5.204   3.500  11.869
  471W        W 3990   9.052   9.111   8.967
  472W        W 3991   3.192   7.374  11.505
  473W        W 3992   1.352   1.389  11.440
  474W        W 3993   1.806   5.959   3.268
  475W        W 3994   4.458   4.527   2.753
  476W        W 3995   9.399   7.702   9.933
  477W        W 3996   9.837   6.059   8.927
  478W        W 3997   6.603   2.129  10.388
  479W        W 3998   7.108   7.977  11.289
  480W        W 3999   7.552   2.582  11.868
  481W        W 4000   6.681   4.258   3.631
  482W        W 4001   7.240   5.617   2.637
  483W        W 4002   4.130   5.709   1.002
  484W        W 4003   0.531   2.716  10.749
  485W        W 4004   6.122   3.179   0.739
  486W        W 4005   8.597   1.094   0.081
  487W        W 4006   6.478   6.870   2.042
  488W        W 4007   6.666   9.746   0.924
  489W        W 4008   8.563   0.593  10.517
  490W        W 4009   0.756   8.416   8.940
  491W        W 4010   1.628   1.465   1.759
  492W        W 4011   5.417   6.623  11.330
  493W        W 4012   5.257   2.989   1.681
  494W        W 4013   6.673   0.015   9.942
  495W        W 4014   3.971   7.948   0.186
  496W        W 4015   4.144   1.681  11.634
  497W        W 4016   7.278   0.346   9.194
  498W        W 4017   6.946   4.161   9.342
  499W        W 4018   3.869   1.768   1.389
  500W        W 4019   2.262   4.640   8.746
  501W        W 4020   2.937   4.146  10.602
  502W        W 4021   5.471   5.186  11.814
  503W        W 4022   2.886   1.135   0.011
  504W        W 4023   9.528   5.092   9.137
  505W        W 4024   4.906   4.192  10.522
  506W        W 4025   4.137   1.519  10.761
  507W        W 4026   2.656   3.934   0.952
  508W        W 4027   3.754   8.812  11.935
  509W        W 4028   6.275   6.212   9.803
  510W        W 4029   9.672   4.527   3.086
  511W        W 4030   4.744   4.880   2.542
  512W        W 4031   2.977   0.792   0.423
  513W        W 4032   4.936   3.669   3.624
  514W        W 4033   8.333   3.955   1.869
  515W        W 4034   1.585   4.992   2.982
  516W        W 4035   2.941   1.432   2.264
  517W        W 4036   9.136   0.833   1.557
  518W        W 4037   2.457   5.290   0.707
  519W        W 4038   3.112   7.598   8.826
  520W        W 4039   3.336   2.081  11.919
  521W        W 4040   8.870   6.364   1.555
  522W        W 4041   0.426   5.428   1.633
  523W        W 4042   8.453   9.808  11.132
  524W        W 4043   3.210   0.972  10.872
  525W        W 4044   6.934   2.488   3.017
  526W        W 4045   4.549   5.608  10.553
  527W        W 4046   3.680   5.398   8.908
  528W        W 4047   1.377   1.706   3.508
  529W        W 4048   0.321   9.699   0.005
  530W        W 4049   5.073   2.956  10.217
  531W        W 4050   5.754   2.608   3.519
  532W        W 4051   9.545   9.796   8.846
  533W        W 4052   9.222   3.753   9.333
  534W        W 4053   7.336   7.215  11.918
  535W        W 4054   2.304   7.400   3.320
  536W        W 4055   1.228   6.438  11.401
  537W        W 4056   0.543   0.280   9.912
  538W        W 4057   1.273   5.388  11.651
  539W        W 4058   5.589   8.650   0.220
  540W        W 4059   4.262   3.814   8.401
  541W        W 4060   1.400   3.492   1.450
  542W        W 4061   1.411   8.766   3.550
  543W        W 4062   2.609   5.414   4.018
  544W        W 4063   2.679   2.669  10.806
  545W        W 4064   8.359   2.687   1.650
  546W        W 4065   6.144   6.384   1.357
  547W        W 4066   6.766   5.754   1.320
  548W        W 4067   4.954   9.596   1.763
  549W        W 4068   8.058   0.186  11.861
  550W        W 4069   7.962   9.676   0.987
  551W        W 4070   1.460   3.514  11.011
  552W        W 4071   1.626   3.323   1.869
  553W        W 4072   7.607   2.330   1.276
  554W        W 4073   7.225   5.585   2.137
  555W        W 4074   9.687   5.285   1.892
  556W        W 4075   1.675   2.732  11.710
  557W        W 4076   8.497   1.490  10.018
  558W        W 4077   3.643   8.835   2.145
  559W        W 4078   5.043   8.056   0.118
  560W        W 4079   7.608   4.644   1.290
  561W        W 4080   2.418   7.014   2.022
  562W        W 4081   7.043   0.648   0.787
  563W        W 4082   5.944   9.966  10.426
  564W        W 4083   8.143   5.116   9.074
  565W        W 4084   5.830   7.530   9.822
  566W        W 4085   0.957   9.525   1.873
  567W        W 4086   1.889   3.113   2.810
  568W        W 4087   9.491   3.407   9.730
  569W        W 4088   6.593   8.832   1.211
  570W        W 4089   7.772   6.200   2.006
  571W        W 4090   5.070   6.921   1.499
  572W        W 4091   0.467   0.783   9.853
  573W        W 4092   4.522   3.136   3.707
  574W        W 4093   1.391   6.104   2.540
  575W        W 4094   6.974   4.489   1.795
  576W        W 4095   9.583   2.973  11.060
  577W        W 4096   1.129   4.615   9.626
  578W        W 4097   0.338   9.591  11.080
  579W        W 4098   6.554   4.318   9.029
  580W        W 4099   4.282   1.126   2.475
  581W        W 4100   9.471   2.947   1.442
  582W        W 4101   9.729   9.394   1.279
  583W        W 4102   9.625   6.097  11.052
  584W        W 4103   0.260   0.499  11.746
  585W        W 4104   6.938   5.097  11.282
  586W        W 4105   4.950   2.343   2.129
  587W        W 4106   1.421   6.384   1.520
  588W        W 4107   5.764   0.179   9.938
  589W        W 4108   6.070   0.930   2.826
  590W        W 4109   5.099   3.168  11.484
  591W        W 4110   8.200   7.210  11.511
  592W        W 4111   1.671   4.533   2.667
  593W        W 4112   3.670   6.421   2.208
  594W        W 4113   2.263   2.423  11.069
  595W        W 4114   8.991   4.695   0.907
  596W        W 4115   6.527   5.173   4.152
  597W        W 4116   1.185   5.297   8.473
  598W        W 4117   3.633   7.284  10.373
  599W        W 4118   2.852   0.920   1.742
  600W        W 4119   8.392   2.145   2.501
  601W        W 4120   2.242   8.817   0.724
  602W        W 4121   0.042   6.210   1.846
  603W        W 4122   5.753   5.892   1.314
  604W        W 4123   6.801   3.871   3.218
  605W        W 4124   4.786   3.341   3.256
  606W        W 4125   4.276   2.738   1.920
  607W        W 4126   9.992   4.653  10.470
  608W        W 4127   3.241   5.565   0.830
  609W        W 4128   4.183   0.548   8.654
  610W        W 4129   0.449   4.192   2.860
  611W        W 4130   0.839   4.287  11.725
  612W        W 4131   1.668   2.252  11.447
  613W        W 4132   1.206   8.033  11.237
  614W        W 4133   3.963   0.347  10.931
  615W        W 4134   5.816   7.745   2.725
  616W        W 4135   0.202   0.059   2.184
  617W        W 4136   1.273   1.187   1.985
  618W        W 4137   2.129   3.751  10.397
  619W        W 4138   8.453   2.919   2.128
  620W        W 4139   5.571   5.693   3.286
  621W        W 4140   8.276   8.468  10.620
  622W        W 4141   6.472   2.526   3.259
  623W        W 4142   9.930   5.730   0.973
  624W        W 4143   6.754   1.851  11.044
  625W        W 4144   5.331   2.037   1.993
  626W        W 4145   5.865   5.975   9.980
  627W        W 4146   7.602   8.261   9.382
  628W        W 4147   2.215   6.009   9.236
  629W        W 4148   7.279   0.750  11.797
  630W        W 4149   4.933   4.022   1.992
  631W        W 4150   3.834   5.517   0.133
  632W        W 4151   7.970   4.993   3.002
  633W        W 4152   7.164   0.001  10.985
  634W        W 4153   6.168   6.973   3.174
  635W        W 4154   5.020   7.466  10.284
  636W        W 4155   0.760   7.397   0.689
  637W        W 4156   9.435   9.984  10.799
  638W        W 4157   8.019   1.155  10.140
  639W        W 4158   5.321   6.861   3.695
  640W        W 4159   4.748   3.835   9.899
  641W        W 4160   5.248   5.474   0.711
  642W        W 4161   7.434   1.226  11.022
  643W        W 4162   2.097   7.983   0.466
  644W        W 4163   9.860   1.488  10.526
  645W        W 4164   5.308   1.002   1.844
  646W        W 4165   2.919   8.289  10.931
  647W        W 4166   6.122   8.543  10.412
  648W        W 4167   0.026   9.411   9.538
  649W        W 4168   9.349   6.063   0.737
  650W        W 4169   7.035   0.914   1.217
  651W        W 4170   4.638   4.566   1.208
  652W        W 4171   8.359   2.005   2.985
  653W        W 4172   9.475   8.475   9.736
  654W        W 4173   1.773   3.670   0.213
  655W        W 4174   7.206   3.527  11.986
  656W        W 4175   6.958   0.448   0.331
  657W        W 4176   4.221   3.499  11.951
  658W        W 4177   9.316   3.590   0.293
  659W        W 4178   8.753   6.645   9.178
  660W        W 4179   3.675   5.412   1.274
  661W        W 4180   2.963   9.379   3.169
  662W        W 4181   9.707   1.874   9.024
  663W        W 4182   2.322   7.664  11.048
  664W        W 4183   7.054   5.140   4.015
  665W        W 4184   5.544   9.417   1.171
  666W        W 4185   9.221   3.277   1.770
  667W        W 4186   4.524   6.156   3.152
  668W        W 4187   0.364   7.090   9.751
  669W        W 4188   1.953   6.379   1.711
  670W        W 4189   2.043   0.407  10.964
  671W        W 4190   2.704   0.393   1.169
  672W        W 4191   3.862   2.955  11.270
  673W        W 4192   5.676   9.109   9.243
  674W        W 4193   5.522   7.213   0.424
  675W        W 4194   8.043   6.658  11.866
  676W        W 4195   6.070   7.558  10.321
  677W        W 4196   7.634   6.117   0.251
  678W        W 4197   3.105   1.335   3.578
  679W        W 4198   6.627   1.481   0.923
  680W        W 4199   3.409   3.470   3.705
  681W        W 4200   9.464   5.311   1.413
  682W        W 4201   3.609   0.767   1.271
  683W        W 4202   4.996   2.343   1.605
  684W        W 4203   5.678   7.128   3.145
  685W        W 4204   9.891   0.855  11.755
  686W        W 4205   5.223   7.519   0.086
  687W        W 4206   6.532   5.545   9.262
  688W        W 4207   2.324   9.094   0.273
  689W        W 4208   2.186   5.521  11.678
  690W        W 4209   8.801   9.070   2.795
  691W        W 4210   6.777   4.483  10.041
  692W        W 4211   4.085   9.176   2.794
  693W        W 4212   8.379   8.492   3.279
  694W        W 4213   2.260   7.619   2.377
  695W        W 4214   6.390   2.190  10.949
  696W        W 4215   4.233   1.414  10.254
  697W        W 4216   6.381   1.560   2.893
  698W        W 4217   4.622   0.745   1.175
  699W        W 4218   4.159   9.800   1.411
  700W        W 4219   5.430   7.060  11.929
  701W        W 4220   5.154   2.793  10.701
  702W        W 4221   0.083   9.567  11.540
  703W        W 4222   7.947   5.089   0.007
  704W        W 4223   4.284   5.087   2.584
  705W        W 4224   4.458   6.666   3.148
  706W        W 4225   3.914   3.935  10.384
  707W        W 4226   3.906   4.655   4.010
  708W        W 4227   0.882   9.884   9.746
  709W        W 4228   9.436   1.340   0.313
  710W        W 4229   9.787   3.819   0.646
  711W        W 4230   2.728   0.052  10.529
  712W        W 4231   3.271   4.927   8.196
  713W        W 4232   9.991   6.962   9.014
  714W        W 4233   2.408   8.346   9.029
  715W        W 4234   8.813   7.868   3.387
  716W        W 4235   4.257   3.850  11.581
  717W        W 4236   9.369   7.005  10.675
  718W        W 4237   5.690   6.523   1.140
  719W        W 4238   3.390   5.398   0.370
  720W        W 4239   5.644   7.825  10.417
  721W        W 4240   8.935   7.475   2.355
  722W        W 4241   8.573   4.848   3.092
  723W        W 4242   9.855   1.484   3.050
  724W        W 4243   2.839   1.466  11.623
  725W        W 4244   7.710   3.120   3.191
  726W        W 4245   5.169   5.469   3.095
  727W        W 4246   4.444   0.082   2.448
  728W        W 4247   9.444   0.203   9.716
  729W        W 4248   9.750   2.377  10.889
  730W        W 4249   7.604   5.291  11.663
  731W        W 4250   3.107   6.928   1.219
  732W        W 4251   8.873   6.268   0.820
  733W        W 4252   5.122   2.043   1.191
  734W        W 4253   4.407   5.659   3.262
  735W        W 4254   6.677   1.182   3.106
  736W        W 4255   3.830   4.608   0.041
  737W        W 4256   8.393   3.856   2.371
  738W        W 4257   8.139   5.869   1.135
  739W        W 4258   4.470   2.585   1.461
  740W        W 4259   7.185   7.268   0.772
  741W        W 4260   3.867   3.651   9.854
  742W        W 4261   8.951   4.611   0.042
  743W        W 4262   3.612   7.878  10.346
  744W        W 4263   4.068   8.248   1.514
  745W        W 4264   9.042   8.322   2.133
  746W        W 4265   7.531   8.941  10.506
  747W        W 4266   9.060   4.189   0.876
  748W        W 4267   0.326   2.867   3.549
  749W        W 4268   4.787   2.747  11.426
  750W        W 4269   1.752   0.698   2.302
  751W        W 4270   7.813   1.236  10.626
  752W        W 4271   2.800   3.323   2.996
  753W        W 4272   4.104   0.852  11.035
  754W        W 4273   2.761   8.013   1.609
  755W        W 4274   3.733   4.506   9.362
  756W        W 4275   7.491   4.412   3.054
  757W        W 4276   7.878   4.668   0.305
  758W        W 4277   9.797   7.670   2.006
  759W        W 4278   8.364   4.578  11.458
  760W        W 4279   1.490   0.558   9.403
  761W        W 4280   5.149   2.734   2.681
  762W        W 4281   8.694   6.104  11.938
  763W        W 4282   0.060   5.601   9.033
  764W        W 4283   8.955   7.046   9.458
  765W        W 4284   3.297   9.233   1.392
  766W        W 4285   0.429   6.619   9.919
  767W        W 4286   4.604   5.779   2.223
  768W        W 4287   7.877   1.870   1.330
  769W        W 4288   3.232   3.570  11.935
  770W        W 4289   7.101   6.479   8.340
  771W        W 4290   2.385   2.114  10.114
  772W        W 4291   6.966   6.333   8.810
  773W        W 4292   5.022   9.862   9.194
  774W        W 4293   2.351   1.906  10.940
  775W        W 4294   8.804   6.237  10.574
  776W        W 4295   7.398   3.175   2.670
  777W        W 4296   5.188   3.928  10.167
  778W        W 4297   2.630   7.990  11.286
  779W        W 4298   5.888   2.269  11.035
  780W        W 4299   9.172   9.308  11.510
  781W        W 4300   7.171   6.546   3.952
  782W        W 4301   8.474   7.934  11.041
  783W        W 4302   9.847   1.280  10.054
  784W        W 4303   1.709   3.760   0.706
  785W        W 4304   0.901   8.862   3.606
  786W        W 4305   1.985   3.241   3.345
  787W        W 4306   9.527   8.135   2.009
  788W        W 4307   9.401   4.853  11.813
  789W        W 4308   3.118   3.682   0.876
  790W        W 4309   2.338   3.699   1.806
  791W        W 4310   8.336   8.793   0.200
  792W        W 4311   5.147   8.720  10.942
  793W        W 4312   6.214   9.890   0.263
  794W        W 4313   5.881   1.643   8.479
  795W        W 4314   2.782   4.385   2.141
  796W        W 4315   2.761   2.091   0.921
  797W        W 4316   0.312   6.150   3.206
  798W        W 4317   6.565   9.259   2.379
  799W        W 4318   9.608   7.531  11.777
  800W        W 4319   4.180   8.911   8.668
  801W        W 4320   2.913   0.459   9.329
  802W        W 4321   8.726   6.425  11.226
  803W        W 4322   2.726   3.680  10.664
  804W        W 4323   5.408   0.846  11.072
  805W        W 4324   5.616   1.689   2.286
  806W        W 4325   5.153   8.861  10.446
  807W        W 4326   1.399   0.275   8.954
  808W        W 4327   6.002   8.055   3.116
  809W        W 4328   6.978   2.546   9.801
  810W        W 4329   3.461   4.428   3.810
  811W        W 4330   3.797   1.427   8.609
  812W        W 4331   9.900   6.839   9.973
  813W        W 4332   3.910   8.090   9.074
  814W        W 4333   6.823   2.786  10.210
  815W        W 4334   1.829   5.659   9.585
  816W        W 4335   8.907   0.799   9.001
  817W        W 4336   0.477   1.654   9.855
  818W        W 4337   3.304   8.428  10.615
  819W        W 4338   4.743   7.510   2.322
  820W        W 4339   3.843   9.783  11.813
  821W        W 4340   2.700   3.625   0.089
  822W        W 4341   5.067   6.357   0.245
  823W        W 4342   3.507   0.602   2.212
  824W        W 4343   5.196   5.680   1.202
  825W        W 4344   8.266   4.340   2.339
  826W        W 4345   6.689   8.526   1.833
  827W        W 4346   3.359   9.360   8.644
  828W        W 4347   7.255   2.000   1.468
  829W        W 4348   3.737   9.026   1.621
  830W        W 4349   8.956   9.919  10.945
  831W        W 4350   3.159   8.233   3.293
  832W        W 4351   0.047   1.800   2.668
  833W        W 4352   6.816   5.869   8.964
  834W        W 4353   0.328   0.022  11.609
  835W        W 4354   4.864   1.856   1.841
  836W        W 4355   6.589   8.757  10.447
  837W        W 4356   1.170   0.380  10.727
  838W        W 4357   6.440   2.702  10.512
  839W        W 4358   2.738   9.219  10.643
  840W        W 4359   6.243   3.665   0.850
  841W        W 4360   0.453   1.362  11.268
  842W        W 4361   4.595   9.211   2.779
  843W        W 4362   6.354   9.237   2.829
  844W        W 4363   5.842   4.608  10.468
  845W        W 4364   9.647   1.762   0.114
  846W        W 4365   6.106   9.055  11.170
  847W        W 4366   2.182   3.831   9.027
  848W        W 4367   7.629   2.571  11.355
  849W        W 4368   2.682   6.757   2.872
  850W        W 4369   1.352   3.828   9.298
  851W        W 4370   0.862   2.877  11.518
  852W        W 4371   2.129   0.990   0.814
  853W        W 4372   6.175   5.943   1.657
  854W        W 4373   0.630   2.817   9.549
  855W        W 4374   4.233   2.817   9.549
  856W        W 4375   9.659   0.565   3.558
  857W        W 4376   7.953   7.396   0.386
  858W        W 4377   9.438   8.617  10.247
  859W        W 4378   5.260   5.515   0.173
  860W        W 4379   2.711   3.318   9.667
  861W        W 4380   8.601   3.482   3.325
  862W        W 4381   8.290   1.993   1.719
  863W        W 4382   4.066   8.523   3.859
  864W        W 4383   8.296   3.224  11.449
  865W        W 4384   9.557   3.045   0.269
  866W        W 4385   3.943   2.419  11.254
  867W        W 4386   8.049   5.993   9.580
  868W        W 4387   3.345   4.029   4.122
  869W        W 4388   7.393   4.810   0.426
  870W        W 4389   5.208   2.265   0.179
  871W        W 4390   3.872   7.866   9.553
  872W        W 4391   7.823   1.665  10.302
  873W        W 4392   0.959   9.236   9.553
  874W        W 4393   5.223   6.113   8.102
  875W        W 4394   9.459   1.599   9.963
  876W        W 4395   6.579   2.415   0.918
  877W        W 4396   7.099   6.600   1.325
  878W        W 4397   7.548   3.746   1.949
  879W        W 4398   9.092   9.771  10.429
  880W        W 4399   9.921   4.767   0.885
  881W        W 4400   2.137   9.679   2.133
  882W        W 4401   0.381   4.523   1.749
  883W        W 4402   7.270   2.140   3.221
  884W        W 4403   2.191   3.012  11.429
  885W        W 4404   7.784   3.674   9.550
  886W        W 4405   1.348   9.515   2.635
  887W        W 4406   6.408   6.071   4.111
  888W        W 4407   8.630   5.063  10.374
  889W        W 4408   9.034   4.312  10.638
  890W        W 4409   4.528   7.695  11.374
  891W        W 4410   6.489   1.144   2.625
  892W        W 4411   7.964   0.203   0.989
  893W        W 4412   8.385   3.645  10.214
  894W        W 4413   8.976   4.711  10.268
  895W        W 4414   3.185   6.685  10.879
  896W        W 4415   6.498   7.304   3.485
  897W        W 4416   9.291   2.574  10.834
  898W        W 4417   9.955   9.817   9.236
  899W        W 4418   0.679   4.646  10.876
  900W        W 4419   4.206   4.318  10.620
  901W        W 4420   4.722   2.308   9.024
  902W        W 4421   0.322   3.929   2.208
  903W        W 4422   7.087   2.791  10.661
  904W        W 4423   1.788   6.140   1.231
  905W        W 4424   0.139   5.398   8.343
  906W        W 4425   2.462   3.165   0.192
  907W        W 4426   4.823   6.667   1.946
  908W        W 4427   1.499   8.627   2.812
  909W        W 4428   5.121   0.958   3.316
  910W        W 4429   0.774   7.959   0.026
  911W        W 4430   9.285   7.548   2.732
  912W        W 4431   6.539   7.223   2.933
  913W        W 4432   5.065   4.007  11.974
  914W        W 4433   3.080   7.440   2.900
  915W        W 4434   6.958   2.968   2.803
  916W        W 4435   7.565   1.212   0.509
  917W        W 4436   7.700   9.981   0.373
  918W        W 4437   3.172   7.940   2.814
  919W        W 4438   4.159   6.811   1.428
  920W        W 4439   6.071   3.337   9.202
  921W        W 4440   2.609   8.713   2.400
  922W        W 4441   0.940   7.595  11.680
  923W        W 4442   5.218   8.874   9.107
  924W        W 4443   1.025   5.675  10.864
  925W        W 4444   4.430   4.098   1.972
  926W        W 4445   6.084   5.195   9.275
  927W        W 4446   3.826   9.853   1.018
  928W        W 4447   5.599   0.631   0.762
  929W        W 4448   0.600   7.437  10.903
  930W        W 4449   6.673   9.968   0.474
  931W        W 4450   6.711   0.237   3.569
  932W        W 4451   6.186   4.135   8.286
  933W        W 4452   6.465   4.590   0.504
  934W        W 4453   0.530   3.522  11.771
  935W        W 4454   2.595   0.716   0.779
  936W        W 4455   1.983   2.643   9.562
  937W        W 4456   0.176   0.579  10.743
  938W        W 4457   3.450   2.252   3.507
  939W        W 4458   5.697   2.081  10.460
  940W        W 4459   9.997   2.160  11.472
  941W        W 4460   9.692   1.449   8.599
  942W        W 4461   3.271   3.685  11.022
  943W        W 4462   1.340   3.815   1.876
  944W        W 4463   4.768   2.817   0.819
  945W        W 4464   5.006   9.821   1.275
  946W        W 4465   4.010   3.407  10.422
  947W        W 4466   2.589   3.357  11.586
  948W        W 4467   0.109   6.493   8.864
  949W        W 4468   3.337   1.395  10.020
  950W        W 4469   5.306   6.449   0.779
  951W        W 4470   9.408   2.595  11.351
  952W        W 4471   9.639   6.993   3.531
  953W        W 4472   1.713   2.181   2.346
  954W        W 4473   3.308   3.070   2.453
  955W        W 4474   5.721   1.888   2.746
  956W        W 4475   0.333   0.950   3.391
  957W        W 4476   4.737   5.462   2.654
  958W        W 4477   4.349   7.671   1.104
  959W        W 4478   6.157   7.198  11.434
  960W        W 4479   8.649   2.395   9.649
  961W        W 4480   1.394   9.325   9.816
  962W        W 4481   4.950   9.379  10.491
  963W        W 4482   5.866   0.921   1.769
  964W        W 4483   6.513   3.707   3.627
  965W        W 4484   2.749   0.868  10.627
  966W        W 4485   1.870   6.985   0.835
  967W        W 4486   3.112   7.077   2.542
  968W        W 4487   9.820   4.360   1.273
  969W        W 4488   8.498   4.696   1.407
  970W        W 4489   2.278   1.349  10.871
  971W        W 4490   5.785   5.015   1.348
  972W        W 4491   7.555   6.362   1.567
  973W        W 4492   0.652   5.791   3.127
  974W        W 4493   2.872   0.661  11.084
  975W        W 4494   4.128   1.389   1.631
  976W        W 4495   7.329   6.183   9.564
  977W        W 4496   9.038   6.231   2.646
  978W        W 4497   0.544   7.699   3.146
  979W        W 4498   9.800   0.354   2.209
  980W        W 4499   1.948   9.902  11.995
  981W        W 4500   2.214   5.055   1.841
  982W        W 4501   9.249   7.322   3.490
  983W        W 4502   5.794   6.727   2.814
  984W        W 4503   1.734   2.270   1.434
  985W        W 4504   1.654   5.181   1.061
  986W        W 4505   7.429   2.998  11.549
  987W        W 4506   9.448   5.768   1.155
  988W        W 4507   0.792   7.875   8.847
  989W        W 4508   1.767   5.252  11.756
  990W        W 4509   3.247   8.254   0.452
  991W        W 4510   3.036   7.788  11.036
  992W        W 4511   9.570   5.037  10.423
  993W        W 4512   1.828   8.228   2.949
  994W        W 4513   6.078   1.443   2.371
  995W        W 4514   3.344   3.861  11.505
  996W        W 4515   8.839   3.315  10.486
  997W        W 4516   2.922   2.831   3.219
  998W        W 4517   3.064   9.515   2.277
  999W        W 4518   2.776   1.227  11.023
 1000W        W 4519   1.295   3.315   9.323
 1001W        W 4520   7.001   7.982   0.185
 1002W        W 4521   2.394   8.951  11.348
 1003W        W 4522   3.077   6.608   9.839
 1004W        W 4523   6.644   1.353   1.740
 1005W        W 4524   6.967   4.266   2.274
 1006W        W 4525   9.893   8.268   0.831
 1007W        W 4526   5.089   3.651   8.715
 1008W        W 4527   2.106   1.787   0.366
 1009W        W 4528   4.280   8.449   8.843
 1010W        W 4529   7.880   1.735   3.803
 1011W        W 4530   0.624   0.767   1.160
 1012W        W 4531   6.063   8.505   8.830
 1013W        W 4532   3.122   8.509   2.604
 1014W        W 4533   3.000   1.848   0.485
 1015W        W 4534   9.342   7.919   0.015
 1016W        W 4535   9.938   8.431  11.538
 1017W        W 4536   5.626   8.034   1.796
 1018W        W 4537   1.261   4.045  11.479
 1019W        W 4538   9.106   5.212  10.289
 1020W        W 4539   1.216   0.226   2.616
 1021W        W 4540   2.383   6.665   1.676
 1022W        W 4541   4.098   1.863  11.165
 1023W        W 4542   4.022   7.979   3.363
 1024W        W 4543   8.399   1.209   0.541
 1025W        W 4544   9.837   4.583  11.777
 1026W        W 4545   5.668   0.773  11.905
 1027W        W 4546   4.017   4.950   8.834
 1028W        W 4547   6.595   4.832   2.879
 1029W        W 4548   6.186   5.219   3.747
 1030W        W 4549   8.958   6.470   9.622
 1031W        W 4550   9.064   8.575  10.960
 1032W        W 4551   2.755   2.701   0.209
 1033W        W 4552   9.507   4.777   2.663
 1034W        W 4553   8.633   6.050   1.219
 1035W        W 4554   3.014   6.853  11.430
 1036W        W 4555   7.980   2.761   2.920
 1037W        W 4556   2.169   4.516   1.303
 1038W        W 4557   5.545   3.197   0.075
 1039W        W 4558   5.552   2.255   0.550
 1040W        W 4559   9.808   5.253   0.964
 1041W        W 4560   1.129   5.561   3.184
 1042W        W 4561   6.052   3.514  11.401
 1043W        W 4562   2.212   2.830   9.137
 1044W        W 4563   5.507   4.359  10.787
 1045W        W 4564   4.691   8.226   8.673
 1046W        W 4565   0.766   8.588   1.828
 1047W        W 4566   8.722   9.956   2.032
 1048W        W 4567   1.239   9.995   0.821
 1049W        W 4568   3.566   2.038  11.284
 1050W        W 4569   5.612   5.184   3.175
 1051W        W 4570   4.142   8.636  11.140
 1052W        W 4571   6.798   9.366   1.945
 1053W        W 4572   3.467   2.600   0.604
 1054W        W 4573   0.221   4.324  11.538
 1055W        W 4574   5.163   7.981   2.078
 1056W        W 4575   7.548   7.565   2.336
 1057W        W 4576   7.854   0.635   0.748
 1058W        W 4577   4.214   4.225   2.413
 1059W        W 4578   4.235   3.702   1.697
 1060W        W 4579   4.122   9.943  10.618
 1061W        W 4580   7.869   2.983  10.239
 1062W        W 4581   3.154   9.093   9.814
 1063W        W 4582   6.830   6.954   3.268
 1064W        W 4583   8.260   6.396  11.011
 1065W        W 4584   9.375   4.093   0.499
 1066W        W 4585   5.329   4.412  10.307
 1067W        W 4586   7.063   9.524   0.653
 1068W        W 4587   3.809   9.275   2.382
 1069W        W 4588   3.542   1.855   8.694
 1070W        W 4589   9.836   3.903  11.096
 1071W        W 4590   4.889   5.359  11.861
 1072W        W 4591   6.978   8.606  10.798
 1073W        W 4592   9.698   3.901   0.138
 1074W        W 4593   4.215   2.685  10.889
 1075W        W 4594   1.214   6.698  10.575
 1076W        W 4595   0.965   3.278   0.432
 1077W        W 4596   1.708   8.476  11.800
 1078W        W 4597   1.301   9.709   9.520
 1079W        W 4598   5.645   8.966   0.872
 1080W        W 4599   0.183   7.272  11.176
 1081W        W 4600   0.211   5.915  11.732
 1082W        W 4601   7.589   4.703   1.809
 1083W        W 4602   9.766   5.627  11.786
 1084W        W 4603   4.517   2.254  11.637
 1085W        W 4604   8.272   4.645  10.986
 1086W        W 4605   3.538   5.990   2.904
 1087W        W 4606   4.261   6.878   9.742
 1088W        W 4607   5.145   0.581  11.446
 1089W        W 4608   1.042   1.553   1.725
 1090W        W 4609   5.341   1.183   9.243
 1091W        W 4610   6.764   8.338  11.174
 1092W        W 4611   1.910   2.232   9.906
 1093W        W 4612   8.886   5.725  10.451
 1094W        W 4613   7.109   3.541   0.859
 1095W        W 4614   9.462   8.390  10.706
 1096W        W 4615   8.016   4.998  11.480
 1097W        W 4616   5.609   0.666  10.076
 1098W        W 4617   2.320   3.596   3.174
 1099W        W 4618   7.636   3.905  10.799
 1100W        W 4619   6.151   4.716   9.531
 1101W        W 4620   9.314   9.508   0.890
 1102W        W 4621   4.706   8.621  10.454
 1103W        W 4622   6.999   8.080   2.754
 1104W        W 4623   9.775   7.362   1.042
 1105W        W 4624   6.948   5.323   0.237
 1106W        W 4625   0.685   6.578   2.167
 1107W        W 4626   3.644   2.523   2.712
 1108W        W 4627   7.521   1.566   1.524
 1109W        W 4628   1.981   9.668   3.270
 1110W        W 4629   3.672   8.510   1.740
 1111W        W 4630   3.797   4.167  10.856
 1112W        W 4631   3.526   8.932   2.657
 1113W        W 4632   6.484   6.557   3.188
 1114W        W 4633   8.896   6.482  11.701
 1115W        W 4634   0.396   8.501   9.328
 1116W        W 4635   3.187   9.910   2.690
 1117W        W 4636   0.556   0.488   3.316
 1118W        W 4637   1.138   8.854   0.351
 1119W        W 4638   8.490   5.448  10.728
 1120W        W 4639   6.037   5.477   3.308
 1121W        W 4640   3.698   9.598   9.019
 1122W        W 4641   0.825   8.786  11.467
 1123W        W 4642   4.217   0.624  10.553
 1124W        W 4643   2.047   6.492  11.403
 1125W        W 4644   1.057   4.970  10.530
 1126W        W 4645   6.468   8.121  11.517
 1127W        W 4646   3.750   5.924  10.727
 1128W        W 4647   9.796   4.067  11.655
 1129W        W 4648   0.608   7.558   2.670
 1130W        W 4649   3.171   7.336   0.922
 1131W        W 4650   0.071   5.437   2.901
 1132W        W 4651   1.469   2.958   0.166
 1133W        W 4652   3.703   5.968   0.474
 1134W        W 4653   8.549   8.912   9.043
 1135W        W 4654   9.748   6.475   9.233
 1136W        W 4655   9.109   5.744   2.792
 1137W        W 4656   8.477   2.748  11.477
 1138W        W 4657   6.837   4.982  10.265
 1139W        W 4658   1.645   3.495  10.540
 1140W        W 4659   8.616   3.951   0.943
 1141W        W 4660   7.403   9.461  11.728
 1142W        W 4661   0.354   2.595   9.966
 1143W        W 4662   5.524   7.056   1.184
 1144W        W 4663   8.926   1.237   3.240
 1145W        W 4664   9.950   0.095   8.795
 1146W        W 4665   4.915   3.418   1.544
 1147W        W 4666   4.839   2.978   4.119
 1148W        W 4667   3.030   6.268   2.245
 1149W        W 4668   7.957   3.960   1.421
 1150W        W 4669   3.120   3.288   2.029
 1151W        W 4670   0.622   9.775   2.188
 1152W        W 4671   1.375   9.334   2.164
 1153W        W 4672   1.175   4.568  10.833
 1154W        W 4673   2.195   9.272   3.500
 1155W        W 4674   4.777   3.714  10.396
 1156W        W 4675   2.132   7.111  10.415
 1157W        W 4676   6.237   6.478   2.310
 1158W        W 4677   1.109   7.151  10.352
 1159W        W 4678   6.887   9.527  11.673
 1160W        W 4679   8.582   7.634   9.850
 1161W        W 4680   2.682   7.846   2.187
 1162W        W 4681   6.216   3.195   1.367
 1163W        W 4682   3.020   9.288   1.834
 1164W        W 4683   4.909   2.173  10.774
 1165W        W 4684   8.953   6.703   1.150
 1166W        W 4685   1.195   6.150  10.975
 1167W        W 4686   6.513   2.695   9.575
 1168W        W 4687   1.810   5.259   9.234
 1169W        W 4688   3.205   5.163   2.344
 1170W        W 4689   6.830   7.217  11.871
 1171W        W 4690   7.409   9.866  11.412
 1172W        W 4691   0.570   6.196  10.190
 1173W        W 4692   6.109   0.043   2.647
 1174W        W 4693   9.210   3.666   0.819
 1175W        W 4694   7.543   7.649   0.174
 1176W        W 4695   3.039   2.854   1.359
 1177W        W 4696   0.868   2.586   0.803
 1178W        W 4697   3.643   6.786   8.972
 1179W        W 4698   5.522   4.548   0.613
 1180W        W 4699   3.866   4.002   0.807
 1181W        W 4700   4.617   8.217   0.379
 1182W        W 4701   9.855   9.128   0.297
 1183W        W 4702   1.962   8.739   2.993
 1184W        W 4703   8.806   3.908   3.118
 1185W        W 4704   7.688   1.463   2.886
 1186W        W 4705   4.686   3.986  11.349
 1187W        W 4706   4.899   2.228   2.612
 1188W        W 4707   3.615   3.409   2.172
 1189W        W 4708   3.289   3.044   3.486
 1190W        W 4709   9.801   1.515   3.603
 1191W        W 4710   0.412   9.422   9.154
 1192W        W 4711   2.594   0.581   2.571
 1193W        W 4712   3.116   7.576  11.971
 1194W        W 4713   2.563   6.188   1.637
 1195W        W 4714   7.233   8.950   9.658
 1196W        W 4715   5.643   8.335  10.349
 1197W        W 4716   6.888   4.618  11.507
 1198W        W 4717   8.490   3.496   0.181
 1199W        W 4718   4.547   8.270   2.740
 1200W        W 4719   3.699   8.267  11.905
 1201W        W 4720   7.106   8.704  11.823
 1202W        W 4721   7.763   9.168   8.766
 1203W        W 4722   2.101   6.535  10.058
 1204W        W 4723   3.745   8.115   0.611
 1205W        W 4724   1.641   4.653   1.258
 1206W        W 4725   1.843   1.647   8.579
 1207W        W 4726   5.192   3.200   2.483
 1208W        W 4727   3.627   6.463   8.008
 1209W        W 4728   5.190   7.980  10.204
 1210W        W 4729   9.580   3.361   0.656
 1211W        W 4730   8.189   5.381   1.869
 1212W        W 4731   1.266   0.776  10.384
 1213W        W 4732   8.735   6.513   3.391
 1214W        W 4733   8.785   3.796   9.944
 1215W        W 4734   9.450   8.013   0.980
 1216W        W 4735   6.448   6.054   0.001
 1217W        W 4736   4.111   4.900  11.435
 1218W        W 4737   0.419   6.237   2.712
 1219W        W 4738   3.592   4.012   0.266
 1220W        W 4739   0.800   2.571   9.133
 1221W        W 4740   8.644   7.430  11.917
 1222W        W 4741   8.410   1.396   1.020
 1223W        W 4742   6.004   0.053  11.288
 1224W        W 4743   2.705   9.677  10.855
 1225W        W 4744   9.128   4.211   9.089
 1226W        W 4745   9.268   7.381   8.631
 1227W        W 4746   6.326   1.697   0.303
 1228W        W 4747   6.628   1.644  10.087
 1229W        W 4748   1.035   4.174   0.195
 1230W        W 4749   2.693   0.416   1.680
 1231W        W 4750   1.841   1.287  11.884
 1232W        W 4751   8.480   7.071   2.492
 1233W        W 4752   1.448   1.811   1.453
 1234W        W 4753   8.551   4.998   1.818
 1235W        W 4754   0.504   2.923   2.329
 1236W        W 4755   9.841   8.009  11.289
 1237W        W 4756   3.512   6.314   0.888
 1238W        W 4757   4.965   0.263  11.869
 1239W        W 4758   7.857   4.510  11.363
 1240W        W 4759   4.154   7.007   0.487
 1241W        W 4760   9.028   2.417  10.428
 1242W        W 4761   6.472   9.796   2.357
 1243W        W 4762   7.485   1.934   0.983
 1244W        W 4763   0.125   2.437  10.476
 1245W        W 4764   2.189   2.438   2.520
 1246W        W 4765   5.870   6.485  10.069
 1247W        W 4766   7.335   8.824   1.398
 1248W        W 4767   2.715   1.623  10.699
 1249W        W 4768   0.724   2.580  10.314
 1250W        W 4769   9.052   1.713  10.889
 1251W        W 4770   4.939   7.006   2.344
 1252W        W 4771   5.721   6.475  11.741
 1253W        W 4772   9.061   5.532   0.331
 1254W        W 4773   7.016   7.691   1.647
 1255W        W 4774   4.457   6.844   8.414
 1256W        W 4775   5.575   3.295   9.060
 1257W        W 4776   8.870   4.950   9.367
 1258W        W 4777   7.422   0.289   1.908
 1259W        W 4778   5.627   8.881  11.074
 1260W        W 4779   3.045   6.049   2.736
 1261W        W 4780   1.656   6.746  11.979
 1262W        W 4781   7.629   3.557   2.438
 1263W        W 4782   1.951   7.790   3.214
 1264W        W 4783   9.202   6.724   3.525
 1265W        W 4784   3.169   9.011   2.272
 1266W        W 4785   8.666   8.403   0.262
 1267W        W 4786   2.620   0.884   1.272
 1268W        W 4787   4.839   8.722   2.695
 1269W        W 4788   4.020   8.065  10.963
 1270W        W 4789   2.676   6.230   9.333
 1271W        W 4790   5.320   6.175   9.010
 1272W        W 4791   0.426   9.003   9.466
 1273W        W 4792   9.121   0.917   9.453
 1274W        W 4793   7.632   6.264   3.698
 1275W        W 4794   3.811   3.891   2.151
 1276W        W 4795   0.394   5.145   2.599
 1277W        W 4796   8.972   8.499  10.441
 1278W        W 4797   9.839   0.428  11.484
 1279W        W 4798   2.750   1.323   8.900
 1280W        W 4799   2.656   8.864   9.128
 1281W        W 4800   8.670   9.456  11.413
 1282W        W 4801   8.721   0.303   9.156
 1283W        W 4802   5.572   3.173   0.577
 1284W        W 4803   8.054   7.099  10.968
 1285W        W 4804   6.209   4.494  10.837
 1286W        W 4805   9.719   8.164  10.199
 1287W        W 4806   3.032   8.999   2.771
 1288W        W 4807   1.456   1.757  11.081
 1289W        W 4808   0.414   3.381  11.282
 1290W        W 4809   9.721   1.241   0.909
 1291W        W 4810   6.931   0.429   1.275
 1292W        W 4811   2.029   5.134   3.185
 1293W        W 4812   2.145   2.290   0.432
 1294W        W 4813   4.323   9.435   8.562
 1295W        W 4814   0.280   1.492   3.398
 1296W        W 4815   1.828   5.192   9.770
 1297W        W 4816   9.993   5.127  10.701
 1298W        W 4817   6.968   2.069   1.043
 1299W        W 4818   2.212   6.519   9.163
 1300W        W 4819   3.930   4.275   2.915
 1301W        W 4820   3.834   2.102   9.039
 1302W        W 4821   0.619   7.186  10.446
 1303W        W 4822   7.490   7.163   0.376
 1304W        W 4823   8.123   3.308   9.921
 1305W        W 4824   0.227   2.928  10.367
 1306W        W 4825   5.230   0.704   2.468
 1307W        W 4826   8.961   0.171   0.931
 1308W        W 4827   3.869   8.626   9.071
 1309W        W 4828   7.124   3.987   1.783
 1310W        W 4829   2.825   1.805   1.933
 1311W        W 4830   8.291   7.193   2.941
 1312W        W 4831   7.328   9.849  10.532
 1313W        W 4832   3.820   0.621   2.647
 1314W        W 4833   9.399   0.616  11.686
 1315W        W 4834   3.143   4.930  11.627
 1316W        W 4835   4.741   3.135   8.129
 1317W        W 4836   3.299   3.956   3.606
 1318W        W 4837   6.972   3.690  10.121
 1319W        W 4838   6.442   9.013   9.963
 1320W        W 4839   9.969   6.508  10.918
 1321W        W 4840   5.092   2.696   9.762
 1322W        W 4841   7.917   8.539   3.540
 1323W        W 4842   6.924   3.353   2.436
 1324W        W 4843   3.856   7.105   3.772
 1325W        W 4844   1.779   9.620  10.530
 1326W        W 4845   6.698   1.713   1.381
 1327W        W 4846   2.165   7.440   8.857
 1328W        W 4847   4.917   9.035   0.445
 1329W        W 4848   9.850   0.386   0.583
 1330W        W 4849   8.887   7.671  11.201
 1331W        W 4850   5.614   9.809  11.492
 1332W        W 4851   5.057   3.025  11.985
 1333W        W 4852   7.611   0.662   3.234
 1334W        W 4853   3.992   3.244   1.839
 1335W        W 4854   7.399   3.049   0.055
 1336W        W 4855   0.728   0.569   9.016
 1337W        W 4856   2.569   1.343   9.383
 1338W        W 4857   9.260   1.430   9.534
 1339W        W 4858   0.816   1.782  11.738
 1340W        W 4859   7.029   9.753   9.702
 1341W        W 4860   0.272   9.922   9.631
 1342W        W 4861   6.130   8.054   9.714
 1343W        W 4862   3.202   9.071  10.778
 1344W        W 4863   1.580   0.783   1.371
 1345W        W 4864   8.448   3.551   2.831
 1346W        W 4865   1.408   7.059   9.105
 1347W        W 4866   0.663   7.471   2.175
 1348W        W 4867   8.489   3.631  11.216
 1349W        W 4868   3.503   5.527  11.686
 1350W        W 4869   2.323   3.154  10.088
 1351W        W 4870   0.894   6.306   1.447
 1352W        W 4871   3.494   5.751   9.745
 1353W        W 4872   8.961   1.350   2.755
 1354W        W 4873   2.605   8.487  11.314
 1355W        W 4874   1.831   9.334   2.409
 1356W        W 4875   4.504   2.383  10.098
 1357W        W 4876   7.911   3.236   2.718
 1358W        W 4877   2.252   3.792  10.911
 1359W        W 4878   1.412   9.324  11.867
 1360W        W 4879   7.344   7.985  11.802
 1361W        W 4880   4.721   1.377   0.212
 1362W        W 4881   7.499   8.389   1.608
 1363W        W 4882   4.097   2.890  10.415
 1364W        W 4883   5.638   4.202   1.580
 1365W        W 4884   3.681   0.379   0.733
 1366W        W 4885   1.727   0.025  10.838
 1367W        W 4886   9.033   6.964   8.883
 1368W        W 4887   1.006   4.051   9.008
 1369W        W 4888   9.420   0.403   0.885
 1370W        W 4889   6.592   8.016   2.477
 1371W        W 4890   2.136   0.371  10.458
 1372W        W 4891   5.217   8.999  11.407
 1373W        W 4892   3.028   3.932   8.436
 1374W        W 4893   1.907   5.431  10.774
 1375W        W 4894   2.264   3.487   1.325
 1376W        W 4895   4.371   4.003   0.633
 1377W        W 4896   4.059   5.995   3.064
 1378W        W 4897   9.093   4.988  11.209
 1379W        W 4898   1.940   6.987   9.053
 1380W        W 4899   6.684   5.554   2.161
 1381W        W 4900   8.539   3.786  11.702
 1382W        W 4901   7.035   1.909  10.600
 1383W        W 4902   5.797   2.666  11.343
 1384W        W 4903   7.451   8.195   2.954
 1385W        W 4904   6.247   6.171  10.306
 1386W        W 4905   6.460   5.791  11.075
 1387W        W 4906   3.084   2.167  11.440
 1388W        W 4907   4.354   7.596   3.197
 1389W        W 4908   7.693   4.604   0.783
 1390W        W 4909   6.655   4.122   1.619
 1391W        W 4910   3.998   2.324   1.812
 1392W        W 4911   4.767   9.609   2.476
 1393W        W 4912   0.977   1.220  10.397
 1394W        W 4913   4.430   7.425   1.922
 1395W        W 4914   4.923   7.996   3.928
 1396W        W 4915   9.406   9.695  11.760
 1397W        W 4916   4.698   2.312   0.632
 1398W        W 4917   5.354   3.457   1.843
 1399W        W 4918   1.223   0.958   0.486
 1400W        W 4919   8.247   5.628   2.489
 1401W        W 4920   0.010   0.249   1.723
 1402W        W 4921   3.602   6.898   2.490
 1403W        W 4922   1.353   4.582   0.308
 1404W        W 4923   3.008   4.691  10.544
 1405W        W 4924   8.723   7.242  11.449
 1406W        W 4925   0.729   2.118  11.093
 1407W        W 4926   1.090   2.974   3.081
 1408W        W 4927   1.064   8.396   9.362
 1409W        W 4928   1.814   7.044   2.220
 1410W        W 4929   4.554   4.121   9.199
 1411W        W 4930   5.992   7.174   0.896
 1412W        W 4931   9.235   5.242   2.691
 1413W        W 4932   4.149   6.374   9.599
 1414W        W 4933   2.467   1.690   1.126
 1415W        W 4934   4.313   3.748   9.623
 1416W        W 4935   5.907   9.446   2.985
 1417W        W 4936   8.466   6.562   1.299
 1418W        W 4937   1.380   7.127   9.915
 1419W        W 4938   3.125   9.543  10.050
 1420W        W 4939   4.196   0.396   9.142
 1421W        W 4940   3.261   1.139   1.352
 1422W        W 4941   3.152   6.514   9.324
 1423W        W 4942   8.910   4.626   9.764
 1424W        W 4943   2.190   0.119   0.429
 1425W        W 4944   3.234   1.779   2.679
 1426W        W 4945   0.431   4.005  11.880
 1427W        W 4946   5.456   5.785  10.258
 1428W        W 4947   8.856   7.921   0.207
 1429W        W 4948   2.556   9.946   1.343
 1430W        W 4949   5.542   4.015   3.357
 1431W        W 4950   3.489   0.871   0.751
 1432W        W 4951   0.182   3.272   3.231
 1433W        W 4952   5.509   1.198  10.683
 1434W        W 4953   7.767   7.478   1.254
 1435W        W 4954   4.711   3.920   1.553
 1436W        W 4955   4.070   8.187   9.932
 1437W        W 4956   8.607   5.361   0.622
 1438W        W 4957   5.073   4.626  10.731
 1439W        W 4958   9.753   8.616   2.849
 1440W        W 4959   9.000   5.478  11.341
 1441W        W 4960   9.997   3.092  11.971
 1442W        W 4961   2.280   1.261   1.439
 1443W        W 4962   6.872   6.833  10.216
 1444W        W 4963   7.662   8.854   1.795
 1445W        W 4964   2.042   1.286   0.385
 1446W        W 4965   1.644   2.750   3.111
 1447W        W 4966   5.860   0.505   8.914
 1448W        W 4967   7.870   0.811   1.227
 1449W        W 4968   1.853   5.698   0.395
 1450W        W 4969   1.757   9.852   8.797
 1451W        W 4970   2.251   2.126   1.317
 1452W        W 4971   4.915   2.771   8.943
 1453W        W 4972   2.216   1.693   9.886
 1454W        W 4973   9.304   3.125   2.863
 1455W        W 4974   2.655   9.486   9.810
 1456W        W 4975   6.955   5.990   2.314
 1457W        W 4976   6.399   6.794  11.035
 1458W        W 4977   8.348   2.868  10.089
 1459W        W 4978   0.155   9.140   1.142
 1460W        W 4979   8.175   9.296   9.132
 1461W        W 4980   3.695   1.643   2.435
 1462W        W 4981   3.660   9.034   9.872
 1463W        W 4982   2.022   8.638   3.516
 1464W        W 4983   3.950   9.171   3.546
 1465W        W 4984   6.088   5.910   2.523
 1466W        W 4985   7.459   6.055   2.403
 1467W        W 4986   5.653   7.014   9.862
 1468W        W 4987   1.762   1.764  10.137
 1469W        W 4988   9.771   9.875   2.012
 1470W        W 4989   7.837   1.605  11.867
 1471W        W 4990   8.578   5.554   1.101
 1472W        W 4991   4.922   2.662   0.322
 1473W        W 4992   2.581   2.001   8.893
 1474W        W 4993   6.224   5.935   0.484
 1475W        W 4994   8.450   3.112   9.030
 1476W        W 4995   6.109   5.466   0.273
 1477W        W 4996   9.308   3.715   3.138
 1478W        W 4997   3.025   1.064   0.903
 1479W        W 4998   8.592   8.406   1.914
 1480W        W 4999   8.509   0.050   9.676
 1481W        W 5000   9.442   1.414  11.284
 1482W        W 5001   6.839   0.233   9.504
 1483W        W 5002   7.077   4.844   3.591
 1484W        W 5003   1.433   1.506   1.040
 1485W        W 5004   8.496   0.330  11.668
 1486W        W 5005   2.324   6.038  10.103
 1487W        W 5006   5.792   7.302  10.689
 1488W        W 5007   2.709   8.860   0.546
 1489W        W 5008   6.664   4.124   0.359
 1490W        W 5009   3.713   4.625   1.640
 1491W        W 5010   6.940   3.394   3.571
 1492W        W 5011   3.167   4.135   9.722
 1493W        W 5012   0.910   9.355   2.358
 1494W        W 5013   7.375   6.548   2.034
 1495W        W 5014   9.293   3.172   9.319
 1496W        W 5015   7.177   6.075   3.731
 1497W        W 5016   2.208   4.997  11.520
 1498W        W 5017   6.484   4.863  11.200
 1499W        W 5018   9.440   8.978   0.573
 1500W        W 5019   4.923   6.746   8.621
 1501W        W 5020   1.249   2.887   0.641
 1502W        W 5021   7.101   2.518   1.318
 1503W        W 5022   1.042   7.549   3.022
 1504W        W 5023   8.105   3.815   0.956
 1505W        W 5024   7.558   0.764  10.830
 1506W        W 5025   8.572   9.859   3.016
 1507W        W 5026   7.717   4.714   2.322
 1508W        W 5027   9.402   0.463  10.644
 1509W        W 5028   9.996   3.044   2.145
 1510W        W 5029   8.523   2.319  10.524
 1511W        W 5030   3.086   5.130   3.267
 1512W        W 5031   4.859   6.085   1.436
 1513W        W 5032   4.013   3.911   1.285
 1514W        W 5033   3.355   3.527   8.506
 1515W        W 5034   3.678   0.018   1.495
 1516W        W 5035   8.482   7.035  10.125
 1517W        W 5036   5.083   5.255   1.801
 1518W        W 5037   3.353   0.899   1.795
 1519W        W 5038   9.488   2.403   1.755
 1520W        W 5039   8.265   6.671   9.052
 1521W        W 5040   8.869   3.039   2.629
 1522W        W 5041   1.738   6.303   2.882
 1523W        W 5042   4.954   0.650  10.952
 1524W        W 5043   8.943   7.098   0.789
 1525W        W 5044   4.010   4.317   0.447
 1526W        W 5045   1.530   6.939   3.541
 1527W        W 5046   9.210   6.091   1.857
 1528W        W 5047   1.333   6.651   0.356
 1529W        W 5048   7.461   0.919   0.901
 1530W        W 5049   9.814   3.186   2.872
 1531W        W 5050   4.069   3.218  10.887
 1532W        W 5051   5.414   2.315   9.970
 1533W        W 5052   8.103   8.416   9.423
 1534W        W 5053   7.564   2.322   2.215
 1535W        W 5054   7.534   1.096   8.565
 1536W        W 5055   6.106   6.722   9.682
 1537W        W 5056   7.426   8.529   9.885
 1538W        W 5057   9.256   4.490  11.101
 1539W        W 5058   3.344   7.981   0.895
 1540W        W 5059   4.237   2.618   3.099
 1541W        W 5060   0.219   1.782  10.286
 1542W        W 5061   9.186   3.130   0.826
 1543W        W 5062   3.491   1.197  10.482
 1544W        W 5063   5.935   2.729  10.326
 1545W        W 5064   4.258   4.497   8.585
 1546W        W 5065   7.403   9.571   0.231
 1547W        W 5066   4.973   6.586  10.574
 1548W        W 5067   7.820   6.269   3.224
 1549W        W 5068   1.715   5.774   9.104
 1550W        W 5069   6.399   1.357  11.507
 1551W        W 5070   0.006   5.870   0.171
 1552W        W 5071   1.836   9.204   9.598
 1553W        W 5072   5.363   8.512  11.358
 1554W        W 5073   1.870   4.706  11.239
 1555W        W 5074   4.716   1.431   0.717
 1556W        W 5075   9.720   7.467   3.381
 1557W        W 5076   5.510   2.235   1.560
 1558W        W 5077   6.931   5.525   8.566
 1559W        W 5078   9.612   6.456   8.698
 1560W        W 5079   1.350   8.449   0.134
 1561W        W 5080   6.520   7.838   9.460
 1562W        W 5081   8.495   6.972   1.004
 1563W        W 5082   9.590   4.057   2.833
 1564W        W 5083   5.032   6.404  11.075
 1565W        W 5084   5.879   1.867   1.265
 1566W        W 5085   4.663   3.497   8.486
 1567W        W 5086   8.094   9.439  11.202
 1568W        W 5087   4.020   3.290   9.501
 1569W        W 5088   9.887   1.295  11.463
 1570W        W 5089   0.217   1.037   1.003
 1571W        W 5090   6.367   3.716   0.355
 1572W        W 5091   2.627   1.948  11.560
 1573W        W 5092   7.708   2.105  11.687
 1574W        W 5093   5.177   7.022  10.044
 1575W        W 5094   3.760   1.726   0.887
 1576W        W 5095   4.152   3.199   9.978
 1577W        W 5096   0.304   3.757  10.930
 1578W        W 5097   8.520   6.601   0.080
 1579W        W 5098   1.238   1.584  11.931
 1580W        W 5099   9.511   3.122   2.382
 1581W        W 5100   2.831   0.152  11.049
 1582W        W 5101   7.547   1.177  11.984
 1583W        W 5102   2.905   4.359   0.849
 1584W        W 5103   0.893   0.095   8.921
 1585W        W 5104   7.012   5.490   1.674
 1586W        W 5105   8.869   7.012   3.281
 1587W        W 5106   8.065   0.062  10.919
 1588W        W 5107   7.223   4.641  10.188
 1589W        W 5108   4.772   3.690   9.412
 1590W        W 5109   6.713   5.189   8.922
 1591W        W 5110   5.406   7.556   1.842
 1592W        W 5111   5.739   6.176  10.441
 1593W        W 5112   7.831   6.629  10.867
 1594W        W 5113   7.489   1.837   1.997
 1595W        W 5114   9.136   3.038   9.890
 1596W        W 5115   1.156   5.744   2.224
 1597W        W 5116   2.133   2.609   1.405
 1598W        W 5117   8.775   4.318   0.484
 1599W        W 5118   8.084   2.786   8.875
 1600W        W 5119   3.578   3.630   0.655
 1601W        W 5120   3.375   0.363  11.076
 1602W        W 5121   9.674   8.570   8.578
 1603W        W 5122   0.214   0.007   0.832
 1604W        W 5123   7.029   9.032  10.476
 1605W        W 5124   5.000   4.050   3.284
 1606W        W 5125   7.113   5.955  11.501
 1607W        W 5126   3.283   0.767  11.399
 1608W        W 5127   5.190   0.061  11.344
 1609W        W 5128   3.829   8.349  10.539
 1610W        W 5129   1.774   3.101   9.391
 1611W        W 5130   9.865   8.031  10.695
 1612W        W 5131   7.413   7.475   9.981
 1613W        W 5132   4.853   5.338   1.350
 1614W        W 5133   7.556   5.584  10.243
 1615W        W 5134   4.952   7.507  11.638
 1616W        W 5135   5.161   0.720  11.953
 1617W        W 5136   9.037   3.146   8.726
 1618W        W 5137   3.067   7.870  11.537
 1619W        W 5138   4.001   2.200  10.788
 1620W        W 5139   9.349   9.962   0.654
 1621W        W 5140   9.518   6.491   2.723
 1622W        W 5141   2.308   0.116   1.887
 1623W        W 5142   8.706   1.845  11.730
 1624W        W 5143   3.785   3.672   8.244
 1625W        W 5144   8.491   0.336   0.779
 1626W        W 5145   6.628   3.199  10.476
 1627W        W 5146   7.834   6.098  10.861
 1628W        W 5147   3.219   2.897   0.288
 1629W        W 5148   2.772   6.432  11.050
 1630W        W 5149   3.660   0.982   3.029
 1631W        W 5150   7.734   8.485  11.304
 1632W        W 5151   3.622   8.824  10.633
 1633W        W 5152   9.835   9.984  11.761
 1634W        W 5153   4.584   3.267  10.249
 1635W        W 5154   1.053   9.670   0.470
 1636W        W 5155   6.686   7.643   3.157
 1637W        W 5156   1.061   2.836  10.695
 1638W        W 5157   5.438   2.734   0.292
 1639W        W 5158   3.144   8.234  10.145
 1640W        W 5159   3.541   4.279  11.275
 1641W        W 5160   0.669   4.925   0.839
 1642W        W 5161   3.551   5.934   9.208
 1643W        W 5162   4.122   0.087   1.817
 1644W        W 5163   1.828   5.835   2.725
 1645W        W 5164   0.419   9.301   8.628
 1646W        W 5165   4.121   2.280   2.714
 1647W        W 5166   3.734   6.311  10.387
 1648W        W 5167   3.891   6.071   9.934
 1649W        W 5168   2.058   1.500   0.878
 1650W        W 5169   9.630   1.023   1.383
 1651W        W 5170   4.646   7.185   3.184
 1652W        W 5171   2.678   8.984   9.638
 1653W        W 5172   6.778   9.967   1.359
 1654W        W 5173   5.138   4.999   3.327
 1655W        W 5174   3.369   1.080   0.285
 1656W        W 5175   4.328   9.117  11.217
 1657W        W 5176   3.764   9.222   1.123
 1658W        W 5177   0.491   4.217   9.524
 1659W        W 5178   1.906   2.748   2.238
 1660W        W 5179   2.325   8.886   8.733
 1661W        W 5180   1.282   7.616   9.963
 1662W        W 5181   9.990   8.074   2.236
 1663W        W 5182   8.148   5.328   0.903
 1664W        W 5183   0.946   0.887   9.991
 1665W        W 5184   1.357   4.925  11.934
 1666W        W 5185   4.166   8.497   0.648
 1667W        W 5186   5.205   5.930   0.459
 1668W        W 5187   2.619   6.447  10.046
 1669W        W 5188   0.870   7.213   9.523
 1670W        W 5189   7.972   6.848   2.078
 1671W        W 5190   0.019   2.132   9.405
 1672W        W 5191   1.676   0.013   9.310
 1673W        W 5192   8.873   0.886   2.553
 1674W        W 5193   4.538   5.150   1.733
 1675W        W 5194   7.507   9.420   0.920
 1676W        W 5195   5.604   3.834  11.832
 1677W        W 5196   6.459   6.026   2.205
 1678W        W 5197   7.442   0.308   0.071
 1679W        W 5198   6.305   0.484   9.203
 1680W        W 5199   0.601   9.058   9.965
 1681W        W 5200   7.920   0.205   2.544
 1682W        W 5201   2.847   5.590   3.141
 1683W        W 5202   7.282   1.788   2.860
 1684W        W 5203   6.206   4.505   2.990
 1685W        W 5204   0.924   2.487   9.859
 1686W        W 5205   2.897   9.586   1.444
 1687W        W 5206   5.124   4.962   0.103
 1688W        W 5207   9.630   0.085   3.360
 1689W        W 5208   5.589   2.545   9.561
 1690W        W 5209   7.418   8.872  11.055
 1691W        W 5210   6.163   4.803   4.075
 1692W        W 5211   6.912   8.233  11.728
 1693W        W 5212   6.121   7.661  10.819
 1694W        W 5213   6.414   6.958   8.714
 1695W        W 5214   3.511   7.585   0.618
 1696W        W 5215   8.026   9.543   1.626
 1697W        W 5216   7.207   6.110  10.085
 1698W        W 5217   0.899   3.990   2.948
 1699W        W 5218   4.565   6.598   2.367
 1700W        W 5219   6.677   0.564  10.470
 1701W        W 5220   8.582   9.062   9.860
 1702W        W 5221   4.335   8.709   2.847
 1703W        W 5222   7.882   8.869   0.450
 1704W        W 5223   3.400   9.132   3.124
 1705W        W 5224   9.763   6.695  10.478
 1706W        W 5225   8.656   3.173  11.817
 1707W        W 5226   2.099   1.489   1.902
 1708W        W 5227   7.198   7.085  11.456
 1709W        W 5228   0.094   7.066   3.300
 1710W        W 5229   3.043   6.262   8.538
 1711W        W 5230   0.685   7.933  10.948
 1712W        W 5231   1.214   3.084  11.155
 1713W        W 5232   1.597   1.216   8.733
 1714W        W 5233   9.759   7.435   8.943
 1715W        W 5234   5.938   9.514  11.793
 1716W        W 5235   4.040   7.151  10.669
 1717W        W 5236   3.374   0.424  10.083
 1718W        W 5237   0.845   8.508   1.298
 1719W        W 5238   8.091   0.155   9.973
 1720W        W 5239   9.554   9.247   3.468
 1721W        W 5240   4.870   8.387  11.363
 1722W        W 5241   2.690   8.309  10.390
 1723W        W 5242   6.017   9.271   1.265
 1724W        W 5243   8.078   7.490   2.596
 1725W        W 5244   0.879   4.066   1.209
 1726W        W 5245   2.087   0.787   1.276
 1727W        W 5246   9.811   8.368   3.296
 1728W        W 5247   5.226   8.028   9.561
 1729W        W 5248   8.359   1.754   0.543
 1730W        W 5249   0.464   5.658   0.317
 1731W        W 5250   0.295   7.967   0.736
 1732W        W 5251   6.285   5.902   1.173
 1733W        W 5252   8.686   8.846  10.697
 1734W        W 5253   4.385   9.731   0.591
 1735W        W 5254   5.331   7.496  10.694
 1736W        W 5255   6.560   0.265   2.113
 1737W        W 5256   3.971   5.126  10.979
 1738W        W 5257   1.731   2.650   9.103
 1739W        W 5258   7.617   0.347  10.111
 1740W        W 5259   1.612   8.039  10.484
 1741W        W 5260   4.665   6.269   4.031
 1742W        W 5261   2.133   2.527  11.565
 1743W        W 5262   0.219   7.524   3.506
 1744W        W 5263   1.424   5.366   0.154
 1745W        W 5264   7.126   7.878   3.241
 1746W        W 5265   2.271   7.404  11.570
 1747W        W 5266   5.749   9.672   8.522
 1748W        W 5267   8.664   3.259  10.008
 1749W        W 5268   4.407   7.832  10.019
 1750W        W 5269   4.593   9.522   1.377
 1751W        W 5270   2.999   1.873   9.944
 1752W        W 5271   6.319   5.059   1.488
 1753W        W 5272   4.490   5.109  10.779
 1754W        W 5273   3.388   6.798   0.812
 1755W        W 5274   9.594   1.828  11.538
 1756W        W 5275   4.905   5.813   8.398
 1757W        W 5276   3.134   5.989   1.078
 1758W        W 5277   5.154   0.146   1.678
 1759W        W 5278   1.377   0.214   2.087
 1760W        W 5279   9.111   6.705   2.498
 1761W        W 5280   7.195   0.857   2.175
 1762W        W 5281   7.711   4.562   9.503
 1763W        W 5282   3.746   4.443  10.402
 1764W        W 5283   8.440   2.673   0.541
 1765W        W 5284   1.213   3.387   2.159
 1766W        W 5285   2.801   8.837   1.940
 1767W        W 5286   1.400   9.399  10.860
 1768W        W 5287   3.275   3.121   2.965
 1769W        W 5288   2.864   5.603   8.848
 1770W        W 5289   8.431   4.493   8.326
 1771W        W 5290   1.325   6.189   2.030
 1772W        W 5291   1.982   0.487   9.465
 1773W        W 5292   1.879   9.143  10.657
 1774W        W 5293   0.019   6.510   1.403
 1775W        W 5294   9.084   6.600   3.013
 1776W        W 5295   8.795   3.131  11.322
 1777W        W 5296   5.778   4.247   3.760
 1778W        W 5297   7.255   9.060   8.792
 1779W        W 5298   0.451   5.705   2.650
 1780W        W 5299   7.682   9.857   1.846
 1781W        W 5300   0.668   5.179   2.003
 1782W        W 5301   6.421   9.732   2.904
 1783W        W 5302   7.087   1.423   1.255
 1784W        W 5303   6.843   0.077  10.571
 1785W        W 5304   1.155   3.315  10.637
 1786W        W 5305   5.433   8.861   1.823
 1787W        W 5306   1.359   3.984   1.382
 1788W        W 5307   5.096   1.727   2.346
 1789W        W 5308   7.834   9.778   3.289
 1790W        W 5309   3.294   0.902   9.891
 1791W        W 5310   6.130   0.203   0.655
 1792W        W 5311   9.857   2.743   1.749
 1793W        W 5312   5.963   6.480   3.250
 1794W        W 5313   6.368   9.055   0.192
 1795W        W 5314   4.218   8.005   8.607
 1796W        W 5315   3.127   6.015   9.503
 1797W        W 5316   7.984   1.440   0.347
 1798W        W 5317   7.509   9.857   9.504
 1799W        W 5318   1.694   7.461   0.811
 1800W        W 5319   6.115   3.679  11.887
 1801W        W 5320   5.894   0.615   3.771
 1802W        W 5321   4.642   1.426   9.955
 1803W        W 5322   2.913   1.723  11.183
 1804W        W 5323   7.965   6.988   2.562
 1805W        W 5324   2.998   5.552   9.697
 1806W        W 5325   2.804   3.068   0.545
 1807W        W 5326   3.995   1.879   9.964
 1808W        W 5327   2.703   9.287   8.227
 1809W        W 5328   5.074   6.270   8.569
 1810W        W 5329   8.043   8.893  10.422
 1811W        W 5330   1.330   4.060  10.972
 1812W        W 5331   5.259   4.478   3.392
 1813W        W 5332   8.183   4.260   3.574
 1814W        W 5333   5.709   6.297   8.389
 1815W        W 5334   8.642   0.831  11.658
 1816W        W 5335   1.285   6.556   2.850
 1817W        W 5336   3.614   5.366  10.488
 1818W        W 5337   6.652   8.127   0.530
 1819W        W 5338   6.591   6.514   8.530
 1820W        W 5339   4.487   9.259  10.744
 1821W        W 5340   9.979   8.988   8.616
 1822W        W 5341   8.860   7.389   1.817
 1823W        W 5342   8.431   4.736   9.577
 1824W        W 5343   8.813   5.771  10.956
 1825W        W 5344   3.707   5.540   2.733
 1826W        W 5345   1.233   2.198  11.116
 1827W        W 5346   6.513   2.065   9.155
 1828W        W 5347   1.006   1.702   1.222
 1829W        W 5348   1.476   4.971  11.442
 1830W        W 5349   2.796   3.187   2.472
 1831W        W 5350   9.998   3.884   1.138
 1832W        W 5351   3.411   0.258   1.140
 1833W        W 5352   3.816   1.250   1.243
 1834W        W 5353   9.146   3.660   8.820
 1835W        W 5354   3.729   7.099   1.494
 1836W        W 5355   0.453   1.824   9.384
 1837W        W 5356   4.531   8.718   0.340
 1838W        W 5357   4.689   6.878  10.036
 1839W        W 5358   3.692   0.761  11.843
 1840W        W 5359   0.161   8.045   0.257
 1841W        W 5360   3.985   0.343   2.235
 1842W        W 5361   7.605   9.800   2.793
 1843W        W 5362   4.998   6.068   0.915
 1844W        W 5363   4.804   8.317  10.873
 1845W        W 5364   6.080   1.354  10.768
 1846W        W 5365   6.016   2.290   3.179
 1847W        W 5366   5.948   4.082   8.732
 1848W        W 5367   0.682   3.600  10.618
 1849W        W 5368   4.702   6.889   2.770
 1850W        W 5369   7.553   4.883   9.876
 1851W        W 5370   5.067   6.143  10.274
 1852W        W 5371   7.307   1.144  10.528
 1853W        W 5372   9.802   7.153   1.945
 1854W        W 5373   2.530   5.981  11.675
 1855W        W 5374   6.340   7.873   3.470
 1856W        W 5375   8.656   3.491   8.679
 1857W        W 5376   2.611   4.046   0.430
 1858W        W 5377   8.258   1.467  10.477
 1859W        W 5378   8.887   5.467   9.489
 1860W        W 5379   1.209   3.746   0.454
 1861W        W 5380   8.388   5.235   2.796
 1862W        W 5381   2.759   4.021   8.869
 1863W        W 5382   0.581   0.222   0.049
 1864W        W 5383   6.876   2.862   8.894
 1865W        W 5384   1.311   5.475   9.096
 1866W        W 5385   3.713   4.287   2.454
 1867W        W 5386   0.019   1.968  10.718
 1868W        W 5387   6.079   6.549   8.678
 1869W        W 5388   5.744   8.476   0.682
 1870W        W 5389   9.730   3.257   1.748
 1871W        W 5390   4.020   9.576   1.908
 1872W        W 5391   9.318   5.692  11.002
 1873W        W 5392   2.581   8.528   0.988
 1874W        W 5393   2.421   0.352   9.245
 1875W        W 5394   8.519   6.052   2.456
 1876W        W 5395   6.862   2.053   2.762
 1877W        W 5396   0.656   3.540   0.743
 1878W        W 5397   9.004   5.330  10.791
 1879W        W 5398   5.831   5.143  10.316
 1880W        W 5399   8.907   0.185   0.411
 1881W        W 5400   2.703   3.410   1.073
 1882W        W 5401   1.941   2.593  10.705
 1883W        W 5402   7.517   1.294  10.078
 1884W        W 5403   9.516   3.644   3.616
 1885W        W 5404   6.774   5.541   2.837
 1886W        W 5405   3.307   9.001   0.910
 1887W        W 5406   7.270   5.490  11.320
 1888W        W 5407   3.777   2.527   9.471
 1889W        W 5408   9.884   9.313  11.068
 1890W        W 5409   0.041   3.621  11.855
 1891W        W 5410   6.336   9.691   1.346
 1892W        W 5411   4.682   1.456  10.531
 1893W        W 5412   5.464   4.726   2.985
 1894W        W 5413   1.819   7.840   2.574
 1895W        W 5414   2.396   4.627   2.398
 1896W        W 5415   0.860   6.528  10.952
 1897W        W 5416   9.919   5.227  11.185
 1898W        W 5417   2.211   9.664  10.003
 1899W        W 5418   3.798   2.619   1.037
 1900W        W 5419   2.373   7.030   0.685
 1901W        W 5420   8.540   6.208   0.411
 1902W        W 5421   3.909   6.691   0.893
 1903W        W 5422   0.490   4.079   9.035
 1904W        W 5423   4.214   8.849  10.676
 1905W        W 5424   3.222   0.704   3.162
 1906W        W 5425   0.336   2.091   1.299
 1907W        W 5426   9.464   9.356  10.762
 1908W        W 5427   7.999   2.034   2.189
 1909W        W 5428   6.493   9.295   1.047
 1910W        W 5429   8.506   6.812  11.609
 1911W        W 5430   2.364   8.438   0.422
 1912W        W 5431   6.782   9.790   9.241
 1913W        W 5432   7.496   2.053  10.399
 1914W        W 5433   2.556   6.997  11.316
 1915W        W 5434   4.599   4.716   9.883
 1916W        W 5435   4.563   1.288   2.954
 1917W        W 5436   0.239   0.401   9.095
 1918W        W 5437   9.430   5.853  11.472
 1919W        W 5438   1.356   9.218   1.668
 1920W        W 5439   3.494   9.254  10.315
 1921W        W 5440   4.760   9.501   0.880
 1922W        W 5441   8.583   8.181  11.508
 1923W        W 5442   0.146   3.725   9.816
 1924W        W 5443   8.528   8.553   9.740
 1925W        W 5444   8.771   5.609  11.777
 1926W        W 5445   8.918   2.596   2.006
 1927W        W 5446   4.128   7.606   9.198
 1928W        W 5447   8.489   8.007  10.516
 1929W        W 5448   7.900   5.961   1.578
 1930W        W 5449   3.290   4.233   9.239
 1931W        W 5450   8.124   6.675   8.549
 1932W        W 5451   2.673   5.255   1.163
 1933W        W 5452   5.389   9.781   1.956
 1934W        W 5453   8.033   0.667   2.309
 1935W        W 5454   0.233   5.925   8.581
 1936W        W 5455   4.590   8.472   1.468
 1937W        W 5456   8.584   8.413   9.243
 1938W        W 5457   1.615   6.774   8.708
 1939W        W 5458   2.356   3.244   0.712
 1940W        W 5459   6.660   4.525  11.991
 1941W        W 5460   0.807   2.309   2.479
 1942W        W 5461   5.066   0.848   8.961
 1943W        W 5462   4.768   2.821   3.275
 1944W        W 5463   8.097   7.675   3.079
 1945W        W 5464   8.433   4.190   1.360
 1946W        W 5465   9.997   6.844   0.511
 1947W        W 5466   1.292   6.322   9.556
 1948W        W 5467   6.408   0.998   0.852
 1949W        W 5468   1.575   7.481   2.287
 1950W        W 5469   4.244   3.651   2.240
 1951W        W 5470   1.221   8.501   9.966
 1952W        W 5471   4.788   2.004   9.444
 1953W        W 5472   5.678   9.690  10.064
 1954W        W 5473   1.917   3.935   9.829
 1955W        W 5474   9.102   6.174  10.979
 1956W        W 5475   5.958   4.421   0.378
 1957W        W 5476   8.844   7.772   1.440
 1958W        W 5477   7.386   0.822   9.878
 1959W        W 5478   0.042   9.632   0.462
 1960W        W 5479   5.141   6.522   2.327
 1961W        W 5480   7.078   1.096   1.705
 1962W        W 5481   1.202   7.080   8.634
 1963W        W 5482   4.700   7.960   1.344
 1964W        W 5483   0.706   3.895  11.394
 1965W        W 5484   0.462   2.399  11.443
 1966W        W 5485   5.858   9.386  10.805
 1967W        W 5486   5.563   1.863   0.877
 1968W        W 5487   7.315   7.705   2.770
 1969W        W 5488   4.322   3.142   2.209
 1970W        W 5489   8.886   9.217   0.944
 1971W        W 5490   0.983   5.784   2.736
 1972W        W 5491   1.608   4.999   2.472
 1973W        W 5492   5.055   2.512   4.253
 1974W        W 5493   4.664   6.980   1.201
 1975W        W 5494   2.082   3.496  11.398
 1976W        W 5495   8.303   3.886   3.217
 1977W        W 5496   6.382   8.879   3.620
 1978W        W 5497   1.382   8.139   2.735
 1979W        W 5498   3.443   4.061   8.135
 1980W        W 5499   6.288   5.738   3.685
 1981W        W 5500   8.378   4.524   0.238
 1982W        W 5501   0.041   9.829  10.218
 1983W        W 5502   5.241   3.542   0.766
 1984W        W 5503   5.602   7.825   2.258
 1985W        W 5504   5.776   7.413   0.026
 1986W        W 5505   2.692   8.609   2.899
 1987W        W 5506   2.899   1.825   3.626
 1988W        W 5507   4.462   2.337  10.599
 1989W        W 5508   5.153   9.553   2.900
 1990W        W 5509   6.868   8.974   1.612
 1991W        W 5510   8.462   7.158  10.648
 1992W        W 5511   0.135   4.066   1.729
 1993W        W 5512   9.822   1.000   3.277
 1994W        W 5513   5.122   9.131   2.621
 1995W        W 5514   1.166   8.484  10.484
 1996W        W 5515   9.575   2.386   3.521
 1997W        W 5516   0.891   0.621   0.273
 1998W        W 5517   1.590   9.056   1.245
 1999W        W 5518   5.522   7.327   3.602
 2000W        W 5519   7.479   1.086   1.386
 2001W        W 5520   6.190   0.766   0.026
 2002W        W 5521   7.791   0.367  10.587
 2003W        W 5522   0.497   1.603   1.318
 2004W        W 5523   5.490   5.081  11.311
 2005W        W 5524   2.368   4.364   0.788
 2006W        W 5525   7.651   7.614  10.418
 2007W        W 5526   4.846   9.958   0.632
 2008W        W 5527   7.273   2.114   9.069
 2009W        W 5528   7.328   5.641   4.010
 2010W        W 5529   1.216   2.237   1.310
 2011W        W 5530   4.216   5.174   3.372
 2012W        W 5531   3.379   5.837   7.961
 2013W        W 5532   1.033   7.096   3.524
 2014W        W 5533   0.495   3.570   3.586
 2015W        W 5534   8.914   7.795  11.692
 2016W        W 5535   5.494   4.230  11.501
 2017W        W 5536   2.617   7.930  10.736
 2018W        W 5537   5.580   1.057   3.582
 2019W        W 5538   4.280   4.689   1.746
 2020W        W 5539   4.958   6.798   3.320
 2021W        W 5540   9.426   7.975  11.003
 2022W        W 5541   9.337   8.994  11.142
 2023W        W 5542   6.002   8.831   0.450
 2024W        W 5543   0.404   7.606   0.388
 2025W        W 5544   8.211   2.880   9.608
 2026W        W 5545   6.165   7.935   0.593
 2027W        W 5546   2.732   7.473  11.299
 2028W        W 5547   0.302   2.627   1.967
 2029W        W 5548   6.884   6.283  11.830
 2030W        W 5549   6.826   7.318   9.022
 2031W        W 5550   2.744   9.752   8.975
 2032W        W 5551   6.770   3.587   8.514
 2033W        W 5552   1.754   8.770   9.323
 2034W        W 5553   5.642   3.821   9.939
 2035W        W 5554   5.914   7.595   1.854
 2036W        W 5555   6.266   4.090   3.897
 2037W        W 5556   6.678   7.369   9.517
 2038W        W 5557   2.258   2.789   0.465
 2039W        W 5558   8.004   2.258   9.079
 2040W        W 5559   9.109   8.200   1.654
 2041W        W 5560   0.772   5.173  11.498
 2042W        W 5561   4.979   0.533   2.955
 2043W        W 5562   6.090   7.419   0.434
 2044W        W 5563   6.327   0.848  11.540
 2045W        W 5564   3.015   6.447   0.875
 2046W        W 5565   9.972   2.180   2.119
 2047W        W 5566   8.702   3.814   9.441
 2048W        W 5567   0.840   7.096  11.836
 2049W        W 5568   2.499   3.582   2.318
 2050W        W 5569   0.904   6.983   9.049
 2051W        W 5570   1.341   7.456   9.467
 2052W        W 5571   2.936   6.998   9.215
 2053W        W 5572   2.792   3.803   9.769
 2054W        W 5573   7.221   3.233   3.157
 2055W        W 5574   5.178   7.086  11.457
 2056W        W 5575   7.172   8.708   0.672
 2057W        W 5576   6.413   3.994   2.882
 2058W        W 5577   9.999   9.532   8.819
 2059W        W 5578   0.262   7.205   2.814
 2060W        W 5579   9.716   7.722   2.506
 2061W        W 5580   2.826   3.696   1.922
 2062W        W 5581   9.229   1.803   0.473
 2063W        W 5582   9.333   2.081  10.652
 2064W        W 5583   0.189   6.594   2.127
 2065W        W 5584   3.217   4.323   8.733
 2066W        W 5585   2.884   5.981  11.309
 2067W        W 5586   8.191   5.417   0.328
 2068W        W 5587   4.592   8.513   2.299
 2069W        W 5588   4.164   7.193  11.407
 2070W        W 5589   9.667   9.099   2.991
 2071W        W 5590   5.015   8.336   1.189
 2072W        W 5591   5.364   5.273   8.819
 2073W        W 5592   1.632   8.218   1.039
 2074W        W 5593   2.643   9.031   1.023
 2075W        W 5594   9.457   5.550   2.317
 2076W        W 5595   1.746   1.355   3.541
 2077W        W 5596   0.926   6.746   3.168
 2078W        W 5597   7.096   0.843   3.108
 2079W        W 5598   0.279   2.730   3.065
 2080W        W 5599   7.979   2.152   0.914
 2081W        W 5600   1.547   7.652   1.285
 2082W        W 5601   9.201   0.382   1.345
 2083W        W 5602   6.273   3.633   3.185
 2084W        W 5603   5.169   4.456   2.008
 2085W        W 5604   5.665   3.092   3.222
 2086W        W 5605   4.875   7.407   0.990
 2087W        W 5606   6.470   9.810   3.458
 2088W        W 5607   5.176   7.264   3.242
 2089W        W 5608   3.328   2.991  11.228
 2090W        W 5609   1.234   5.791   8.667
 2091W        W 5610   0.829   1.138   0.803
 2092W        W 5611   5.445   1.370  11.152
 2093W        W 5612   9.300   7.100   1.179
 2094W        W 5613   3.645   3.426   0.200
 2095W        W 5614   2.656   4.343   1.292
 2096W        W 5615   7.738   8.493   2.634
 2097W        W 5616   9.020   2.240  11.542
 2098W        W 5617   0.692   2.500   3.435
 2099W        W 5618   6.411   7.666   1.717
 2100W        W 5619   8.282   1.204   8.566
 2101W        W 5620   0.684   4.116   1.752
 2102W        W 5621   7.460   4.902  11.363
 2103W        W 5622   9.034   1.341  10.121
 2104W        W 5623   3.259   2.491   1.055
 2105W        W 5624   6.003   8.139  10.710
 2106W        W 5625   0.406   1.344   9.222
 2107W        W 5626   2.850   6.442  10.547
 2108W        W 5627   7.136   7.333   3.484
 2109W        W 5628   7.467   1.802   9.956
 2110W        W 5629   4.918   8.402   1.898
 2111W        W 5630   7.906   8.859   2.269
 2112W        W 5631   3.971   3.108   9.008
 2113W        W 5632   9.583   4.844  11.336
 2114W        W 5633   1.811   2.151  10.957
 2115W        W 5634   0.522   1.223  10.108
 2116W        W 5635   0.075   9.334   3.187
 2117W        W 5636   4.099   4.127  11.986
 2118W        W 5637   7.336   2.690   0.402
 2119W        W 5638   9.417   6.942  10.172
 2120W        W 5639   2.203   6.120   2.965
 2121W        W 5640   5.309   7.084   8.517
 2122W        W 5641   7.211   2.105   0.554
 2123W        W 5642   8.254   3.119   0.424
 2124W        W 5643   3.540   4.080   1.512
 2125W        W 5644   9.919   2.222   1.570
 2126W        W 5645   0.691   2.844   1.684
 2127W        W 5646   5.156   3.833  11.504
 2128W        W 5647   2.450   2.829   2.357
 2129W        W 5648   5.078   8.230   0.684
 2130W        W 5649   2.784   1.360   1.380
 2131W        W 5650   6.395   7.518   0.821
 2132W        W 5651   5.717   5.605  11.964
 2133W        W 5652   8.892   2.216  10.886
 2134W        W 5653   1.690   6.572   9.755
 2135W        W 5654   6.448   3.684  10.509
 2136W        W 5655   0.834   5.398   2.426
 2137W        W 5656   0.829   1.253  11.756
 2138W        W 5657   0.356   5.106   3.142
 2139W        W 5658   9.049   5.689   9.065
 2140W        W 5659   5.635   9.843  10.979
 2141W        W 5660   5.218   4.961   0.589
 2142W        W 5661   4.283   7.805   1.614
 2143W        W 5662   2.063   4.836   2.771
 2144W        W 5663   1.801   7.068   2.731
 2145W        W 5664   8.099   8.701   0.883
 2146W        W 5665   8.259   9.072   8.653
 2147W        W 5666   1.861   5.215  11.222
 2148W        W 5667   5.454   8.435   2.127
 2149W        W 5668   3.511   2.366   8.701
 2150W        W 5669   4.749   8.518   9.098
 2151W        W 5670   1.878   9.589  11.070
 2152W        W 5671   8.940   7.126   2.741
 2153W        W 5672   2.785   3.043  10.465
 2154W        W 5673   6.687   4.367   3.124
 2155W        W 5674   9.114   4.837   3.031
 2156W        W 5675   5.928   6.031   3.976
 2157W        W 5676   8.828   7.881   1.934
 2158W        W 5677   0.817   6.096   0.888
 2159W        W 5678   1.253   2.554  10.317
 2160W        W 5679   7.251   9.873   8.996
 2161W        W 5680   0.260   9.273   1.614
 2162W        W 5681   1.559   8.898  10.939
 2163W        W 5682   3.269   5.679   1.450
 2164W        W 5683   3.332   0.425   9.020
 2165W        W 5684   3.356   9.704   3.136
 2166W        W 5685   7.212   1.532   8.650
 2167W        W 5686   2.381   4.861   9.225
 2168W        W 5687   8.549   4.814   8.989
 2169W        W 5688   0.250   8.840   0.176
 2170W        W 5689   9.832   4.140   9.801
 2171W        W 5690   5.912   1.891   0.514
 2172W        W 5691   3.575   0.163   2.466
 2173W        W 5692   4.180   0.218   0.795
 2174W        W 5693   9.374   9.037   1.074
 2175W        W 5694   3.635   9.556   9.914
 2176W        W 5695   1.048   4.740  11.561
 2177W        W 5696   7.998   6.355   1.223
 2178W        W 5697   1.344   4.246  10.494
 2179W        W 5698   9.332   2.679   0.547
 2180W        W 5699   3.862   1.224   0.743
 2181W        W 5700   2.345   5.402   1.510
 2182W        W 5701   0.574   8.178   2.914
 2183W        W 5702   4.127   1.942   8.525
 2184W        W 5703   9.573   0.566   3.065
 2185W        W 5704   0.904   6.384   9.872
 2186W        W 5705   6.165   9.976  11.767
 2187W        W 5706   6.310   6.696  10.193
 2188W        W 5707   9.244   7.100   0.366
 2189W        W 5708   2.234   9.617   0.347
 2190W        W 5709   6.569   3.361   1.690
 2191W        W 5710   8.221   4.789   0.657
 2192W        W 5711   4.524   7.668   9.518
 2193W        W 5712   7.938   1.392   9.240
 2194W        W 5713   7.096   2.618  11.655
 2195W        W 5714   3.418   6.477   3.116
 2196W        W 5715   7.071   5.142   2.774
 2197W        W 5716   7.123   2.634  11.151
 2198W        W 5717   9.837   9.412   8.351
 2199W        W 5718   8.918   4.534   8.721
 2200W        W 5719   6.245   8.283   1.784
 2201W        W 5720   3.523   7.412   2.625
 2202W        W 5721   6.479   3.192   2.225
 2203W        W 5722   6.538   5.002   0.208
 2204W        W 5723   5.941   5.663  10.397
 2205W        W 5724   9.936   0.810   9.875
 2206W        W 5725   2.178   0.628   0.470
 2207W        W 5726   2.592   8.232  11.767
 2208W        W 5727   1.228   6.826   9.537
 2209W        W 5728   2.658   9.101   1.517
 2210W        W 5729   7.524   4.282  10.465
 2211W        W 5730   8.298   1.020   1.392
 2212W        W 5731   6.297   7.401  11.905
 2213W        W 5732   0.948   2.181   0.036
 2214W        W 5733   2.775   5.080   3.670
 2215W        W 5734   5.067   8.504  10.054
 2216W        W 5735   0.275   7.390   8.854
 2217W        W 5736   7.420   2.308   9.952
 2218W        W 5737   9.211   3.781   1.756
 2219W        W 5738   0.079   1.749   1.628
 2220W        W 5739   2.409   7.959   3.403
 2221W        W 5740   9.879   2.140   1.025
 2222W        W 5741   5.505   8.767  10.075
 2223W        W 5742   5.359   4.214   2.921
 2224W        W 5743   1.137   6.927  11.275
 2225W        W 5744   3.751   5.015   0.378
 2226W        W 5745   3.582   3.080  10.344
 2227W        W 5746   8.392   0.902   9.905
 2228W        W 5747   7.600   6.044   1.157
 2229W        W 5748   2.569   6.485  11.511
 2230W        W 5749   8.947   7.953   9.729
 2231W        W 5750   7.171   9.700   1.729
 2232W        W 5751   4.628   9.737  10.763
 2233W        W 5752   4.854   9.872   9.672
 2234W        W 5753   5.472   6.683   3.250
 2235W        W 5754   9.415   7.403   2.201
 2236W        W 5755   0.003   3.004   0.520
 2237W        W 5756   4.554   6.482  10.911
 2238W        W 5757   5.306   6.196  10.706
 2239W        W 5758   3.164   2.142   3.930
 2240W        W 5759   4.454   5.036   1.257
 2241W        W 5760   1.036   5.637   0.884
 2242W        W 5761   9.445   7.053  11.837
 2243W        W 5762   2.234   0.781  11.543
 2244W        W 5763   6.815   7.703   3.643
 2245W        W 5764   4.390   8.217  11.297
 2246W        W 5765   1.624   3.904  10.230
 2247W        W 5766   3.589   9.426  10.790
 2248W        W 5767   0.965   0.880  10.788
 2249W        W 5768   5.867   9.809   9.553
 2250W        W 5769   9.565   8.897   8.952
 2251W        W 5770   7.572   6.793   9.510
 2252W        W 5771   5.502   8.489   1.114
 2253W        W 5772   7.495   2.806   1.103
 2254W        W 5773   7.393   1.864   0.031
 2255W        W 5774   8.856   3.793   0.478
 2256W        W 5775   3.323   5.072   3.745
 2257W        W 5776   0.529   9.479   9.668
 2258W        W 5777   7.368   9.348  10.786
 2259W        W 5778   7.997   3.597   1.776
 2260W        W 5779   8.039   8.204  10.992
 2261W        W 5780   7.831   9.372  10.371
 2262W        W 5781   2.821   0.977  11.480
 2263W        W 5782   0.426   8.860   8.941
 2264W        W 5783   3.620   3.111   0.626
 2265W        W 5784   1.739   5.128   2.012
 2266W        W 5785   6.708   7.126   0.765
 2267W        W 5786   9.832   8.930   1.997
 2268W        W 5787   0.817   9.724   9.277
 2269W        W 5788   2.057   4.242  11.058
 2270W        W 5789   9.459   0.143  10.251
 2271W        W 5790   4.824   4.838   2.027
 2272W        W 5791   5.976   3.284   3.568
 2273W        W 5792   1.078   3.544   8.924
 2274W        W 5793   8.220   8.011   8.618
 2275W        W 5794   2.205   9.147  11.774
 2276W        W 5795   1.171   8.877   2.069
 2277W        W 5796   1.135   8.894   3.105
 2278W        W 5797   9.800   9.273   0.795
 2279W        W 5798   8.628   1.648  11.226
 2280W        W 5799   8.685   5.228   0.141
 2281W        W 5800   5.767   1.543  10.405
 2282W        W 5801   1.026   8.995  10.529
 2283W        W 5802   7.155   4.588   9.660
 2284W        W 5803   1.374   5.311   9.574
 2285W        W 5804   1.008   1.816  10.764
 2286W        W 5805   4.639   4.838   3.447
 2287W        W 5806   2.625   3.770   2.796
 2288W        W 5807   2.305   6.845  11.750
 2289W        W 5808   8.302   8.411   1.295
 2290W        W 5809   4.242   7.704   2.297
 2291W        W 5810   2.836   2.323  11.882
 2292W        W 5811   0.919   3.141   0.929
 2293W        W 5812   6.063   2.282   8.929
 2294W        W 5813   9.264   5.516  11.854
 2295W        W 5814   1.749   0.782  11.747
 2296W        W 5815   0.968   9.290   0.138
 2297W        W 5816   8.898   2.659   3.417
 2298W        W 5817   6.220   1.275   8.642
 2299W        W 5818   5.794   5.562   3.760
 2300W        W 5819   3.563   4.504   8.384
 2301W        W 5820   8.010   9.187   0.834
 2302W        W 5821   2.346   4.436   0.246
 2303W        W 5822   9.075   8.347   2.625
 2304W        W 5823   4.134   6.268  11.127
 2305W        W 5824   5.594   7.984  11.426
 2306W        W 5825   2.709   7.322  10.207
 2307W        W 5826   6.753   0.530   9.937
 2308W        W 5827   7.740   7.833   9.077
 2309W        W 5828   2.470   8.533   9.529
 2310W        W 5829   1.001   5.985   3.448
 2311W        W 5830   7.919   3.767  10.054
 2312W        W 5831   6.797   8.296  10.345
 2313W        W 5832   3.291   7.056  10.047
 2314W        W 5833   0.195   8.982   0.661
 2315W        W 5834   8.288   3.762   9.712
 2316W        W 5835   8.580   4.345   3.231
 2317W        W 5836   8.504   6.655  10.611
 2318W        W 5837   5.302   7.473   9.817
 2319W        W 5838   8.980   7.933   2.883
 2320W        W 5839   4.179   2.509  11.992
 2321W        W 5840   7.845   9.165  10.844
 2322W        W 5841   1.316   4.022   0.885
 2323W        W 5842   3.312   5.930   3.727
 2324W        W 5843   6.055   8.607  10.919
 2325W        W 5844   6.512   2.939   1.034
 2326W        W 5845   8.932   6.723   8.405
 2327W        W 5846   6.669   3.651  11.065
 2328W        W 5847   9.792   3.943   2.346
 2329W        W 5848   8.439   3.152  10.946
 2330W        W 5849   1.321   7.022   2.071
 2331W        W 5850   3.069   3.969   2.870
 2332W        W 5851   2.411   6.214  10.696
 2333W        W 5852   0.276   7.499   0.926
 2334W        W 5853   7.859   6.972   9.891
 2335W        W 5854   9.898   8.573   9.985
 2336W        W 5855   3.236   6.146  10.023
 2337W        W 5856   5.969   8.974  10.168
 2338W        W 5857   3.842   3.877  11.300
 2339W        W 5858   7.395   4.959   9.407
 2340W        W 5859   0.349   0.225   1.330
 2341W        W 5860   3.278   0.329   8.507
 2342W        W 5861   5.424   5.898   8.549
 2343W        W 5862   7.472   1.317   9.036
 2344W        W 5863   5.563   5.717   9.002
 2345W        W 5864   9.435   7.073   2.583
 2346W        W 5865   9.911   3.450   2.429
 2347W        W 5866   7.115   6.934   1.712
 2348W        W 5867   3.689   1.258  10.942
 2349W        W 5868   7.913   6.160  11.834
 2350W        W 5869   4.423   5.342  11.235
 2351W        W 5870   6.979   6.900   9.515
 2352W        W 5871   8.463   7.482   8.790
 2353W        W 5872   4.428   2.271  11.133
 2354W        W 5873   9.531   8.749   0.125
 2355W        W 5874   4.602   9.003   1.434
 2356W        W 5875   2.831   5.234   1.642
 2357W        W 5876   1.538   0.421  11.099
 2358W        W 5877   0.254   4.597   0.518
 2359W        W 5878   3.392   5.831   0.091
 2360W        W 5879   6.009   3.701   2.698
 2361W        W 5880   1.692   8.260   3.447
 2362W        W 5881   1.968   4.895  10.755
 2363W        W 5882   3.283   1.809   2.169
 2364W        W 5883   8.436   9.220  10.417
 2365W        W 5884   4.230   8.515   3.366
 2366W        W 5885   1.911   4.186   0.976
 2367W        W 5886   8.796   1.072   0.862
 2368W        W 5887   1.600   8.879   9.930
 2369W        W 5888   5.866   0.757   3.274
 2370W        W 5889   5.527   5.371  10.644
 2371W        W 5890   7.616   9.722   1.352
 2372W        W 5891   9.416   8.020   9.499
 2373W        W 5892   0.731   5.750  10.433
 2374W        W 5893   2.077   4.153   1.922
 2375W        W 5894   3.797   1.171  10.071
 2376W        W 5895   7.356   5.123  10.290
 2377W        W 5896   7.896   0.696   9.842
 2378W        W 5897   0.622   0.207   9.389
 2379W        W 5898   9.895   8.362   1.328
 2380W        W 5899   9.458   9.858   9.346
 2381W        W 5900   8.118   7.552  11.914
 2382W        W 5901   9.479   4.501   0.908
 2383W        W 5902   0.094   3.521   1.472
 2384W        W 5903   9.875   7.872   9.786
 2385W        W 5904   8.032   5.841   9.092
 2386W        W 5905   0.453   0.158  10.416
 2387W        W 5906   5.646   4.560   9.478
 2388W        W 5907   5.634   3.528  10.806
 2389W        W 5908   9.106   7.546   9.494
 2390W        W 5909   6.657   4.741   3.891
 2391W        W 5910   1.612   1.414   3.060
 2392W        W 5911   2.524   2.383   2.131
 2393W        W 5912   0.086   6.394  10.215
 2394W        W 5913   4.943   3.200   2.019
 2395W        W 5914   8.634   0.739   1.655
 2396W        W 5915   2.064   1.367   9.495
 2397W        W 5916   5.074   4.687   9.694
 2398W        W 5917   7.271   6.558   9.182
 2399W        W 5918   2.986   1.287  10.401
 2400W        W 5919   3.634   4.697  11.573
 2401W        W 5920   3.747   1.530   9.684
 2402W        W 5921   1.966   2.153  11.885
 2403W        W 5922   3.885   5.153   3.780
 2404W        W 5923   8.057   4.097  11.079
 2405W        W 5924   7.519   3.973   2.701
 2406W        W 5925   6.198   2.976  11.398
 2407W        W 5926   9.732   7.531  10.746
 2408W        W 5927   8.746   1.731   1.804
 2409W        W 5928   7.465   5.677   1.498
 2410W        W 5929   3.015   8.287   1.135
 2411W        W 5930   4.507   1.575   8.574
 2412W        W 5931   3.141   0.006   2.179
 2413W        W 5932   0.954   2.853   2.103
 2414W        W 5933   7.091   3.892   3.658
 2415W        W 5934   5.393   1.817   3.763
 2416W        W 5935   6.928   5.611  10.944
 2417W        W 5936   7.152   5.706   3.140
 2418W        W 5937   9.248   4.117   8.605
 2419W        W 5938   7.256   3.728   9.215
 2420W        W 5939   8.569   9.787   9.238
 2421W        W 5940   9.782   5.211   2.533
 2422W        W 5941   5.104   0.991  10.414
 2423W        W 5942   8.977   6.080   3.170
 2424W        W 5943   5.070   9.677   3.474
 2425W        W 5944   1.262   8.396   3.209
 2426W        W 5945   8.507   5.716   9.769
 2427W        W 5946   7.444   7.804   9.538
 2428W        W 5947   9.322   9.290  10.243
 2429W        W 5948   3.677   7.237  11.603
 2430W        W 5949   4.589   3.667   8.017
 2431W        W 5950   4.426   8.025   9.102
 2432W        W 5951   5.865   6.018   2.977
 2433W        W 5952   6.570   9.819   8.744
 2434W        W 5953   1.524   5.778  10.885
 2435W        W 5954   0.881   1.958   9.773
 2436W        W 5955   3.584   5.818  10.254
 2437W        W 5956   2.380   9.324   0.721
 2438W        W 5957   1.147   1.097   2.459
 2439W        W 5958   1.688   3.583   2.775
 2440W        W 5959   1.862   0.823  11.190
 2441W        W 5960   4.662   4.598   9.382
 2442W        W 5961   0.823   9.276   3.333
 2443W        W 5962   6.512   7.131   0.280
 2444W        W 5963   1.388   7.070   0.644
 2445W        W 5964   1.810   7.652  11.777
 2446W        W 5965   2.053   7.001  11.305
 2447W        W 5966   3.765   1.837   1.921
 2448W        W 5967   3.070   7.721   1.897
 2449W        W 5968   2.173   8.387  10.384
 2450W        W 5969   7.490   8.964   8.342
 2451W        W 5970   7.424   9.865  10.022
 2452W        W 5971   1.466   6.634  10.998
 2453W        W 5972   7.701   9.283   2.518
 2454W        W 5973   1.642   9.777   2.252
 2455W        W 5974   8.179   6.607  10.057
 2456W        W 5975   7.632   6.978   0.813
 2457W        W 5976   8.447   5.233   9.480
 2458W        W 5977   6.093   1.017   1.309
 2459W        W 5978   5.874   7.668   0.919
 2460W        W 5979   4.097   4.146   9.402
 2461W        W 5980   7.708   9.369   2.017
 2462W        W 5981   9.363   0.424   0.357
 2463W        W 5982   5.492   3.357   8.550
 2464W        W 5983   1.459   2.219  11.927
 2465W        W 5984   6.909   1.862   0.214
 2466W        W 5985   7.214   4.058   0.716
 2467W        W 5986   6.996   7.996   9.331
 2468W        W 5987   9.414   2.205   1.302
 2469W        W 5988   1.762   3.852  11.219
 2470W        W 5989   3.631   9.768  10.398
 2471W        W 5990   2.203   6.114   2.466
 2472W        W 5991   7.447   8.708   0.218
 2473W        W 5992   1.235   4.617   2.935
 2474W        W 5993   9.350   3.836  11.771
 2475W        W 5994   6.281   0.507   2.484
 2476W        W 5995   4.803   7.649   3.437
 2477W        W 5996   3.717   2.910   0.164
 2478W        W 5997   9.472   1.065  10.372
 2479W        W 5998   7.285   7.057   9.137
 2480W        W 5999   3.550   6.262   9.606
 2481W        W 6000   5.482   6.190   3.284
 2482W        W 6001   1.483   3.891   8.804
 2483W        W 6002   6.460   4.337  11.533
 2484W        W 6003   5.996   0.530   1.498
 2485W        W 6004   6.296   4.364   9.896
 2486W        W 6005   1.889   7.005   9.985
 2487W        W 6006   2.744   5.726   1.420
 2488W        W 6007   3.325   6.975   9.548
 2489W        W 6008   2.676   9.599  10.311
 2490W        W 6009   8.405   8.986   3.116
 2491W        W 6010   9.775   6.949   9.477
 2492W        W 6011   6.195   9.347   3.779
 2493W        W 6012   5.602   8.775   3.437
 2494W        W 6013   4.934   5.884  11.988
 2495W        W 6014   4.563   1.181   1.474
 2496W        W 6015   7.142   4.355   3.433
 2497W        W 6016   3.622   4.260   3.342
 2498W        W 6017   8.793   3.464   1.041
 2499W        W 6018   5.492   8.464   9.668
 2500W        W 6019   2.648   2.223   0.428
 2501W        W 6020   3.155   0.708  11.906
 2502W        W 6021   6.055   6.917   0.417
 2503W        W 6022   8.708   9.124   0.188
 2504W        W 6023   8.450   7.530   2.265
 2505W        W 6024   0.237   6.869  10.363
 2506W        W 6025   1.445   2.897   2.093
 2507W        W 6026   0.045   3.817   3.493
 2508W        W 6027   8.593   1.220   1.886
 2509W        W 6028   9.012   6.044   0.352
 2510W        W 6029   1.108   6.526   9.126
 2511W        W 6030   5.944   3.535   8.734
 2512W        W 6031   4.068   8.924   0.322
 2513W        W 6032   8.358   1.905   1.175
 2514W        W 6033   8.721   8.231  10.087
 2515W        W 6034   8.028   2.328   3.177
 2516W        W 6035   6.911   3.410   9.463
 2517W        W 6036   0.919   6.647   8.654
 2518W        W 6037   7.940   5.013   9.535
 2519W        W 6038   8.153   0.836  11.512
 2520W        W 6039   2.721   3.569   0.587
 2521W        W 6040   0.651   8.836   0.476
 2522W        W 6041   7.349   2.267  10.845
 2523W        W 6042   4.659   3.606   1.952
 2524W        W 6043   7.222   5.976   8.554
 2525W        W 6044   1.170   7.428   0.999
 2526W        W 6045   0.572   0.827  11.965
 2527W        W 6046   1.483   3.375   8.645
 2528W        W 6047   9.002   8.187   1.163
 2529W        W 6048   3.960   3.825   2.640
 2530W        W 6049   7.243   7.526   1.202
 2531W        W 6050   9.465   8.372  11.787
 2532W        W 6051   4.937   8.013   9.083
 2533W        W 6052   4.720   3.662   0.751
 2534W        W 6053   6.320   5.714  10.046
 2535W        W 6054   5.232   1.814  11.351
 2536W        W 6055   0.746   8.097   1.606
 2537W        W 6056   3.400   7.690   9.293
 2538W        W 6057   5.902   2.370   2.716
 2539W        W 6058   7.986   4.409  10.666
 2540W        W 6059   2.684   6.100   0.624
 2541W        W 6060   7.841   9.342   2.995
 2542W        W 6061   4.554   5.271   2.212
 2543W        W 6062   3.099   1.391   1.782
 2544W        W 6063   4.970   0.049   8.614
 2545W        W 6064   7.481   2.941  11.019
 2546W        W 6065   2.333   6.670  10.997
 2547W        W 6066   1.328   7.189  11.664
 2548W        W 6067   9.537   6.957   8.763
 2549W        W 6068   6.455   1.133   2.134
 2550W        W 6069   0.640   7.123  11.342
 2551W        W 6070   2.112   8.770  10.964
 2552W        W 6071   4.432   7.363   2.717
 2553W        W 6072   5.638   4.031  10.411
 2554W        W 6073   8.038   7.325  10.229
 2555W        W 6074   0.608   9.000   0.952
 2556W        W 6075   2.797   3.173   9.157
 2557W        W 6076   5.461   0.687   2.953
 2558W        W 6077   6.040   2.775   1.113
 2559W        W 6078   7.335   3.300   2.129
 2560W        W 6079   9.286   0.869   3.349
 2561W        W 6080   5.455   4.076   9.333
 2562W        W 6081   1.066   4.501   1.002
 2563W        W 6082   7.039   2.114   1.931
 2564W        W 6083   4.231   2.303   0.449
 2565W        W 6084   6.455   5.303   0.610
 2566W        W 6085   6.496   7.985   0.997
 2567W        W 6086   5.980   8.291   0.266
 2568W        W 6087   2.553   1.248   0.885
 2569W        W 6088   6.632   6.532   3.972
 2570W        W 6089   5.857   4.799   8.949
 2571W        W 6090   5.377   0.370   8.749
 2572W        W 6091   8.361   6.333  11.605
 2573W        W 6092   6.466   9.771  10.443
 2574W        W 6093   7.136   5.680   0.531
 2575W        W 6094   0.341   6.954  11.771
 2576W        W 6095   7.077   1.617   1.773
 2577W        W 6096   8.134   1.131   2.119
 2578W        W 6097   5.728   3.063   9.510
 2579W        W 6098   8.868   9.567   2.715
 2580W        W 6099   4.082   3.604   3.107
 2581W        W 6100   9.355   4.013  10.318
 2582W        W 6101   4.176   3.342  11.454
 2583W        W 6102   6.629   7.163   2.437
 2584W        W 6103   1.862   3.089   8.856
 2585W        W 6104   8.179   2.265  10.924
 2586W        W 6105   2.221   6.973   3.005
 2587W        W 6106   7.797   1.221  11.515
 2588W        W 6107   0.389   1.156   2.031
 2589W        W 6108   8.986   1.271  11.142
 2590W        W 6109   3.624   3.205   9.829
 2591W        W 6110   3.496   4.292   1.985
 2592W        W 6111   1.303   6.647  10.079
 2593W        W 6112   2.151   8.960   2.572
 2594W        W 6113   4.347   1.143   0.995
 2595W        W 6114   1.321   2.944   8.975
 2596W        W 6115   7.112   6.565   3.050
 2597W        W 6116   5.471   6.119  11.185
 2598W        W 6117   8.485   6.032   3.324
 2599W        W 6118   7.543   3.425  10.926
 2600W        W 6119   7.075   2.532   0.814
 2601W        W 6120   3.652   2.145   2.320
 2602W        W 6121   5.677   3.609   9.465
 2603W        W 6122   4.311   3.682  10.123
 2604W        W 6123   0.787   7.893   0.538
 2605W        W 6124   6.624   2.125   2.319
 2606W        W 6125   6.536   7.899  11.016
 2607W        W 6126   9.834   4.189  10.304
 2608W        W 6127   9.733   1.170   9.528
 2609W        W 6128   9.415   2.212   0.783
 2610W        W 6129   5.207   9.235   0.835
 2611W        W 6130   1.138   0.175   9.384
 2612W        W 6131   1.177   4.752   1.430
 2613W        W 6132   9.911   8.297   9.487
 2614W        W 6133   9.935   2.635  11.311
 2615W        W 6134   3.937   5.113   2.940
 2616W        W 6135   7.114   6.050   8.056
 2617W        W 6136   9.388   7.916  11.512
 2618W        W 6137   4.594   5.943   3.633
 2619W        W 6138   4.602   2.058   1.412
 2620W        W 6139   7.588   1.750   0.505
 2621W        W 6140   3.022   5.734  11.745
 2622W        W 6141   2.080   7.894   9.127
 2623W        W 6142   6.888   1.462   3.914
 2624W        W 6143   2.558   2.854  11.748
 2625W        W 6144   3.188   3.322   1.214
 2626W        W 6145   1.831   5.935   3.788
 2627W        W 6146   1.572   4.826   9.495
 2628W        W 6147   9.942   1.488   0.454
 2629W        W 6148   1.355   9.783  10.045
 2630W        W 6149   1.352   5.821   9.594
 2631W        W 6150   9.570   3.928   8.997
 2632W        W 6151   0.983   8.494   2.769
 2633W        W 6152   7.861   5.181  10.149
 2634W        W 6153   8.207   6.179   8.364
 2635W        W 6154   7.062   6.520   9.825
 2636W        W 6155   7.435   7.037   3.182
 2637W        W 6156   0.493   7.051   3.692
 2638W        W 6157   9.745   0.633  10.326
 2639W        W 6158   2.634   7.456   1.845
 2640W        W 6159   1.703   6.161   0.195
 2641W        W 6160   2.647   5.543  11.467
 2642W        W 6161   3.173   9.471   9.083
 2643W        W 6162   1.993   5.948  10.880
 2644W        W 6163   9.039   8.386   9.491
 2645W        W 6164   3.029   7.784   0.488
 2646W        W 6165   1.296   8.824   9.537
 2647W        W 6166   9.374   3.967  11.266
 2648W        W 6167   0.266   9.381  10.130
 2649W        W 6168   1.777   3.967  10.714
 2650W        W 6169   0.221   6.612   9.410
 2651W        W 6170   7.649   0.825  10.321
 2652W        W 6171   7.780   5.141   2.034
 2653W        W 6172   5.554   1.158   3.092
 2654W        W 6173   9.934   0.793   9.239
 2655W        W 6174   3.286   2.212   2.996
 2656W        W 6175   7.542   1.644   3.378
 2657W        W 6176   2.695   0.075   2.665
 2658W        W 6177   7.845   5.317   3.370
 2659W        W 6178   8.099   8.068  11.476
 2660W        W 6179   5.337   6.196   1.271
 2661W        W 6180   4.089   6.994   3.301
 2662W        W 6181   0.351   7.694   1.416
 2663W        W 6182   5.040   3.146   3.662
 2664W        W 6183   7.491   3.176   0.734
 2665W        W 6184   2.193   7.380   1.036
 2666W        W 6185   6.748   9.335   9.535
 2667W        W 6186   1.422   1.502   2.584
 2668W        W 6187   3.542   7.790  11.716
 2669W        W 6188   9.894   9.661   3.524
 2670W        W 6189   5.627   8.805   8.802
 2671W        W 6190   5.043   6.538   9.930
 2672W        W 6191   0.531   0.195   1.833
 2673W        W 6192   2.088   8.717   0.051
 2674W        W 6193   9.737   4.943   9.630
 2675W        W 6194   9.879   7.346   9.850
 2676W        W 6195   5.691   2.638   9.078
 2677W        W 6196   7.472   1.617  10.670
 2678W        W 6197   9.253   7.513  10.875
 2679W        W 6198   7.589   5.770   9.363
 2680W        W 6199   7.737   6.536   2.398
 2681W        W 6200   0.840   6.126   1.930
 2682W        W 6201   1.707   1.954   1.028
 2683W        W 6202   2.351   7.551  10.519
 2684W        W 6203   1.014   5.380  10.193
 2685W        W 6204   6.991   7.796  10.297
 2686W        W 6205   0.928   1.774   8.520
 2687W        W 6206   5.897   1.045   0.841
 2688W        W 6207   6.592   9.800   1.800
 2689W        W 6208   2.668   9.800  11.372
 2690W        W 6209   0.937   9.989  10.251
 2691W        W 6210   6.132   6.676   0.905
 2692W        W 6211   9.396   4.391  11.570
 2693W        W 6212   8.086   3.915  10.557
 2694W        W 6213   8.008   3.752   2.726
 2695W        W 6214   0.598   3.759   2.599
 2696W        W 6215   9.280   9.739   9.943
 2697W        W 6216   0.301   1.167  11.706
 2698W        W 6217   6.723   7.022  10.669
 2699W        W 6218   8.941   4.240  10.112
 2700W        W 6219   3.110   2.414  10.613
 2701W        W 6220   4.217   0.647   0.006
 2702W        W 6221   4.365   4.028   2.875
 2703W        W 6222  10.000   9.348  10.558
 2704W        W 6223   2.108   8.624   2.183
 2705W        W 6224   0.530   3.063   9.979
 2706W        W 6225   0.598   4.959   1.538
 2707W        W 6226   5.325   5.298  10.160
 2708W        W 6227   1.183   6.491   3.566
 2709W        W 6228   1.061   5.168   1.670
 2710W        W 6229   3.434   0.335   2.899
 2711W        W 6230   8.895   6.917   1.631
 2712W        W 6231   4.477   9.504  11.783
 2713W        W 6232   0.756   5.336   2.916
 2714W        W 6233   9.635   1.726   0.779
 2715W        W 6234   7.174   7.279   2.512
 2716W        W 6235   8.315   1.912  10.269
 2717W        W 6236   6.117   2.818   2.616
 2718W        W 6237   5.471   9.108   3.047
 2719W        W 6238   6.500   9.448   0.522
 2720W        W 6239   5.687   1.418   1.109
 2721W        W 6240   0.616   2.824   1.174
 2722W        W 6241   2.423   7.007   9.224
 2723W        W 6242   5.525   9.315   8.804
 2724W        W 6243   3.890   1.259  11.833
 2725W        W 6244   7.713   7.151  11.349
 2726W        W 6245   7.283   1.151   9.470
 2727W        W 6246   6.438   5.607  10.563
 2728W        W 6247   6.260   0.798   8.798
 2729W        W 6248   2.811   0.971   3.318
 2730W        W 6249   3.043   8.075   0.001
 2731W        W 6250   2.827   7.454  10.702
 2732W        W 6251   1.128   2.772   1.230
 2733W        W 6252   8.923   4.956   1.341
 2734W        W 6253   2.571   6.039   8.851
 2735W        W 6254   4.081   7.496  10.258
 2736W        W 6255   1.170   8.301   1.901
 2737W        W 6256   6.938   8.488   1.398
 2738W        W 6257   9.584   7.801   8.624
 2739W        W 6258   0.829   0.243   2.273
 2740W        W 6259   6.721   7.259   1.692
 2741W        W 6260   1.052   8.864  11.015
 2742W        W 6261   3.750   0.614   9.257
 2743W        W 6262   5.668   4.471   2.029
 2744W        W 6263   0.080   0.847  11.272
 2745W        W 6264   1.962   3.373  10.918
 2746W        W 6265   0.170   7.747  11.002
 2747W        W 6266   4.483   5.024  10.277
 2748W        W 6267   5.461   9.673  10.518
 2749W        W 6268   9.795   5.415   9.463
 2750W        W 6269   4.691   2.071   8.563
 2751W        W 6270   5.095   0.771   1.428
 2752W        W 6271   3.207   5.574   9.241
 2753W        W 6272   0.616   6.560   0.902
 2754W        W 6273   3.646   1.632   9.176
 2755W        W 6274   9.188   0.364   3.396
 2756W        W 6275   0.783   1.185   0.284
 2757W        W 6276   6.159   4.991  10.696
 2758W        W 6277   0.408   1.448   2.473
 2759W        W 6278   5.506   0.684  10.587
 2760W        W 6279   9.988   6.434   2.941
 2761W        W 6280   9.168   5.558   1.899
 2762W        W 6281   2.816   8.476   0.202
 2763W        W 6282   9.018   6.568   0.208
 2764W        W 6283   0.840   4.120  10.769
 2765W        W 6284   4.958   0.413   0.374
 2766W        W 6285   3.489   5.122   0.801
 2767W        W 6286   4.958   6.906  10.989
 2768W        W 6287   0.233   5.928  10.447
 2769W        W 6288   8.761   2.991   1.712
 2770W        W 6289   7.657   4.274  11.783
 2771W        W 6290   3.072   2.563  11.105
 2772W        W 6291   9.818   8.004  11.823
 2773W        W 6292   6.536   6.495   9.045
 2774W        W 6293   6.143   4.178  10.414
 2775W        W 6294   0.731   8.183  10.482
 2776W        W 6295   2.039   5.529   1.903
 2777W        W 6296   1.509   8.865  10.428
 2778W        W 6297   2.220   7.705   0.053
 2779W        W 6298   9.041   8.754  11.995
 2780W        W 6299   0.894   3.851   3.434
 2781W        W 6300   9.829   7.918   3.542
 2782W        W 6301   1.788   4.220   1.501
 2783W        W 6302   8.338   0.820   0.906
 2784W        W 6303   3.945   5.973   2.580
 2785W        W 6304   4.397   6.051   1.793
 2786W        W 6305   4.574   0.836   8.816
 2787W        W 6306   3.636   5.840   1.002
 2788W        W 6307   0.396   1.352   0.636
 2789W        W 6308   7.545   6.553   1.089
 2790W        W 6309   2.664   6.156   1.134
 2791W        W 6310   0.148   8.965   2.843
 2792W        W 6311   0.559   5.726   8.960
 2793W        W 6312   8.798   1.261   9.672
 2794W        W 6313   2.632   0.196   0.703
 2795W        W 6314   6.709   7.566   1.242
 2796W        W 6315   2.682   6.656   1.261
 2797W        W 6316   6.224   8.766   1.569
 2798W        W 6317   1.785   2.856   1.707
 2799W        W 6318   4.753   2.917   9.416
 2800W        W 6319   0.610   7.546   9.222
 2801W        W 6320   3.417   3.926  10.588
 2802W        W 6321   4.251   5.832  11.409
 2803W        W 6322   6.061   9.367   9.836
 2804W        W 6323   6.210   4.610   1.291
 2805W        W 6324   8.222   4.968   3.473
 2806W        W 6325   7.880   4.364   2.675
 2807W        W 6326   9.295   0.171  11.905
 2808W        W 6327   1.294   6.023   1.121
 2809W        W 6328   4.880   6.139   1.980
 2810W        W 6329   8.873   2.737   0.787
 2811W        W 6330   5.122   6.946   0.881
 2812W        W 6331   8.558   6.959   8.703
 2813W        W 6332   9.923   8.516  10.513
 2814W        W 6333   9.027   6.823  11.342
 2815W        W 6334   6.257   1.981   1.586
 2816W        W 6335   8.133   0.710   1.783
 2817W        W 6336   8.264   0.160  10.457
 2818W        W 6337   8.214   9.267   0.332
 2819W        W 6338   5.767   0.480   2.575
 2820W        W 6339   6.524   6.697   0.573
 2821W        W 6340   4.509   1.866  10.830
 2822W        W 6341   4.492   6.103   0.809
 2823W        W 6342   0.741   4.827   2.911
 2824W        W 6343   2.408   8.839  10.543
 2825W        W 6344   9.787   6.149  10.560
 2826W        W 6345   9.794   4.916   1.361
 2827W        W 6346   9.603   2.736   2.721
 2828W        W 6347   6.886   4.575  10.576
 2829W        W 6348   2.145   2.071   8.638
 2830W        W 6349   1.239   7.693   8.555
 2831W        W 6350   2.203   2.318   9.103
 2832W        W 6351   5.764   6.894  10.378
 2833W        W 6352   9.478   0.553   2.557
 2834W        W 6353   4.161   4.606   9.627
 2835W        W 6354   3.674   1.375   3.423
 2836W        W 6355   2.286   4.863  11.991
 2837W        W 6356   3.725   6.437   2.704
 2838W        W 6357   1.543   4.129   0.409
 2839W        W 6358   2.154   2.712   2.975
 2840W        W 6359   2.359   3.419   3.679
 2841W        W 6360   1.418   8.991   0.758
 2842W        W 6361   2.764   9.261   8.773
 2843W        W 6362   3.321   8.185  11.246
 2844W        W 6363   6.409   9.237   1.581
 2845W        W 6364   2.775   5.976   3.624
 2846W        W 6365   3.806   2.217  11.715
 2847W        W 6366   7.574   2.414   0.762
 2848W        W 6367   5.710   4.558   2.552
 2849W        W 6368   8.582   1.631   9.396
 2850W        W 6369   8.919   2.359   9.209
 2851W        W 6370   8.933   1.319   9.155
 2852W        W 6371   2.197   9.693   1.628
 2853W        W 6372   9.240   1.336   0.776
 2854W        W 6373   5.456   7.388   2.769
 2855W        W 6374   6.582   4.377   2.606
 2856W        W 6375   2.139   0.019   9.581
 2857W        W 6376   2.584   8.008   0.241
 2858W        W 6377   6.462   3.441   2.684
 2859W        W 6378   5.703   5.733   0.454
 2860W        W 6379   3.132   9.535  10.546
 2861W        W 6380   4.706   4.037   8.607
 2862W        W 6381   2.403   4.085   2.326
 2863W        W 6382   0.883   4.540   0.537
 2864W        W 6383   6.370   8.819   2.576
 2865W        W 6384   8.836   8.845   9.457
 2866W        W 6385   0.614   5.590  11.822
 2867W        W 6386   3.975   6.156   8.674
 2868W        W 6387   8.119   7.488   9.200
 2869W        W 6388   6.907   3.375   8.967
 2870W        W 6389   2.892   1.825  11.984
 2871W        W 6390   5.984   6.894   1.343
 2872W        W 6391   6.897   4.093  11.348
 2873W        W 6392   5.387   7.103   9.020
 2874W        W 6393   2.744   9.296  11.187
 2875W        W 6394   5.062   0.554   1.961
 2876W        W 6395   3.761   0.574  11.348
 2877W        W 6396   1.782   8.333   2.447
 2878W        W 6397   7.242   7.650  10.755
 2879W        W 6398   0.834   1.055   1.785
 2880W        W 6399   2.005   4.450   9.566
 2881W        W 6400   3.697   1.061  11.403
 2882W        W 6401   9.591   1.909   2.907
 2883W        W 6402   8.091   1.731   2.652
 2884W        W 6403   0.851   3.465   2.962
 2885W        W 6404   6.871   1.894   8.801
 2886W        W 6405   6.592   1.660  11.862
 2887W        W 6406   2.913   8.747  10.486
 2888W        W 6407   0.656   8.058   9.326
 2889W        W 6408   7.159   4.400  11.886
 2890W        W 6409   8.970   1.456   0.081
 2891W        W 6410   7.547   0.755   0.302
 2892W        W 6411   8.585   7.578   2.764
 2893W        W 6412   5.627   7.861  10.924
 2894W        W 6413   7.885   7.762   3.548
 2895W        W 6414   9.347   5.414   8.709
 2896W        W 6415   9.223   1.171   8.741
 2897W        W 6416   8.933   8.791   2.401
 2898W        W 6417   8.251   9.660  10.231
 2899W        W 6418   8.435   3.191   1.383
 2900W        W 6419   8.579   3.053   3.581
 2901W        W 6420   6.250   6.328   3.665
 2902W        W 6421   1.400   3.127   9.783
 2903W        W 6422   3.955   6.500   3.153
 2904W        W 6423   0.944   3.706   1.585
 2905W        W 6424   1.159   7.909   9.233
 2906W        W 6425   6.934   7.093   1.236
 2907W        W 6426   9.907   5.503   0.506
 2908W        W 6427   6.041   0.916   2.306
 2909W        W 6428   5.325   6.435   2.807
 2910W        W 6429   7.005   9.115   0.986
 2911W        W 6430   5.440   9.351   1.673
 2912W        W 6431   3.648   4.026   8.599
 2913W        W 6432   1.740   1.028   9.205
 2914W        W 6433   6.188   7.511   1.287
 2915W        W 6434   7.011   5.277   9.335
 2916W        W 6435   6.992   1.439  10.810
 2917W        W 6436   9.818   9.907   2.516
 2918W        W 6437   3.941   5.824   1.470
 2919W        W 6438   6.153   3.605  10.914
 2920W        W 6439   1.295   5.926  11.501
 2921W        W 6440   6.492   5.427  11.928
 2922W        W 6441   7.759   8.482  10.292
 2923W        W 6442   3.746   2.337   0.226
 2924W        W 6443   4.908   0.539   3.533
 2925W        W 6444   9.940   6.258   2.442
 2926W        W 6445   3.186   2.236   2.489
 2927W        W 6446   0.277   0.073  10.873
 2928W        W 6447   1.023   2.817   2.588
 2929W        W 6448   0.203   6.908   1.737
 2930W        W 6449   8.583   8.445  11.048
 2931W        W 6450   8.752   4.455   2.708
 2932W        W 6451   9.290   6.071  10.522
 2933W        W 6452   9.752   0.294   9.259
 2934W        W 6453   3.609   3.562   9.354
 2935W        W 6454   8.054   7.226   0.911
 2936W        W 6455   5.566   3.387  11.513
 2937W        W 6456   0.872   5.253   9.696
 2938W        W 6457   4.595   0.015  10.080
 2939W        W 6458   5.688   5.487   9.437
 2940W        W 6459   6.226   6.194   8.325
 2941W        W 6460   6.708   6.458   2.740
 2942W        W 6461   8.572   2.187  11.273
 2943W        W 6462   0.982   0.525   1.872
 2944W        W 6463   0.215   1.229   9.686
 2945W        W 6464   3.126   3.513   2.655
 2946W        W 6465   6.248   6.722   8.214
 2947W        W 6466   3.512   7.629   2.144
 2948W        W 6467   9.407   8.481   0.744
 2949W        W 6468   5.181   4.764   8.775
 2950W        W 6469   8.934   8.885   3.253
 2951W        W 6470   8.002   1.943   0.228
 2952W        W 6471   1.510   5.564  10.020
 2953W        W 6472   6.472   8.138   0.049
 2954W        W 6473   0.907   0.609   0.780
 2955W        W 6474   5.789   9.254   3.472
 2956W        W 6475   6.072   5.708   9.076
 2957W        W 6476   1.807   0.908   9.693
 2958W        W 6477   0.362   6.150   9.698
 2959W        W 6478   5.688   1.231   2.111
 2960W        W 6479   5.391   2.247  10.892
 2961W        W 6480   1.393   2.453   0.879
 2962W        W 6481   5.284   8.946  11.942
 2963W        W 6482   2.702   0.274   2.177
 2964W        W 6483   1.690   5.677   2.248
 2965W        W 6484   9.003   6.536   2.020
 2966W        W 6485   7.030   3.019   0.955
 2967W        W 6486   7.058   9.547  11.191
 2968W        W 6487   6.479   0.218  11.287
 2969W        W 6488   3.745   1.429   0.306
 2970W        W 6489   3.875   5.543   3.205
 2971W        W 6490   8.993   8.620  11.474
 2972W        W 6491   4.452   3.040  11.164
 2973W        W 6492   8.151   6.018   2.934
 2974W        W 6493   0.724   1.158   9.607
 2975W        W 6494   7.007   6.889   2.213
 2976W        W 6495   0.521   9.295   2.044
 2977W        W 6496   2.148   2.039  11.407
 2978W        W 6497   2.633   2.443  11.412
 2979W        W 6498   7.110   4.204  10.854
 2980W        W 6499   7.822   7.120  11.883
 2981W        W 6500   5.999   4.055  11.510
 2982W        W 6501   8.731   1.751   8.920
 2983W        W 6502   1.712   1.861   2.786
 2984W        W 6503   0.253   1.129   0.209
 2985W        W 6504   7.467   3.529   3.492
 2986W        W 6505   1.484   1.244  10.498
 2987W        W 6506   6.674   3.912   8.127
 2988W        W 6507   6.073   8.764   1.063
 2989W        W 6508   8.436   7.684  11.518
 2990W        W 6509   0.248   4.670   1.275
 2991W        W 6510   9.054   1.634   3.553
 2992W        W 6511   4.214   1.145   8.577
 2993W        W 6512   0.464   9.343   2.616
 2994W        W 6513   5.778   1.847   1.801
 2995W        W 6514   7.197   9.476   9.306
 2996W        W 6515   9.779   9.401  10.038
 2997W        W 6516   1.342   5.386  11.150
 2998W        W 6517   2.324   7.183  10.891
 2999W        W 6518   9.663   6.502   0.676
 3000W        W 6519   5.643   9.852   2.807
 3001W        W 6520   4.906   4.320  10.014
 3002W        W 6521   8.386   9.555   9.744
 3003W        W 6522   0.768   3.287   1.925
 3004W        W 6523   0.352   4.817   2.150
 3005W        W 6524   6.601   6.021  11.502
 3006W        W 6525   2.276   7.204   0.100
 3007W        W 6526   4.000   7.680  11.306
 3008W        W 6527   6.051   1.691  11.659
 3009W        W 6528   7.641   6.583  10.379
 3010W        W 6529   7.561   4.227   1.613
 3011W        W 6530   3.315   2.037   9.129
 3012W        W 6531   2.281   5.301   9.489
 3013W        W 6532   9.973   6.259  11.391
 3014W        W 6533   2.141   8.216   0.006
 3015W        W 6534   0.313   9.825   2.614
 3016W        W 6535   9.737   7.387   2.896
 3017W        W 6536   2.502   3.014   8.735
 3018W        W 6537   8.581   6.441   8.695
 3019W        W 6538   0.002   4.867   2.840
 3020W        W 6539   1.271   2.449   0.366
 3021W        W 6540   1.805   4.999   0.200
 3022W        W 6541   3.950   8.026   1.985
 3023W        W 6542   3.220   1.481  10.831
 3024W        W 6543   1.066   5.000   9.283
 3025W        W 6544   7.570   6.739  11.611
 3026W        W 6545   7.389   3.203   9.274
 3027W        W 6546   0.870   5.321   8.897
 3028W        W 6547   2.605   3.676   9.284
 3029W        W 6548   7.279   3.945  11.691
 3030W        W 6549   9.630   1.915   1.855
 3031W        W 6550   0.604   7.199   3.225
 3032W        W 6551   3.063   5.291   0.001
 3033W        W 6552   5.401   7.446   0.876
 3034W        W 6553   4.175   1.827   2.989
 3035W        W 6554   7.470   7.373   1.671
 3036W        W 6555   5.743   2.170   2.271
 3037W        W 6556   1.940   5.267   0.647
 3038W        W 6557   5.821   1.045   9.034
 3039W        W 6558   2.483   2.044   3.421
 3040W        W 6559   5.572   2.753   1.349
 3041W        W 6560   2.257   0.555   2.179
 3042W        W 6561   2.670   7.331   8.908
 3043W        W 6562   4.535   9.950   1.071
 3044W        W 6563   5.123   5.068   2.803
 3045W        W 6564   7.497   5.334   2.996
 3046W        W 6565   2.756   7.822  10.239
 3047W        W 6566   6.262   0.263   8.700
 3048W        W 6567   9.208   9.754   8.458
 3049W        W 6568   0.010   1.714  11.199
 3050W        W 6569   9.929   8.871   3.399
 3051W        W 6570   7.072   4.732   3.091
 3052W        W 6571   5.575   7.888  11.936
 3053W        W 6572   7.728   8.748   9.532
 3054W        W 6573   3.509   9.304   1.966
 3055W        W 6574   8.659   4.975  10.878
 3056W        W 6575   8.776   9.487  10.106
 3057W        W 6576   8.474   4.144  10.276
 3058W        W 6577   0.336   4.621   9.182
 3059W        W 6578   9.073   9.310   0.464
 3060W        W 6579   8.819   5.116   9.872
 3061W        W 6580   1.927   0.391  11.459
 3062W        W 6581   7.514   9.091   9.237
 3063W        W 6582   7.221   0.360  11.360
 3064W        W 6583   2.155   9.942  11.497
 3065W        W 6584   4.629   6.935   0.694
 3066W        W 6585   2.782   5.997  10.310
 3067W        W 6586   6.890   1.737   3.191
 3068W        W 6587   5.268   7.012  10.544
 3069W        W 6588   8.179   9.297   2.307
 3070W        W 6589   0.532   9.989   3.445
 3071W        W 6590   8.377   7.553   1.766
 3072W        W 6591   9.017   9.826  11.454
 3073W        W 6592   4.362   8.209   1.058
 3074W        W 6593   9.144   1.813   2.559
 3075W        W 6594   1.407   7.649  11.479
 3076W        W 6595   8.396   1.086   3.369
 3077W        W 6596   3.253   0.175   3.338
 3078W        W 6597   8.387   9.374   2.769
 3079W        W 6598   7.474   7.910   1.956
 3080W        W 6599   8.172   2.697  10.558
 3081W        W 6600   6.911   1.576  11.444
 3082W        W 6601   2.261   9.891   2.889
 3083W        W 6602   9.341   7.728   9.063
 3084W        W 6603   9.889   3.274   9.407
 3085W        W 6604   8.029   5.502   9.460
 3086W        W 6605   7.928   4.362   1.975
 3087W        W 6606   6.139   2.316   9.466
 3088W        W 6607   9.510   2.290  11.743
 3089W        W 6608   0.960   9.218   0.671
 3090W        W 6609   2.026   2.284   3.237
 3091W        W 6610   2.525   6.329   0.027
 3092W        W 6611   5.606   6.556   9.647
 3093W        W 6612   7.644   0.290  11.602
 3094W        W 6613   8.221   0.198   9.190
 3095W        W 6614   4.247   3.266   8.245
 3096W        W 6615   5.359   9.812   8.807
 3097W        W 6616   0.274   9.122  11.348
 3098W        W 6617   6.362   1.966   1.071
 3099W        W 6618   1.402   4.354   9.229
 3100W        W 6619   2.257   0.339   1.435
 3101W        W 6620   7.044   5.012   8.454
 3102W        W 6621   4.034   9.438  10.515
 3103W        W 6622   3.518   6.107   8.372
 3104W        W 6623   1.371   9.018  11.390
 3105W        W 6624   5.972   1.040   9.903
 3106W        W 6625   1.842   7.868   2.017
 3107W        W 6626   0.166   6.777  11.331
 3108W        W 6627   4.239   6.996  10.243
 3109W        W 6628   6.994   5.231   3.257
 3110W        W 6629   7.140   6.091   1.415
 3111W        W 6630   1.781   8.491  10.697
 3112W        W 6631   7.424   9.412   9.764
 3113W        W 6632   6.140   4.249   1.660
 3114W        W 6633   4.301   9.412   2.339
 3115W        W 6634   7.172   5.912  10.591
 3116W        W 6635   3.356   6.376   1.820
 3117W        W 6636   3.974   2.530   2.286
 3118W        W 6637   0.310   8.158   8.939
 3119W        W 6638   0.734   6.683  10.383
 3120W        W 6639   1.324   4.656   3.459
 3121W        W 6640   0.818   9.973  10.741
 3122W        W 6641   1.060   7.774   1.362
 3123W        W 6642   7.801   0.707  11.867
 3124W        W 6643   9.523   8.964   9.879
 3125W        W 6644   3.295   8.959  11.738
 3126W        W 6645   3.152   2.791  10.218
 3127W        W 6646   9.449   4.535  10.389
 3128W        W 6647   5.208   2.033  10.382
 3129W        W 6648   9.064   5.012   8.888
 3130W        W 6649   4.007   9.845   2.334
 3131W        W 6650   5.690   7.511   1.392
 3132W        W 6651   0.495   5.652   2.130
 3133W        W 6652   4.654   7.874  11.852
 3134W        W 6653   5.062   1.180   9.803
 3135W        W 6654   4.062   9.427  11.515
 3136W        W 6655   7.432   5.176   2.407
 3137W        W 6656   4.613   2.832  10.499
 3138W        W 6657   2.366   6.523   3.245
 3139W        W 6658   0.237   9.763   1.768
 3140W        W 6659   7.785   7.881   2.737
 3141W        W 6660   1.451   2.163  10.081
 3142W        W 6661   8.567   8.607  11.787
 3143W        W 6662   3.537   4.500   0.444
 3144W        W 6663   1.759   6.744   3.122
 3145W        W 6664   8.260   7.959   2.587
 3146W        W 6665   9.206   6.052  11.881
 3147W        W 6666   9.287   0.962   2.869
 3148W        W 6667   0.337   7.808  10.525
 3149W        W 6668   1.918   2.418   0.946
 3150W        W 6669   3.575   2.579  10.383
 3151W        W 6670   6.220   2.687   0.660
 3152W        W 6671   7.662   5.310   9.152
 3153W        W 6672   9.910   7.111   0.053
 3154W        W 6673   7.940   1.641   1.812
 3155W        W 6674   2.931   8.632   9.916
 3156W        W 6675   4.981   1.365  11.355
 3157W        W 6676   4.593   6.512   1.511
 3158W        W 6677   5.648   6.820   0.724
 3159W        W 6678   5.871   0.313   9.433
 3160W        W 6679   2.261   7.917  10.180
 3161W        W 6680   0.033   4.223  10.773
 3162W        W 6681   9.872   3.451   0.284
 3163W        W 6682   8.030   5.746  10.452
 3164W        W 6683   4.645   6.287   9.445
 3165W        W 6684   8.558   0.583  11.227
 3166W        W 6685   8.918   5.758   0.776
 3167W        W 6686   6.110   6.743   9.158
 3168W        W 6687   1.299   3.087  11.670
 3169W        W 6688   4.275   5.558   1.882
 3170W        W 6689   4.116   1.322  11.239
 3171W        W 6690   9.222   4.604   0.470
 3172W        W 6691   4.788   0.899   2.195
 3173W        W 6692   6.854   2.324  10.796
 3174W        W 6693   4.881   1.598   1.395
 3175W        W 6694   5.289   0.226   0.732
 3176W        W 6695   2.255   5.073   3.639
 3177W        W 6696   3.348   6.611  11.726
 3178W        W 6697   4.709   1.746   2.763
 3179W        W 6698   3.606   1.104   9.076
 3180W        W 6699   3.451   4.527   7.881
 3181W        W 6700   2.756   3.761  11.166
 3182W        W 6701   2.700   4.303   9.832
 3183W        W 6702   1.320   2.638  11.365
 3184W        W 6703   3.288   0.801   9.400
 3185W        W 6704   6.168   5.576   4.153
 3186W        W 6705   0.876   6.975   0.371
 3187W        W 6706   1.592   3.033  10.818
 3188W        W 6707   9.214   8.360   0.268
 3189W        W 6708   6.926   5.128   2.291
 3190W        W 6709   5.432   7.113  11.023
 3191W        W 6710   6.008   9.539  11.280
 3192W        W 6711   8.183   2.605   2.442
 3193W        W 6712   5.241   9.987   0.281
 3194W        W 6713   6.949   9.851   2.190
 3195W        W 6714   5.193   5.091  10.907
 3196W        W 6715   3.846   8.820   3.091
 3197W        W 6716   9.368   3.435  11.130
 3198W        W 6717   4.437   7.079   2.292
 3199W        W 6718   0.478   6.463   1.703
 3200W        W 6719   5.793   4.484   3.305
 3201W        W 6720   0.806   1.084   9.092
 3202W        W 6721   5.028   1.467   3.091
 3203W        W 6722   6.598   9.233  11.349
 3204W        W 6723   1.790   4.266  11.510
 3205W        W 6724   8.306   7.074   0.024
 3206W        W 6725   4.543   6.416   9.917
 3207W        W 6726   6.698   3.805   9.694
 3208W        W 6727   8.632   1.091  10.330
 3209W        W 6728   3.386   2.575  11.933
 3210W        W 6729   0.415   9.665  10.568
 3211W        W 6730   1.346   6.002   3.045
 3212W        W 6731   7.340   4.468   9.187
 3213W        W 6732   5.195   1.518  10.420
 3214W        W 6733   3.623   4.971   9.175
 3215W        W 6734   8.588   4.314  11.817
 3216W        W 6735   4.331   4.260   1.460
 3217W        W 6736   9.506   1.876   3.413
 3218W        W 6737   3.084   3.822  10.201
 3219W        W 6738   6.404   6.293  11.075
 3220W        W 6739   5.299   7.787   3.536
 3221W        W 6740   0.425   4.379  10.501
 3222W        W 6741   1.377   0.319   1.582
 3223W        W 6742   1.251   2.438   2.261
 3224W        W 6743   9.959   1.735   9.837
 3225W        W 6744   1.759   7.483   9.789
 3226W        W 6745   2.358   3.301   2.744
 3227W        W 6746   5.249   3.607   3.198
 3228W        W 6747   0.515   2.134  10.072
 3229W        W 6748   1.621   1.051   2.694
 3230W        W 6749   7.539   4.775  11.886
 3231W        W 6750   6.545   7.661   0.326
 3232W        W 6751   6.607   4.789   3.387
 3233W        W 6752   6.799   9.340   3.094
 3234W        W 6753   2.084   9.254   2.986
 3235W        W 6754   0.419   6.380  11.164
 3236W        W 6755   4.358   3.106   3.046
 3237W        W 6756   2.224   5.606  11.172
 3238W        W 6757   5.694   3.605   2.228
 3239W        W 6758   9.010   1.030   0.384
 3240W        W 6759   3.174   7.100  10.542
 3241W        W 6760   4.299   4.626  11.861
 3242W        W 6761   0.699   8.288   0.853
 3243W        W 6762   0.850   7.653  10.493
 3244W        W 6763   0.883   1.562   2.662
 3245W        W 6764   4.313   2.399   8.705
 3246W        W 6765   0.093   0.696   1.409
 3247W        W 6766   0.365   1.845   0.435
 3248W        W 6767   0.252   5.632   3.406
 3249W        W 6768   4.688   1.266   3.480
 3250W        W 6769   9.519   6.648   1.137
 3251W        W 6770   6.944   0.176   1.777
 3252W        W 6771   4.241   1.628   2.522
 3253W        W 6772   5.023   5.900  11.115
 3254W        W 6773   6.651   8.222   9.013
 3255W        W 6774   8.097   9.101   1.841
 3256W        W 6775   4.296   6.251   9.071
 3257W        W 6776   7.113   1.636   9.237
 3258W        W 6777   8.917   4.000  11.046
 3259W        W 6778   2.920   6.526   3.287
 3260W        W 6779   6.037   4.367   9.160
 3261W        W 6780   1.623   3.564   9.638
 3262W        W 6781   9.832   9.520  11.989
 3263W        W 6782   6.887   7.701   0.743
 3264W        W 6783   9.832   6.900   2.869
 3265W        W 6784   2.034   0.850  10.692
 3266W        W 6785   4.142   2.034   2.219
 3267W        W 6786   6.871   7.793   8.827
 3268W        W 6787   9.459   0.810   9.043
 3269W        W 6788   0.630   4.752   9.607
 3270W        W 6789   6.681   6.055   3.672
 3271W        W 6790   8.593   5.763   2.893
 3272W        W 6791   8.523   1.239   2.416
 3273W        W 6792   9.298   2.663   1.057
 3274W        W 6793   5.944   6.155   0.879
 3275W        W 6794   1.963   1.693   1.404
 3276W        W 6795   7.901   9.729   2.350
 3277W        W 6796   7.002   6.986   0.347
 3278W        W 6797   9.346   0.083   2.312
 3279W        W 6798   0.472   0.342   0.525
 3280W        W 6799   3.725   0.719  10.303
 3281W        W 6800   2.413   0.645   3.533
 3282W        W 6801   8.744   4.109   8.493
 3283W        W 6802   6.472   4.619   1.748
 3284W        W 6803   2.489   5.513   8.469
 3285W        W 6804   7.605   2.261   0.259
 3286W        W 6805   0.720   3.995  10.289
 3287W        W 6806   3.702   1.564  11.386
 3288W        W 6807   4.817   7.241   8.607
 3289W        W 6808   1.361   6.324   8.728
 3290W        W 6809   9.568   5.020   0.565
 3291W        W 6810   4.639   2.711  11.910
 3292W        W 6811   8.057   6.522   9.566
 3293W        W 6812   1.828   3.221   1.357
 3294W        W 6813   7.673   9.857  11.870
 3295W        W 6814   7.038   4.869   0.037
 3296W        W 6815   7.581   8.440  11.791
 3297W        W 6816   9.955   0.939   0.564
 3298W        W 6817   6.300   5.333  11.458
 3299W        W 6818   5.183   4.520   9.226
 3300W        W 6819   4.121   4.099   3.342
 3301W        W 6820   4.487   3.172   1.698
 3302W        W 6821   9.942   9.442   2.703
 3303W        W 6822   7.082   8.174   1.776
 3304W        W 6823   7.729   3.065   9.693
 3305W        W 6824   0.833   9.769   0.012
 3306W        W 6825   3.454   3.868   2.536
 3307W        W 6826   5.430   7.877   9.038
 3308W        W 6827   5.903   9.629   1.668
 3309W        W 6828   3.958   2.708   0.553
 3310W        W 6829   5.083   3.331  10.593
 3311W        W 6830   6.582   7.002   4.230
 3312W        W 6831   8.136   8.605   1.809
 3313W        W 6832   3.921   0.282  11.815
 3314W        W 6833   0.327   0.405  11.241
 3315W        W 6834   7.939   1.369   1.268
 3316W        W 6835   0.155   1.718   0.920
 3317W        W 6836   3.511   8.846   3.540
 3318W        W 6837   3.754   6.157   3.857
 3319W        W 6838   6.329   0.172   9.612
 3320W        W 6839   8.079   6.421   0.337
 3321W        W 6840   6.363   4.788   9.075
 3322W        W 6841   0.797   4.863   2.392
 3323W        W 6842   2.942   2.305   3.374
 3324W        W 6843   5.460   1.479   9.697
 3325W        W 6844   6.694   5.642   4.004
 3326W        W 6845   8.500   8.047   3.019
 3327W        W 6846   9.947   9.968  11.263
 3328W        W 6847   2.181   1.057   2.145
 3329W        W 6848   2.417   6.934   9.991
 3330W        W 6849   8.929   3.448   2.929
 3331W        W 6850   7.491   3.744   1.438
 3332W        W 6851   1.072   6.611   1.837
 3333W        W 6852   6.018   2.716   9.795
 3334W        W 6853   8.811   1.490   0.566
 3335W        W 6854   9.062   9.641   2.247
 3336W        W 6855   4.735   7.074  10.505
 3337W        W 6856   3.897   5.878  11.774
 3338W        W 6857   6.108   3.172  10.547
 3339W        W 6858   9.813   8.796   9.474
 3340W        W 6859   9.254   0.867  10.902
 3341W        W 6860   5.586   8.385  11.798
 3342W        W 6861   0.650   8.679  10.693
 3343W        W 6862   7.417   9.134   0.514
 3344W        W 6863   1.164   5.048   0.982
 3345W        W 6864   4.625   1.792   9.015
 3346W        W 6865   2.050   2.617   8.691
 3347W        W 6866   5.629   5.231   0.389
 3348W        W 6867   1.198   6.244   0.069
 3349W        W 6868   5.578   9.371   9.693
 3350W        W 6869   1.749   0.883  10.248
 3351W        W 6870   6.502   2.120   0.058
 3352W        W 6871   2.298   9.957  10.999
 3353W        W 6872   5.793   9.082   0.032
 3354W        W 6873   0.195   1.661   3.906
 3355W        W 6874   3.773   3.742  11.809
 3356W        W 6875   2.212   5.997   1.966
 3357W        W 6876   8.105   7.102   8.874
 3358W        W 6877   4.897   4.038   0.456
 3359W        W 6878   5.148   6.840   0.360
 3360W        W 6879   7.949   5.479   1.395
 3361W        W 6880   6.057   5.601   0.819
 3362W        W 6881   1.010   4.116   9.540
 3363W        W 6882   3.425   0.335   9.532
 3364W        W 6883   6.306   8.626  11.408
 3365W        W 6884   8.439   2.622   9.227
 3366W        W 6885   9.484   0.324   8.798
 3367W        W 6886   7.686   5.079   1.021
 3368W        W 6887   7.976   7.603  11.246
 3369W        W 6888   3.520   6.127   1.410
 3370W        W 6889   0.753   1.673   8.983
 3371W        W 6890   6.864   7.537  11.204
 3372W        W 6891   0.845   9.661   0.942
 3373W        W 6892   4.058   3.060   0.905
 3374W        W 6893   7.842   8.232   9.833
 3375W        W 6894   1.858   7.151  11.765
 3376W        W 6895   0.148   7.847   9.313
 3377W        W 6896   5.373   4.261   9.805
 3378W        W 6897   7.522   5.743   3.511
 3379W        W 6898   8.277   4.169   0.605
 3380W        W 6899   0.950   2.314  11.539
 3381W        W 6900   4.808   6.473   0.671
 3382W        W 6901   4.679   0.862   2.687
 3383W        W 6902   6.348   7.563   9.874
 3384W        W 6903   3.670   0.492   1.710
 3385W        W 6904   9.780   6.755   2.369
 3386W        W 6905   4.721   0.319  11.387
 3387W        W 6906   7.405   8.292  10.952
 3388W        W 6907   3.781   0.067  11.373
 3389W        W 6908   0.529   3.698   1.235
 3390W        W 6909   3.197   6.016   0.569
 3391W        W 6910   7.926   8.164   1.782
 3392W        W 6911   3.988   5.908   9.445
 3393W        W 6912   9.274   5.509   3.215
 3394W        W 6913   8.552   7.460   0.833
 3395W        W 6914   9.628   5.271   0.133
 3396W        W 6915   8.123   0.641  10.291
 3397W        W 6916   2.652   4.421   8.487
 3398W        W 6917   0.483   0.844   0.577
 3399W        W 6918   6.877   6.513   3.528
 3400W        W 6919   9.560   3.366  11.877
 3401W        W 6920   9.227   8.184  10.083
 3402W        W 6921   3.042   4.374   0.355
 3403W        W 6922   4.654   6.448   3.556
 3404W        W 6923   3.653   0.740  10.815
 3405W        W 6924   9.676   1.762   1.287
 3406W        W 6925   9.838   0.251   1.185
 3407W        W 6926   2.627   0.699  11.850
 3408W        W 6927   5.157   6.362   3.674
 3409W        W 6928   8.993   9.965   9.533
 3410W        W 6929   5.716   0.142   1.819
 3411W        W 6930   4.983   9.381  11.925
 3412W        W 6931   0.329   7.987  11.765
 3413W        W 6932   7.755   6.745   9.036
 3414W        W 6933   4.510   7.907  10.895
 3415W        W 6934   8.693   0.317   3.224
 3416W        W 6935   3.085   3.397  11.450
 3417W        W 6936   2.225   5.998   0.911
 3418W        W 6937   9.042   0.763  10.432
 3419W        W 6938   8.389   9.340  11.851
 3420W        W 6939   5.200   1.962   8.490
 3421W        W 6940   0.783   8.079  11.514
 3422W        W 6941   7.927   3.414   1.305
 3423W        W 6942   2.206   4.338   2.793
 3424W        W 6943   8.027   4.660   9.892
 3425W        W 6944   3.793   8.878   0.755
 3426W        W 6945   0.436   4.236  11.086
 3427W        W 6946   5.002   2.067  11.747
 3428W        W 6947   4.933   9.991   2.129
 3429W        W 6948   4.323   9.014   3.229
 3430W        W 6949   0.279   8.795  10.289
 3431W        W 6950   2.570   4.745   2.873
 3432W        W 6951   3.224   2.265   9.607
 3433W        W 6952   6.329   2.985  10.111
 3434W        W 6953   1.474   2.125   3.155
 3435W        W 6954   2.493   2.640   9.522
 3436W        W 6955   6.625   1.833   1.891
 3437W        W 6956   2.878   5.996   0.163
 3438W        W 6957   7.411   2.673   9.588
 3439W        W 6958   3.753   4.482   8.857
 3440W        W 6959   8.515   2.631  10.954
 3441W        W 6960   0.345   5.948   0.727
 3442W        W 6961   1.252   8.058  11.770
 3443W        W 6962   9.273   3.782  10.766
 3444W        W 6963   9.596   1.757  10.921
 3445W        W 6964   1.460   3.025  10.309
 3446W        W 6965   7.247   5.046   8.923
 3447W        W 6966   1.359   9.354  10.339
 3448W        W 6967   6.357   0.949  10.614
 3449W        W 6968   3.108   9.001   9.311
 3450W        W 6969   6.337   1.784   8.721
 3451W        W 6970   3.752   8.558  10.073
 3452W        W 6971   3.771   7.879   2.493
 3453W        W 6972   1.819   1.801   9.600
 3454W        W 6973   8.077   3.087   1.761
 3455W        W 6974   6.011   1.851  10.775
 3456W        W 6975   5.954   3.354  10.026
 3457W        W 6976   5.991   9.518   9.123
 3458W        W 6977   6.011   4.116   1.175
 3459W        W 6978   9.548   5.347   9.990
 3460W        W 6979   6.384   0.157   1.100
 3461W        W 6980   0.477   9.307   0.335
 3462W        W 6981   8.002   3.232   9.287
 3463W        W 6982   1.537   2.797   2.597
 3464W        W 6983   6.906   2.408   9.261
 3465W        W 6984   3.115   9.992   9.253
 3466W        W 6985   3.475   9.402   3.553
 3467W        W 6986   5.214   6.923   2.872
 3468W        W 6987   1.852   3.805  11.729
 3469W        W 6988   8.191   1.441  10.988
 3470W        W 6989   5.110   3.518   8.216
 3471W        W 6990   1.008   2.874   3.617
 3472W        W 6991   8.723   9.333   1.428
 3473W        W 6992   5.310   4.612  11.192
 3474W        W 6993   4.884   7.758   9.863
 3475W        W 6994   7.971   2.242  10.442
 3476W        W 6995   5.972   4.742   1.724
 3477W        W 6996   1.525   4.251   9.719
 3478W        W 6997   6.193   6.352   2.798
 3479W        W 6998   5.473   3.528  10.318
 3480W        W 6999   5.399   2.904   8.784
 3481W        W 7000   7.606   8.447   2.112
 3482W        W 7001   3.732   3.570   8.847
 3483W        W 7002   3.312   4.694   3.403
 3484W        W 7003   4.532   3.559   2.861
 3485W        W 7004   3.470   7.882   0.209
 3486W        W 7005   6.978   4.685   2.599
 3487W        W 7006   2.247   4.655   3.264
 3488W        W 7007   8.461   3.405   1.882
 3489W        W 7008   4.199   7.519   0.281
 3490W        W 7009   0.318   5.430  10.450
 3491W        W 7010   2.296   0.160  10.043
 3492W        W 7011   1.307   2.352   9.088
 3493W        W 7012   7.331   6.166   3.265
 3494W        W 7013   2.733   7.019   0.275
 3495W        W 7014   3.581   5.530   3.626
 3496W        W 7015   2.742   6.916  10.775
 3497W        W 7016   1.743   8.968  11.734
 3498W        W 7017   4.073   8.530  11.642
 3499W        W 7018   5.497   2.896  11.674
 3500W        W 7019   5.470   0.457   0.286
 3501W        W 7020   0.371   4.176   1.307
 3502W        W 7021   9.750   6.128   8.322
 3503W        W 7022   4.423   7.067   8.870
 3504W        W 7023   8.896   9.504  11.882
 3505W        W 7024   6.100   5.105   0.966
 3506W        W 7025   8.989   2.628   2.900
 3507W        W 7026   2.850   3.295   1.580
 3508W        W 7027   5.744   7.112   1.887
 3509W        W 7028   5.147   7.725   3.060
 3510W        W 7029   4.140   7.423   9.745
 3511W        W 7030   3.497   6.851  11.276
 3512W        W 7031   0.867   2.770   0.312
 3513W        W 7032   1.383   1.835   9.287
 3514W        W 7033   4.223   5.527   2.826
 3515W        W 7034   9.375   7.204   9.196
 3516W        W 7035   5.203   0.035   3.143
 3517W        W 7036   6.614   6.765   1.555
 3518W        W 7037   2.165   4.749  10.293
 3519W        W 7038   3.426   0.320  11.664
 3520W        W 7039   3.485   9.457   0.751
 3521W        W 7040   5.523   1.938  11.804
 3522W        W 7041   8.500   6.877  11.100
 3523W        W 7042   8.823   0.051   2.583
 3524W        W 7043   7.311   0.112   1.431
 3525W        W 7044   2.028   8.325   9.380
 3526W        W 7045   1.993   1.416   2.693
 3527W        W 7046   4.444   6.972  10.919
 3528W        W 7047   5.168   1.409   0.474
 3529W        W 7048   9.918   8.444  11.019
 3530W        W 7049   9.954   0.375   2.728
 3531W        W 7050   6.205   6.512  11.956
 3532W        W 7051   2.902   7.776   1.036
 3533W        W 7052   5.608   0.702   2.143
 3534W        W 7053   0.292   6.111   9.182
 3535W        W 7054   1.746   9.518   1.402
 3536W        W 7055   4.900   6.991   8.164
 3537W        W 7056   9.487   8.464   9.219
 3538W        W 7057   6.683   4.438  11.051
 3539W        W 7058   1.012   0.732  11.719
 3540W        W 7059   7.150   6.510   0.393
 3541W        W 7060   8.931   3.609  11.966
 3542W        W 7061   2.390   1.196   9.872
 3543W        W 7062   1.279   8.222   1.412
 3544W        W 7063   9.412   8.596   1.802
 3545W        W 7064   5.655   3.832   8.383
 3546W        W 7065   9.897   0.194  10.528
 3547W        W 7066   8.284   4.741   2.660
 3548W        W 7067   8.947   8.222   0.667
 3549W        W 7068   6.116   0.697   0.522
 3550W        W 7069   5.493   4.998   9.238
 3551W        W 7070   5.844   6.993   8.796
 3552W        W 7071   0.605   7.863  10.089
 3553W        W 7072   6.631   5.673   3.308
 3554W        W 7073   0.361   3.953   0.792
 3555W        W 7074   2.188   1.657  11.766
 3556W        W 7075   5.118   1.577  11.812
 3557W        W 7076   7.845   6.762   3.010
 3558W        W 7077   0.953   1.461   9.945
 3559W        W 7078   0.663   9.834   1.463
 3560W        W 7079   4.356   9.175   9.544
 3561W        W 7080   7.819   3.210  11.301
 3562W        W 7081   6.920   3.772  10.632
 3563W        W 7082   6.935   8.492   0.259
 3564W        W 7083   6.912   1.047   9.924
 3565W        W 7084   1.772   2.607  10.240
 3566W        W 7085   0.922   9.556  11.121
 3567W        W 7086   6.569   7.999   9.987
 3568W        W 7087   6.953   9.707  10.213
 3569W        W 7088   1.777   8.890   1.824
 3570W        W 7089   1.120   5.060   3.212
 3571W        W 7090   9.835   6.039   0.594
 3572W        W 7091   8.674   2.985   3.082
 3573W        W 7092   4.554   7.358  10.054
 3574W        W 7093   4.557   7.000   1.694
 3575W        W 7094   4.482   9.048  10.235
 3576W        W 7095   9.336   7.217   1.682
 3577W        W 7096   8.697   4.414   9.277
 3578W        W 7097   9.795   8.772   1.002
 3579W        W 7098   9.232   0.370   9.264
 3580W        W 7099   1.379   1.184  10.007
 3581W        W 7100   8.062   8.703   9.916
 3582W        W 7101   7.733   6.273   9.262
 3583W        W 7102   4.332   8.371  10.732
 3584W        W 7103   1.758   6.113   0.698
 3585W        W 7104   1.654   0.693   8.826
 3586W        W 7105   4.186   7.834   2.790
 3587W        W 7106   6.690   9.324   3.590
 3588W        W 7107   6.435   0.898  10.107
 3589W        W 7108   4.950   8.157   3.438
 3590W        W 7109   5.245   7.407   2.297
 3591W        W 7110   5.793   7.483   8.933
 3592W        W 7111   1.739   2.042   8.942
 3593W        W 7112   2.795   0.908   9.579
 3594W        W 7113   4.991   7.297   0.509
 3595W        W 7114   9.890   9.758  10.813
 3596W        W 7115   3.229   5.112   9.496
 3597W        W 7116   1.490   9.929   1.255
 3598W        W 7117   0.451   1.688   2.952
 3599W        W 7118   7.150   9.112  11.469
 3600W        W 7119   1.948   0.291   8.988
 3601W        W 7120   7.377   5.254   3.614
 3602W        W 7121   9.596   9.688  10.405
 3603W        W 7122   4.656   0.721   1.690
 3604W        W 7123   6.942   1.317   2.187
 3605W        W 7124   1.686   5.694   0.975
 3606W        W 7125   2.342   1.138   3.417
 3607W        W 7126   6.556   4.896   0.936
 3608W        W 7127   9.517   0.121   2.856
 3609W        W 7128   5.573   8.207   2.586
 3610W        W 7129   1.344   7.611  11.997
 3611W        W 7130   6.641   3.347   0.753
 3612W        W 7131   4.788   1.129   9.327
 3613W        W 7132   2.617   2.195   1.679
 3614W        W 7133   0.670   3.154   3.337
 3615W        W 7134   8.539   8.888   1.151
 3616W        W 7135   6.102   1.244   3.258
 3617W        W 7136   5.193   7.511   3.957
 3618W        W 7137   6.138   4.731  11.538
 3619W        W 7138   2.311   9.825   0.826
 3620W        W 7139   2.413   2.470   0.838
 3621W        W 7140   7.223   2.567   3.502
 3622W        W 7141   5.629   6.581   2.091
 3623W        W 7142   4.749   2.255   3.446
 3624W        W 7143   1.814   0.026   1.665
 3625W        W 7144   6.630   8.320   9.528
 3626W        W 7145   1.308   4.168   2.673
 3627W        W 7146   6.407   3.299   8.789
 3628W        W 7147   3.190   5.570   2.678
 3629W        W 7148   5.457   5.946   3.737
 3630W        W 7149   9.595   5.122   3.053
 3631W        W 7150   5.439   9.082   0.418
 3632W        W 7151   3.605   2.088  10.454
 3633W        W 7152   6.922   7.290   9.961
 3634W        W 7153   3.005   9.406   0.992
 3635W        W 7154   3.349   3.660   9.791
 3636W        W 7155   5.704   9.945   0.983
 3637W        W 7156   8.926   5.966   9.566
 3638W        W 7157   8.597   5.721   0.246
 3639W        W 7158   7.608   3.279   1.698
 3640W        W 7159   5.264   5.880   1.665
 3641W        W 7160   7.732   0.046   9.079
 3642W        W 7161   0.550   9.170  10.484
 3643W        W 7162   1.557   5.079   1.544
 3644W        W 7163   8.316   8.886   2.623
 3645W        W 7164   4.314   0.661   0.524
 3646W        W 7165   5.212   9.338   2.161
 3647W        W 7166   4.721   3.651  11.768
 3648W        W 7167   4.492   1.915   9.852
 3649W        W 7168   8.831   2.149   2.812
 3650W        W 7169   5.481   7.585   8.555
 3651W        W 7170   0.437   1.866  11.420
 3652W        W 7171   1.870   9.070   8.936
 3653W        W 7172   0.415   7.024   0.783
 3654W        W 7173   4.131   3.332   2.645
 3655W        W 7174   8.096   3.714  11.940
 3656W        W 7175   6.778   2.309  11.305
 3657W        W 7176   0.973   2.341  10.700
 3658W        W 7177   2.904   2.731   3.719
 3659W        W 7178   6.154   9.969   1.986
 3660W        W 7179   6.743   4.646   1.333
 3661W        W 7180   6.574   8.859   3.115
 3662W        W 7181   8.121   9.200   9.998
 3663W        W 7182   3.196   7.543  10.243
 3664W        W 7183   9.669   2.823  11.717
 3665W        W 7184   9.656   4.718  10.843
 3666W        W 7185   6.027   9.905   3.192
 3667W        W 7186   1.790   8.072   1.507
 3668W        W 7187   3.583   6.609   9.963
 3669W        W 7188   1.849   1.697   2.295
 3670W        W 7189   0.651   6.024  10.859
 3671W        W 7190   7.040   0.328   3.136
 3672W        W 7191   1.612   7.369   1.767
 3673W        W 7192   4.650   8.775   8.528
 3674W        W 7193   2.264   7.049   2.504
 3675W        W 7194   7.692   7.835  10.889
 3676W        W 7195   1.294   0.436   1.087
 3677W        W 7196   0.569   0.807  11.455
 3678W        W 7197   3.200   4.703   2.067
 3679W        W 7198   7.085   5.285  11.748
 3680W        W 7199   5.133   7.845   1.066
 3681W        W 7200   4.549   0.213  10.550
 3682W        W 7201   4.923   3.096  11.019
 3683W        W 7202   8.406   9.915   1.058
 3684W        W 7203   1.676   4.465  10.821
 3685W        W 7204   8.382   0.289   2.798
 3686W        W 7205   4.014   3.379   1.334
 3687W        W 7206   0.442   1.743  10.910
 3688W        W 7207   5.134   5.676   2.111
 3689W        W 7208   6.758   5.544  11.433
 3690W        W 7209   5.588   2.646   1.871
 3691W        W 7210   0.779   4.366   9.928
 3692W        W 7211   3.011   8.793   1.293
 3693W        W 7212   9.060   9.916   9.008
 3694W        W 7213   2.253   4.430  11.696
 3695W        W 7214   6.270   9.118   9.439
 3696W        W 7215   9.369   5.685   9.599
 3697W        W 7216   7.988   6.275   8.823
 3698W        W 7217   4.304   7.454  10.973
 3699W        W 7218   8.259   6.517   3.207
 3700W        W 7219   7.416   4.061   8.854
 3701W        W 7220   7.834   2.696   9.317
 3702W        W 7221   0.443   4.922  10.517
 3703W        W 7222   3.038   8.421  11.597
 3704W        W 7223   2.241   7.421   9.992
 3705W        W 7224   8.007   7.949   1.307
 3706W        W 7225   2.182   1.945   2.588
 3707W        W 7226   6.212   5.279   9.766
 3708W        W 7227   2.437   0.235   3.230
 3709W        W 7228   0.334   6.419  11.720
 3710W        W 7229   4.697   9.674   3.071
 3711W        W 7230   2.614   0.451   0.274
 3712W        W 7231   3.885   4.620   2.119
 3713W        W 7232   2.304   5.217  10.532
 3714W        W 7233   5.371   1.101   0.861
 3715W        W 7234   9.251   2.036  10.145
 3716W        W 7235   2.269   0.915   9.442
 3717W        W 7236   1.793   8.692   0.902
 3718W        W 7237   7.247   6.829  10.610
 3719W        W 7238   4.081   8.563   2.054
 3720W        W 7239   2.841   4.621  11.045
 3721W        W 7240   4.761   5.667   1.732
 3722W        W 7241   1.661   8.856   2.344
 3723W        W 7242   0.270   8.256  10.228
 3724W        W 7243   6.683   6.647   0.108
 3725W        W 7244   6.567   5.065   9.436
 3726W        W 7245   0.434   2.092  11.884
 3727W        W 7246   7.506   8.927   2.845
 3728W        W 7247   3.685   0.063   9.936
 3729W        W 7248   2.240   6.371   1.293
 3730W        W 7249   5.468   3.644   0.315
 3731W        W 7250   3.596   5.022   1.987
 3732W        W 7251   1.156   4.312   1.706
 3733W        W 7252   5.851   8.427  11.342
 3734W        W 7253   8.698   8.590   2.879
 3735W        W 7254   0.903   7.910   2.087
 3736W        W 7255   3.201   9.987   9.793
 3737W        W 7256   7.446   6.871   2.678
 3738W        W 7257   4.864   5.284   0.417
 3739W        W 7258   2.699   8.449   3.391
 3740W        W 7259   5.499   9.523   0.178
 3741W        W 7260   2.359   4.578   1.883
 3742W        W 7261   3.493   9.308   9.478
 3743W        W 7262   5.645   4.030   2.521
 3744W        W 7263   8.879   9.736   0.656
 3745W        W 7264   3.900   2.603   8.984
 3746W        W 7265   6.010   2.791   1.618
 3747W        W 7266   9.069   0.455   2.853
 3748W        W 7267   1.219   8.179   8.788
 3749W        W 7268   6.743   1.228  10.385
 3750W        W 7269   5.103   8.561   8.711
 3751W        W 7270   9.430   4.661   1.918
 3752W        W 7271   9.766   9.779   0.916
 3753W        W 7272   4.891   0.318   1.269
 3754W        W 7273   0.289   5.529  10.950
 3755W        W 7274   8.124   4.135  11.639
 3756W        W 7275   0.376   4.695  10.065
 3757W        W 7276   2.241   8.459   2.658
 3758W        W 7277   3.979   1.869   0.437
 3759W        W 7278   3.819   2.729  11.712
 3760W        W 7279   1.242   2.099   1.826
 3761W        W 7280   6.377   4.101   9.450
 3762W        W 7281   6.330   6.097   8.819
 3763W        W 7282   6.015   9.435   0.309
 3764W        W 7283   4.890   1.122  11.806
 3765W        W 7284   5.924   5.256   1.811
 3766W        W 7285   2.853   5.982  10.807
 3767W        W 7286   1.251   2.414   2.799
 3768W        W 7287   2.256   0.082   2.411
 3769W        W 7288   7.193   9.145   0.049
 3770W        W 7289   6.904   4.928   0.564
 3771W        W 7290   6.894   5.350   0.860
 3772W        W 7291   9.028   3.873   1.270
 3773W        W 7292   4.166   0.901  11.546
 3774W        W 7293   6.796   8.771  11.412
 3775W        W 7294   6.707   9.033   8.787
 3776W        W 7295   4.611   0.317   8.848
 3777W        W 7296   8.419   8.067   9.650
 3778W        W 7297   8.912   4.403   1.318
 3779W        W 7298   1.809   9.666   2.790
 3780W        W 7299   2.693   9.260  11.710
 3781W        W 7300   2.243   9.517   9.497
 3782W        W 7301   7.996   7.908   0.367
 3783W        W 7302   6.904   4.757   9.171
 3784W        W 7303   0.121   0.105   0.230
 3785W        W 7304   7.716   5.659   1.955
 3786W        W 7305   4.625   0.827   3.201
 3787W        W 7306   4.244   1.877   1.721
 3788W        W 7307   7.188   1.338   3.059
 3789W        W 7308   2.348   9.851   3.575
 3790W        W 7309   6.851   2.900   3.325
 3791W        W 7310   0.060   7.610  11.546
 3792W        W 7311   4.951   1.389   8.898
 3793W        W 7312   7.594   7.097  10.328
 3794W        W 7313   4.791   8.986   0.972
 3795W        W 7314   2.392   0.868  11.065
 3796W        W 7315   5.056   3.117   0.516
 3797W        W 7316   5.559   6.000   9.443
 3798W        W 7317   3.218   9.959  10.798
 3799W        W 7318   1.631   2.430   1.916
 3800W        W 7319   2.242   4.001   1.356
 3801W        W 7320   0.705   8.876   2.297
 3802W        W 7321   2.147   3.211   2.278
 3803W        W 7322   6.076   2.650  11.803
 3804W        W 7323   9.734   4.556   0.440
 3805W        W 7324   1.525   4.465   0.797
 3806W        W 7325   5.156   4.101   2.441
 3807W        W 7326   8.924   7.498   0.469
 3808W        W 7327   3.300   6.617  10.375
 3809W        W 7328   4.518   2.274   1.876
 3810W        W 7329   2.832   1.478   2.760
 3811W        W 7330   5.708   4.389   8.412
 3812W        W 7331   8.366   9.057  11.405
 3813W        W 7332   8.166   1.874  11.253
 3814W        W 7333   0.337   0.703   2.910
 3815W        W 7334   5.741   5.550   2.827
 3816W        W 7335   4.719   4.339  10.974
 3817W        W 7336   1.776   2.372   2.807
 3818W        W 7337   4.433   2.779   0.400
 3819W        W 7338   8.312   3.867   8.647
 3820W        W 7339   1.214   0.631   2.311
 3821W        W 7340   2.116   7.463   2.837
 3822W        W 7341   3.452   4.726   2.530
 3823W        W 7342   7.814   9.514   0.513
 3824W        W 7343   7.622   0.745  11.371
 3825W        W 7344   5.491   8.098   3.070
 3826W        W 7345   1.370   4.424  11.815
 3827W        W 7346   9.515   1.279  10.821
 3828W        W 7347   3.931   7.512   1.897
 3829W        W 7348   6.183   0.341   3.448
 3830W        W 7349   4.674   7.456   1.460
 3831W        W 7350   3.528   3.283  10.838
 3832W        W 7351   7.882   3.975   2.288
 3833W        W 7352   2.428   2.003   0.038
 3834W        W 7353   7.316   6.962   9.922
 3835W        W 7354   3.668   2.027   9.525
 3836W        W 7355   9.264   1.353   1.276
 3837W        W 7356   5.375   9.209  10.737
 3838W        W 7357   3.626   6.395  10.901
 3839W        W 7358   2.261   3.620   0.377
 3840W        W 7359   1.273   0.322  11.510
 3841W        W 7360   3.815   3.238  11.768
 3842W        W 7361   0.384   9.464   0.818
 3843W        W 7362   2.259   3.098   9.580
 3844W        W 7363   4.224   6.021   4.011
 3845W        W 7364   1.403   5.509   2.643
 3846W        W 7365   0.035   1.253  10.954
 3847W        W 7366   6.669   6.674   1.055
 3848W        W 7367   4.535   8.801   1.899
 3849W        W 7368   5.895   4.040  10.854
 3850W        W 7369   1.728   5.676  11.366
 3851W        W 7370   0.884   1.898   2.137
 3852W        W 7371   0.869   7.120   2.807
 3853W        W 7372   6.475   5.227   3.160
 3854W        W 7373   7.745   1.946   3.025
 3855W        W 7374   2.788   5.212   9.248
 3856W        W 7375   7.462   5.230   0.156
 3857W        W 7376   0.353   3.451  10.239
 3858W        W 7377   1.102   7.460   8.997
 3859W        W 7378   0.235   3.891  10.438
 3860W        W 7379   7.416   1.682  11.559
 3861W        W 7380   8.109   2.850   1.187
 3862W        W 7381   8.950   6.978  11.827
 3863W        W 7382   5.468   3.583   3.661
 3864W        W 7383   3.707   4.369   1.129
 3865W        W 7384   2.906   1.728   9.176
 3866W        W 7385   0.179   2.376   3.420
 3867W        W 7386   9.193   5.068   1.753
 3868W        W 7387   3.515   8.741   1.291
 3869W        W 7388   5.590   2.186   4.029
 3870W        W 7389   8.945   8.777   1.904
 3871W        W 7390   1.618   9.118   2.817
 3872W        W 7391   6.677   1.904   0.656
 3873W        W 7392   0.983   2.106  10.259
 3874W        W 7393   3.895   5.473   9.965
 3875W        W 7394   3.226   1.283  11.296
 3876W        W 7395   2.158   5.093   2.332
 3877W        W 7396   3.073   9.256   0.509
 3878W        W 7397   8.266   1.461  11.550
 3879W        W 7398   1.168   7.990   0.889
 3880W        W 7399   6.726   3.859   2.513
 3881W        W 7400   5.634   8.013   9.915
 3882W        W 7401   9.382   1.411  11.784
 3883W        W 7402   4.659   8.098  10.417
 3884W        W 7403   3.730   6.345  11.920
 3885W        W 7404   8.507   7.967   1.089
 3886W        W 7405   0.407   2.861  11.225
 3887W        W 7406   1.835   8.431   0.417
 3888W        W 7407   1.871   3.458  10.071
 3889W        W 7408   8.438   9.486   0.754
 3890W        W 7409   7.005   0.141   0.857
 3891W        W 7410   7.218   8.548   2.658
 3892W        W 7411   8.799   4.083   1.698
 3893W        W 7412   7.847   4.053   3.091
 3894W        W 7413   9.187   3.516  10.161
 3895W        W 7414   4.482   0.410   2.836
 3896W        W 7415   5.523   1.645   3.229
 3897W        W 7416   4.211   4.351   0.944
 3898W        W 7417   2.662   7.641   9.770
 3899W        W 7418   4.371   0.629   2.360
 3900W        W 7419   3.723   3.655   1.699
 3901W        W 7420   4.111   3.674   9.170
 3902W        W 7421   4.744   9.169  11.507
 3903W        W 7422   5.120   7.996  11.607
 3904W        W 7423   3.466   6.910   3.450
 3905W        W 7424   9.835   7.128  11.519
 3906W        W 7425   5.262   9.788   2.458
 3907W        W 7426   9.883   6.396   9.725
 3908W        W 7427   3.274   1.548   0.128
 3909W        W 7428   2.207   7.488   0.533
 3910W        W 7429   1.336   8.444  10.960
 3911W        W 7430   3.774   3.221   8.484
 3912W        W 7431   8.766   8.520   1.453
 3913W        W 7432   7.478   3.095  10.528
 3914W        W 7433   4.334   3.817  10.623
 3915W        W 7434   6.976   8.318   2.267
 3916W        W 7435   3.005   2.328   8.837
 3917W        W 7436   0.462   8.020   2.449
 3918W        W 7437   6.060   8.914   3.207
 3919W        W 7438   7.644   0.750   1.926
 3920W        W 7439   2.863   3.499   8.725
 3921W        W 7440   4.656   9.427   9.858
 3922W        W 7441   8.990   8.680   0.998
 3923W        W 7442   5.179   8.355  10.552
 3924W        W 7443   1.827   7.090   0.332
 3925W        W 7444   9.927   7.851   1.158
 3926W        W 7445   4.129   9.348   9.971
 3927W        W 7446   3.041   5.511   3.628
 3928W        W 7447   4.216   8.934   1.080
 3929W        W 7448   6.337   6.824   2.691
 3930W        W 7449   9.121   3.142   0.026
 3931W        W 7450   3.460   6.004   2.401
 3932W        W 7451   0.139   2.591  11.787
 3933W        W 7452   0.803   6.169   9.384
 3934W        W 7453   3.427   2.672   3.177
 3935W        W 7454   7.125   1.551  10.272
 3936W        W 7455   7.870   9.660   9.896
 3937W        W 7456   5.607   0.389  11.279
 3938W        W 7457   3.772   5.466   1.793
 3939W        W 7458   7.707   3.384  11.811
 3940W        W 7459   4.025   0.172   2.754
 3941W        W 7460   9.608   2.920   9.686
 3942W        W 7461   3.666   7.574   9.935
 3943W        W 7462   2.939   2.735   2.260
 3944W        W 7463   5.639   4.720  11.625
 3945W        W 7464   4.256   4.158  11.103
 3946W        W 7465   7.612   7.995  11.370
 3947W        W 7466   1.981   1.301  10.455
 3948W        W 7467   3.559   9.084   9.038
 3949W        W 7468   5.051   9.315   1.318
 3950W        W 7469   2.940   0.469   9.837
 3951W        W 7470   8.047   4.608  11.840
 3952W        W 7471   2.895   7.019   8.582
 3953W        W 7472   9.532   4.213  10.784
 3954W        W 7473   5.460   0.310  11.767
 3955W        W 7474   9.359   7.049   3.080
 3956W        W 7475   6.516   1.659  10.622
 3957W        W 7476   2.718   4.718   0.545
 3958W        W 7477   3.486   3.199   1.645
 3959W        W 7478   4.712   9.307   3.448
 3960W        W 7479   4.851   5.179   9.956
 3961W        W 7480   1.984   6.208  10.423
 3962W        W 7481   7.271   2.922   1.592
 3963W        W 7482   2.163   6.573   2.701
 3964W        W 7483   0.456   4.145   3.400
 3965W        W 7484   5.407   6.169   9.908
 3966W        W 7485   4.734   9.136   2.270
 3967W        W 7486   0.057   5.079   9.186
 3968W        W 7487   4.437   3.272   9.211
 3969W        W 7488   4.619   7.549   9.012
 3970W        W 7489   5.924   9.130   1.765
 3971W        W 7490   7.626   3.842   0.069
 3972W        W 7491   9.595   5.592   2.814
 3973W        W 7492   6.953   6.424   1.775
 3974W        W 7493   5.416   6.068   0.012
 3975W        W 7494   4.239   9.848   0.110
 3976W        W 7495   9.070   9.961   3.034
 3977W        W 7496   7.754   4.081   0.637
 3978W        W 7497   4.450   1.540   2.044
 3979W        W 7498   6.161   1.215   0.426
 3980W        W 7499   9.283   7.881   0.514
 3981W        W 7500   9.419   8.626   2.320
 3982W        W 7501   0.644   9.357   1.303
 3983W        W 7502   2.832   6.515   0.382
 3984W        W 7503   8.743   4.222   2.218
 3985W        W 7504   3.769   7.831   1.542
 3986W        W 7505   2.542   9.437   1.881
 3987W        W 7506   2.622   2.847   2.826
 3988W        W 7507   6.226   4.539   3.634
 3989W        W 7508   9.731   2.614   2.242
 3990W        W 7509   7.825   5.122   0.530
 3991W        W 7510   5.234   3.869   1.595
 3992W        W 7511   1.370   0.270  10.250
 3993W        W 7512   8.224   8.416   2.784
 3994W        W 7513   4.950   7.346   2.761
 3995W        W 7514   3.838   2.726   3.516
 3996W        W 7515   9.854   5.121  11.705
 3997W        W 7516   6.005   5.473  10.873
 3998W        W 7517   3.894   2.766   9.951
 3999W        W 7518   0.278   2.573   9.238
 4000W        W 7519   6.321   6.058   3.206
 4001W        W 7520   7.065   7.332   2.999
 4002W        W 7521   1.450   6.893   1.607
 4003W        W 7522   2.359   4.611  11.205
 4004W        W 7523   0.367   2.839   0.197
 4005W        W 7524   3.620   3.083   1.157
 4006W        W 7525   8.424   7.574   0.342
 4007W        W 7526   4.985   4.988   9.207
 4008W        W 7527   4.279   4.511   3.639
 4009W        W 7528   1.452   5.662   3.567
 4010W        W 7529   8.454   2.364   2.038
 4011W        W 7530   4.477   7.412   0.687
 4012W        W 7531   5.532   8.028   0.808
 4013W        W 7532   1.960   4.756   0.888
 4014W        W 7533   7.440   8.106   2.444
 4015W        W 7534   4.814   9.029   9.373
 4016W        W 7535   7.603   5.634  10.742
 4017W        W 7536   9.361   4.191   1.492
 4018W        W 7537   4.119   1.677   8.950
 4019W        W 7538   7.021   2.393   8.708
 4020W        W 7539   8.838   2.099   2.261
 4021W        W 7540   7.040   8.003   1.152
 4022W        W 7541   3.117   9.786   0.298
 4023W        W 7542   8.106   4.514   3.119
 4024W        W 7543   3.153   3.412  10.511
 4025W        W 7544   3.129   7.185  11.043
 4026W        W 7545   7.403   6.256  11.797
 4027W        W 7546   0.897   5.639  11.365
 4028W        W 7547   4.286   2.712  11.512
 4029W        W 7548   8.498   8.711  10.228
 4030W        W 7549   6.842   8.808   2.283
 4031W        W 7550   0.240   7.419   1.840
 4032W        W 7551   4.971   9.072   1.783
 4033W        W 7552   3.584   0.275  10.551
 4034W        W 7553   7.058   5.767   9.416
 4035W        W 7554   2.235   6.869   1.167
 4036W        W 7555   7.168   6.488   2.496
 4037W        W 7556   4.364   1.626   1.243
 4038W        W 7557   4.149   8.745   1.557
 4039W        W 7558   1.827   7.455   9.252
 4040W        W 7559   4.219   5.779   0.515
 4041W        W 7560   7.193   0.608   3.542
 4042W        W 7561   5.794   8.597   9.261
 4043W        W 7562   5.085   9.533  11.408
 4044W        W 7563   6.435   6.929  11.772
 4045W        W 7564   1.796   9.406   1.892
 4046W        W 7565   9.432   2.278   9.225
 4047W        W 7566   2.505   4.872   1.475
 4048W        W 7567   8.553   0.440  10.037
 4049W        W 7568   0.834   9.864   2.701
 4050W        W 7569   8.810   2.666  10.050
 4051W        W 7570   5.981   0.047   1.393
 4052W        W 7571   5.425   3.121  11.049
 4053W        W 7572   8.577   4.998   0.968
 4054W        W 7573   5.711   9.964   0.481
 4055W        W 7574   3.019   2.845   8.706
 4056W        W 7575   7.134   0.007   2.707
 4057W        W 7576   0.209   5.103   0.611
 4058W        W 7577   6.544   1.617   2.344
 4059W        W 7578   1.162   3.790  10.513
 4060W        W 7579   2.281   3.326   9.081
 4061W        W 7580   4.196   5.445   9.052
 4062W        W 7581   2.043   8.748   9.731
 4063W        W 7582   6.341   6.521   4.394
 4064W        W 7583   6.656   9.956  11.943
 4065W        W 7584   0.656   0.453  10.815
 4066W        W 7585   7.065   2.362   2.376
 4067W        W 7586   2.644   7.723  11.760
 4068W        W 7587   6.859   0.414  10.961
 4069W        W 7588   6.272   1.724  11.177
 4070W        W 7589   7.033   4.162   2.815
 4071W        W 7590   1.796   4.372  10.317
 4072W        W 7591   7.956   1.142   0.819
 4073W        W 7592   4.107   5.023   9.341
 4074W        W 7593   5.197   1.891   2.836
 4075W        W 7594   0.803   2.155   0.524
 4076W        W 7595   3.919   0.361   1.218
 4077W        W 7596   7.453   3.916  10.110
 4078W        W 7597   6.437   6.268   0.862
 4079W        W 7598   6.451   8.493  10.005
 4080W        W 7599   5.760   5.482   9.939
 4081W        W 7600   0.940   0.232   3.081
 4082W        W 7601   8.625   1.709   2.630
 4083W        W 7602   2.369   6.116  11.201
 4084W        W 7603   4.249   9.900  11.529
 4085W        W 7604   2.403   8.867   3.255
 4086W        W 7605   6.470   4.608   8.229
 4087W        W 7606   6.770   5.941   1.803
 4088W        W 7607   8.001   4.181   0.161
 4089W        W 7608   7.883   6.713   3.536
 4090W        W 7609   9.244   0.873   1.068
 4091W        W 7610   0.917   0.810   3.172
 4092W        W 7611   7.321   8.425   1.073
 4093W        W 7612   9.573   0.907  11.303
 4094W        W 7613   6.954   8.067  10.772
 4095W        W 7614   7.532   2.828   2.020
 4096W        W 7615   6.426   2.565   1.401
 4097W        W 7616   3.274   1.279   2.605
 4098W        W 7617   6.301   2.491  11.347
 4099W        W 7618   7.095   0.561   2.684
 4100W        W 7619   4.218   4.542   9.106
 4101W        W 7620   8.807   0.008  11.913
 4102W        W 7621   3.225   1.744  10.401
 4103W        W 7622   3.682   8.480  11.016
 4104W        W 7623   2.997   6.001   1.786
 4105W        W 7624   3.260   4.938   1.614
 4106W        W 7625   7.510   0.310   3.828
 4107W        W 7626   2.584   3.973  10.239
 4108W        W 7627   6.150   9.714   0.827
 4109W        W 7628   4.060   1.326   2.958
 4110W        W 7629   3.619   3.849   3.025
 4111W        W 7630   9.856   2.874   3.376
 4112W        W 7631   5.389   0.406   9.661
 4113W        W 7632   9.574   5.741   1.643
 4114W        W 7633   7.622   7.521   0.755
 4115W        W 7634   6.809   7.600   2.661
 4116W        W 7635   9.316   6.660   1.604
 4117W        W 7636   1.328   1.215   1.458
 4118W        W 7637   2.313   4.070   8.599
 4119W        W 7638   4.168   0.809   9.509
 4120W        W 7639   3.083   0.272   0.468
 4121W        W 7640   4.450   1.295   9.001
 4122W        W 7641   9.406   6.177   9.693
 4123W        W 7642   8.959   2.297   1.080
 4124W        W 7643   1.289   3.441   0.048
 4125W        W 7644   0.723   3.736   0.261
 4126W        W 7645   4.561   3.354  10.753
 4127W        W 7646   7.228   8.484  11.386
 4128W        W 7647   3.742   3.711   4.022
 4129W        W 7648   6.150   5.742  11.717
 4130W        W 7649   5.392   1.209   0.049
 4131W        W 7650   6.637   4.533   9.534
 4132W        W 7651   0.931   6.962   0.885
 4133W        W 7652   3.690   8.375   3.322
 4134W        W 7653   7.112   3.472   1.669
 4135W        W 7654   6.092   6.704  11.456
 4136W        W 7655   5.270   2.778   3.386
 4137W        W 7656   6.218   7.034  10.588
 4138W        W 7657   8.726   3.930   8.963
 4139W        W 7658   0.675   8.922   2.855
 4140W        W 7659   6.262   4.119   3.355
 4141W        W 7660   5.225   3.629   9.210
 4142W        W 7661   1.163   1.476   0.605
 4143W        W 7662   6.219   1.967   2.621
 4144W        W 7663   8.893   2.878   9.135
 4145W        W 7664   2.847   4.754   0.043
 4146W        W 7665   6.035   4.793  10.027
 4147W        W 7666   1.398   0.404   3.187
 4148W        W 7667   6.042   6.681   1.814
 4149W        W 7668   5.403   6.547  10.294
 4150W        W 7669   8.285   1.276   9.592
 4151W        W 7670   5.636   5.440   1.048
 4152W        W 7671   5.269   6.626   8.223
 4153W        W 7672   7.695   7.345   9.527
 4154W        W 7673   1.632   8.881   0.232
 4155W        W 7674   7.385   6.362  10.814
 4156W        W 7675   8.100   8.420  11.892
 4157W        W 7676   0.718   0.797   2.235
 4158W        W 7677   5.969   6.898   2.319
 4159W        W 7678   8.530   8.927   1.653
 4160W        W 7679   2.182   0.383   2.800
 4161W        W 7680   1.301   7.953   3.651
 4162W        W 7681   5.453   6.617   8.693
 4163W        W 7682   9.336   7.416  10.366
 4164W        W 7683   0.126   6.024  10.932
 4165W        W 7684   2.722   1.493   3.257
 4166W        W 7685   2.906   4.759   2.478
 4167W        W 7686   4.938   5.086   3.819
 4168W        W 7687   4.893   6.041   9.819
 4169W        W 7688   3.198   0.806  10.375
 4170W        W 7689   0.392   3.341   0.243
 4171W        W 7690   9.846   7.005  10.894
 4172W        W 7691   5.368   4.846   2.246
 4173W        W 7692   4.676   1.822  11.341
 4174W        W 7693   5.877   1.316   9.461
 4175W        W 7694   6.370   0.282  10.777
 4176W        W 7695   2.817   1.957   2.963
 4177W        W 7696   6.999   1.051   2.643
 4178W        W 7697   3.837   3.673  10.827
 4179W        W 7698   2.161   8.091   8.638
 4180W        W 7699   5.911   8.213   2.166
 4181W        W 7700   6.976   9.245   8.349
 4182W        W 7701   3.242   6.737   2.171
 4183W        W 7702   9.798   5.626  10.832
 4184W        W 7703   2.847   3.824  11.657
 4185W        W 7704   8.815   1.719  10.403
 4186W        W 7705   9.318   2.583  10.015
 4187W        W 7706   3.725   4.500   9.890
 4188W        W 7707   2.650   5.151   0.275
 4189W        W 7708   6.353   9.651   9.519
 4190W        W 7709   4.518   8.717  11.485
 4191W        W 7710   8.542   8.469   0.825
 4192W        W 7711   5.959   0.433  11.659
 4193W        W 7712   9.725   3.673  10.114
 4194W        W 7713   6.119   1.547   0.838
 4195W        W 7714   8.991   7.833   8.686
 4196W        W 7715   2.291   9.461  11.373
 4197W        W 7716   0.387   4.623   2.609
 4198W        W 7717   0.790   1.962   1.596
 4199W        W 7718   5.912   6.927  11.019
 4200W        W 7719   6.985   2.004  10.043
 4201W        W 7720   8.357   1.513   1.532
 4202W        W 7721   2.131   6.788   9.586
 4203W        W 7722   1.207   0.787   9.057
 4204W        W 7723   2.233   1.788   9.238
 4205W        W 7724   2.609   7.260   2.880
 4206W        W 7725   2.321   6.716   0.285
 4207W        W 7726   0.159   0.439   9.590
 4208W        W 7727   3.597   1.510   2.933
 4209W        W 7728   8.870   9.719   1.151
 4210W        W 7729   4.439   5.945  11.855
 4211W        W 7730   8.776   5.477   2.521
 4212W        W 7731   1.492   2.624   9.820
 4213W        W 7732   9.625   0.574   1.608
 4214W        W 7733   7.911   3.529   3.838
 4215W        W 7734   6.649   8.038   1.986
 4216W        W 7735   0.458   0.197   2.915
 4217W        W 7736   5.583   2.169   9.201
 4218W        W 7737   1.534   3.819   2.340
 4219W        W 7738   5.261   2.395   8.823
 4220W        W 7739   6.471   7.895  10.489
 4221W        W 7740   7.405   7.536  11.217
 4222W        W 7741   3.422   7.097   8.579
 4223W        W 7742   6.748   0.799  11.906
 4224W        W 7743   5.277   5.656  11.644
 4225W        W 7744   3.369   4.130   0.769
 4226W        W 7745   4.235   8.548  10.260
 4227W        W 7746   8.947   0.249  10.514
 4228W        W 7747   4.412   5.465   3.770
 4229W        W 7748   5.989   6.285   9.384
 4230W        W 7749   7.619   5.899   9.859
 4231W        W 7750   1.852   4.744   3.625
 4232W        W 7751   8.210   9.861   1.973
 4233W        W 7752   7.153   4.356   1.314
 4234W        W 7753   5.772   3.377   4.042
 4235W        W 7754   9.965   5.706   2.416
 4236W        W 7755   5.566   3.065  10.508
 4237W        W 7756   6.418   7.621  11.426
 4238W        W 7757   1.102   3.716   2.565
 4239W        W 7758   8.233   8.284  10.140
 4240W        W 7759   0.814   3.302   2.460
 4241W        W 7760   3.843   9.269   8.644
 4242W        W 7761   0.261   2.592   1.456
 4243W        W 7762   8.632   9.297   9.383
 4244W        W 7763   3.104   4.046   1.223
 4245W        W 7764   1.161   1.208   2.942
 4246W        W 7765   9.087   0.988  11.871
 4247W        W 7766   3.204   1.725   3.191
 4248W        W 7767   5.700   0.962   0.374
 4249W        W 7768   8.036   3.562  10.953
 4250W        W 7769   0.867   6.141   8.829
 4251W        W 7770   2.779   7.011   1.630
 4252W        W 7771   4.364   4.707   2.252
 4253W        W 7772   5.950   0.337   0.169
 4254W        W 7773   2.709   5.141   9.746
 4255W        W 7774   0.794   2.384   1.964
 4256W        W 7775   6.246   3.157   9.647
 4257W        W 7776   1.251   1.322  10.934
 4258W        W 7777   3.070   9.568   9.553
 4259W        W 7778   9.009   4.468   3.487
 4260W        W 7779   4.671   7.155  11.362
 4261W        W 7780   8.961   7.748   0.920
 4262W        W 7781   1.271   2.230   9.594
 4263W        W 7782   3.141   3.253  10.019
 4264W        W 7783   1.087   5.742  11.953
 4265W        W 7784   4.142   8.430   0.141
 4266W        W 7785   0.020   9.093   9.122
 4267W        W 7786   6.211   1.694   9.369
 4268W        W 7787   4.607   1.756   3.274
 4269W        W 7788   7.628   0.279  11.072
 4270W        W 7789   0.928   4.338  11.221
 4271W        W 7790   5.012   3.774   1.154
 4272W        W 7791   6.714   6.012   8.468
 4273W        W 7792   4.784   3.110   2.794
 4274W        W 7793   7.828   1.501   2.283
 4275W        W 7794   6.510   4.224   1.141
 4276W        W 7795   2.381   6.672  10.469
 4277W        W 7796   2.127   8.307   0.867
 4278W        W 7797   8.096   8.379   2.272
 4279W        W 7798   1.526   3.253   3.151
 4280W        W 7799   0.887   8.391   0.380
 4281W        W 7800   5.418   1.737   1.435
 4282W        W 7801   9.017   6.133  10.068
 4283W        W 7802   2.974   6.254  11.734
 4284W        W 7803   2.863   9.736  11.830
 4285W        W 7804   4.209   6.747   9.255
 4286W        W 7805   0.905   2.075   9.267
 4287W        W 7806   9.335   1.014   2.377
 4288W        W 7807   8.062   0.018   1.462
 4289W        W 7808   8.397   2.759   0.022
 4290W        W 7809   6.123   8.140   2.621
 4291W        W 7810   4.635   6.642   9.034
 4292W        W 7811   5.982   0.805   9.447
 4293W        W 7812   7.346   9.391  10.274
 4294W        W 7813   1.098   4.169   2.203
 4295W        W 7814   7.386   4.422   2.557
 4296W        W 7815   9.211   9.296   3.038
 4297W        W 7816   1.640   5.504   3.107
 4298W        W 7817   6.898   9.987  11.452
 4299W        W 7818   2.741   9.098  10.144
 4300W        W 7819   4.884   5.863   2.945
 4301W        W 7820   3.780   3.761   3.505
 4302W        W 7821   1.872   0.222   2.125
 4303W        W 7822   5.601   3.112   2.123
 4304W        W 7823   7.824   0.275   9.538
 4305W        W 7824   9.244   1.694   8.839
 4306W        W 7825   1.830   5.197  10.300
 4307W        W 7826   5.113   7.524   8.883
 4308W        W 7827   9.769   7.512   1.533
 4309W        W 7828   3.956   7.363   2.890
 4310W        W 7829   5.501   4.763   9.982
 4311W        W 7830   3.940   0.857   2.199
 4312W        W 7831   7.089   4.015   8.446
 4313W        W 7832   9.955   5.963   9.988
 4314W        W 7833   5.086   9.094   8.646
 4315W        W 7834   3.266   1.703   9.547
 4316W        W 7835   6.786   2.360   0.424
 4317W        W 7836   9.625   9.622   3.092
 4318W        W 7837   5.608   0.850   1.254
 4319W        W 7838   3.533   6.649   1.294
 4320W        W 7839   4.668   0.401   0.807
 4321W        W 7840   1.899   0.533   1.731
 4322W        W 7841   0.658   5.537   8.466
 4323W        W 7842   5.953   7.666  11.622
 4324W        W 7843   1.942   6.915   1.742
 4325W        W 7844   3.734   0.040   3.193
 4326W        W 7845   8.508   6.021  10.214
 4327W        W 7846   9.024   0.206   9.999
 4328W        W 7847   1.752   2.819   0.647
 4329W        W 7848   7.046   7.483   0.275
 4330W        W 7849   4.962   4.010   8.149
 4331W        W 7850   1.388   7.969   2.258
 4332W        W 7851   5.190   6.427   1.698
 4333W        W 7852   9.231   1.782   1.541
 4334W        W 7853   8.510   5.743   9.268
 4335W        W 7854   8.514   4.127  11.316
 4336W        W 7855   2.584   5.569  10.027
 4337W        W 7856   6.525   0.791  11.063
 4338W        W 7857   2.235   9.867   9.095
 4339W        W 7858   6.595   4.163  10.642
 4340W        W 7859   4.649   3.910   2.430
 4341W        W 7860   2.513   1.495   0.148
 4342W        W 7861   0.116   9.538   2.228
 4343W        W 7862   0.567   5.443   0.773
 4344W        W 7863   2.891   0.474   3.516
 4345W        W 7864   8.403   1.569   0.058
 4346W        W 7865   0.317   3.258  10.764
 4347W        W 7866   2.180   4.341   3.682
 4348W        W 7867   9.414   8.858  11.635
 4349W        W 7868   5.464   2.529  10.415
 4350W        W 7869   7.951   0.411   0.302
 4351W        W 7870   2.483   9.534   3.162
 4352W        W 7871   3.604   2.993   9.336
 4353W        W 7872   8.120   9.597  10.722
 4354W        W 7873   9.915   5.741  11.314
 4355W        W 7874   6.871   5.753  11.887
 4356W        W 7875   7.753   4.715  10.319
 4357W        W 7876   1.142   0.081   3.546
 4358W        W 7877   6.626   3.517  11.940
 4359W        W 7878   6.990   5.439  10.459
 4360W        W 7879   8.103   4.700   8.688
 4361W        W 7880   9.901   8.931  11.811
 4362W        W 7881   4.356   1.048   1.953
 4363W        W 7882   3.291   9.728   1.763
 4364W        W 7883   3.326   8.781  10.200
 4365W        W 7884   6.087   3.327   1.910
 4366W        W 7885   7.680   7.318   9.008
 4367W        W 7886   4.315   2.581   0.928
 4368W        W 7887   9.549   3.259   3.300
 4369W        W 7888   7.693   9.544   9.119
 4370W        W 7889   2.097   4.109   3.241
 4371W        W 7890   4.083   4.692   1.272
 4372W        W 7891   5.957   5.799   8.574
 4373W        W 7892   0.704   4.868   3.414
 4374W        W 7893   6.990   4.504   8.300
 4375W        W 7894   0.400   1.123   1.505
 4376W        W 7895   9.760   3.774  10.614
 4377W        W 7896   7.431   7.042   1.268
 4378W        W 7897   3.314   4.719  11.163
 4379W        W 7898   5.427   0.335   1.218
 4380W        W 7899   2.443   4.690  10.715
 4381W        W 7900   4.651   6.683   0.234
 4382W        W 7901   9.449   6.400   2.213
 4383W        W 7902   8.086   0.362  11.347
 4384W        W 7903   7.840   7.984  11.893
 4385W        W 7904   6.613   2.494  11.761
 4386W        W 7905   9.318   7.814   3.271
 4387W        W 7906   9.312   4.684   9.443
 4388W        W 7907   4.711   4.815   0.451
 4389W        W 7908   2.991   5.081   4.143
 4390W        W 7909   2.446   3.067   3.268
 4391W        W 7910   4.402   6.561   1.037
 4392W        W 7911   4.187   1.504   3.431
 4393W        W 7912   7.196   3.805   2.318
 4394W        W 7913   0.024   5.073  10.176
 4395W        W 7914   8.580   7.633   9.351
 4396W        W 7915   5.082   0.772   9.487
 4397W        W 7916   3.625   4.222  11.776
 4398W        W 7917   9.570   4.102   3.380
 4399W        W 7918   2.727   7.210  11.773
 4400W        W 7919   3.267   3.837   8.895
 4401W        W 7920   2.906   3.897   2.378
 4402W        W 7921   1.765   1.254  10.933
 4403W        W 7922   3.092   0.556   0.881
 4404W        W 7923   8.478   1.868  10.785
 4405W        W 7924   0.423   4.539  11.952
 4406W        W 7925   3.078   6.386   1.395
 4407W        W 7926   6.709   0.786   9.107
 4408W        W 7927   8.484   6.247   9.741
 4409W        W 7928   6.100   7.132  10.057
 4410W        W 7929   5.631   5.781   2.365
 4411W        W 7930   5.283   2.967   0.968
 4412W        W 7931   7.873   8.970  11.317
 4413W        W 7932   0.360   8.395   2.110
 4414W        W 7933   0.952   5.486   0.401
 4415W        W 7934   7.567   0.717   9.424
 4416W        W 7935   8.222   3.177   3.125
 4417W        W 7936   0.873   7.027   2.311
 4418W        W 7937   0.332   8.160  11.277
 4419W        W 7938   7.334   3.936   3.197
 4420W        W 7939   8.056   6.882  10.479
 4421W        W 7940   9.775   0.735   1.000
 4422W        W 7941   8.533   6.634   1.846
 4423W        W 7942   8.601   9.734  10.624
 4424W        W 7943   0.340   9.218  11.842
 4425W        W 7944   6.571   5.985   2.717
 4426W        W 7945   3.291   3.319   8.998
 4427W        W 7946   9.097   4.629   2.333
 4428W        W 7947   3.962   4.196   1.784
 4429W        W 7948   2.798   7.495   8.402
 4430W        W 7949   6.408   2.464  10.043
 4431W        W 7950   9.357   0.553   2.058
 4432W        W 7951   4.643   0.689  11.715
 4433W        W 7952   0.837   6.148  11.332
 4434W        W 7953   1.355   3.491  10.129
 4435W        W 7954   6.369   1.329   9.738
 4436W        W 7955   6.479   5.308  10.981
 4437W        W 7956   2.861   8.069   8.641
 4438W        W 7957   7.565   9.370  11.260
 4439W        W 7958   9.382   6.549  11.837
 4440W        W 7959   8.219   6.389   2.155
 4441W        W 7960   6.999   8.398   3.161
 4442W        W 7961   8.255   9.520   3.231
 4443W        W 7962   8.047   7.000   9.385
 4444W        W 7963   4.649   9.980   1.608
 4445W        W 7964   9.768   0.357  10.992
 4446W        W 7965   5.855   6.919   3.579
 4447W        W 7966   5.434   0.550   3.496
 4448W        W 7967   4.573   7.182   0.237
 4449W        W 7968   7.760   1.153   9.661
 4450W        W 7969   4.869   1.294   1.874
 4451W        W 7970   5.426   1.546   8.743
 4452W        W 7971   4.019   5.162   0.996
 4453W        W 7972   9.255   8.793   2.813
 4454W        W 7973   8.091   9.710   0.100
 4455W        W 7974   6.756   7.538  10.701
 4456W        W 7975   2.426   9.472   1.215
 4457W        W 7976   7.430   0.370   0.595
 4458W        W 7977   6.043   2.779   3.123
 4459W        W 7978   8.632   6.566   2.404
 4460W        W 7979   3.942   6.787  11.619
 4461W        W 7980   6.592   0.869   0.392
 4462W        W 7981   3.143   5.169  10.403
 4463W        W 7982   7.469   9.198   3.322
 4464W        W 7983   4.529   5.856  11.010
 4465W        W 7984   4.169   8.209   2.413
 4466W        W 7985   3.062   9.728   3.560
 4467W        W 7986   4.072   7.132  11.981
 4468W        W 7987   0.869   0.648   9.506
 4469W        W 7988   2.556   9.119   2.844
 4470W        W 7989   4.475   7.392  11.789
 4471W        W 7990   7.356   2.807  10.090
 4472W        W 7991   5.203   2.783   2.170
 4473W        W 7992   2.751   9.981   9.991
 4474W        W 7993   8.500   9.777   1.548
 4475W        W 7994   0.959   9.743   3.222
 4476W        W 7995   2.362   9.637  11.854
 4477W        W 7996   1.770   9.697   9.731
 4478W        W 7997   4.514   9.322   1.847
 4479W        W 7998   5.662   4.849  10.881
 4480W        W 7999   2.425   1.205  11.734
 4481W        W 8000   4.732   2.864   2.351
 4482W        W 8001   8.693   6.125   1.986
 4483W        W 8002   0.917   5.199  11.984
 4484W        W 8003   9.027   8.599   9.017
 4485W        W 8004   4.475   2.426   2.363
 4486W        W 8005   2.366   6.959   8.702
 4487W        W 8006   3.964   7.154   9.053
 4488W        W 8007   1.769   0.364   0.330
 4489W        W 8008   3.544   9.817   9.458
 4490W        W 8009   5.136   3.639   2.254
 4491W        W 8010   9.345   4.680   1.419
 4492W        W 8011   6.971   7.755   9.776
 4493W        W 8012   3.693   6.896   2.979
 4494W        W 8013   5.749   3.609   0.771
 4495W        W 8014   4.125   6.463   8.278
 4496W        W 8015   6.059   8.653  11.918
 4497W        W 8016   0.196   9.674   1.252
 4498W        W 8017   7.275   7.301   8.678
 4499W        W 8018   0.476   8.396   0.062
 4500W        W 8019   8.963   3.085   2.151
 4501W        W 8020   2.142   7.828   9.671
 4502W        W 8021   9.194   1.778   2.054
 4503W        W 8022   9.387   5.050   2.241
 4504W        W 8023   9.853   5.585  10.334
 4505W        W 8024   2.438   0.744   3.041
 4506W        W 8025   5.528   6.642  10.807
 4507W        W 8026   7.969   7.564   8.664
 4508W        W 8027   1.817   2.689  11.189
 4509W        W 8028   6.289   3.684   2.270
 4510W        W 8029   1.613   7.951   0.614
 4511W        W 8030   6.215   4.776   2.544
 4512W        W 8031   5.962   2.349   1.358
 4513W        W 8032   2.184   1.995   0.833
 4514W        W 8033   6.181   5.174   8.779
 4515W        W 8034   6.762   6.015   9.743
 4516W        W 8035   4.738   2.625  10.942
 4517W        W 8036   8.484   3.068   0.883
 4518W        W 8037   3.004   8.021   9.152
 4519W        W 8038   9.394   7.195   9.730
 4520W        W 8039   8.585   4.570  10.574
 4521W        W 8040   6.041   6.543  10.641
 4522W        W 8041   1.702   7.971   9.975
 4523W        W 8042   4.603   4.053   1.081
 4524W        W 8043   5.936   1.547   9.917
 4525W        W 8044   8.956   2.313   0.039
 4526W        W 8045   9.346   4.876   9.971
 4527W        W 8046   2.521   6.553   0.788
 4528W        W 8047   3.077   0.110   1.486
 4529W        W 8048   4.167   0.593   1.822
 4530W        W 8049   9.156   9.771   0.217
 4531W        W 8050   2.343   4.032   9.568
 4532W        W 8051   6.645   2.209   9.649
 4533W        W 8052   8.458   2.370   0.953
 4534W        W 8053   0.259   2.343  10.986
 4535W        W 8054   0.503   8.862   1.419
 4536W        W 8055   6.711   8.489   2.714
 4537W        W 8056   8.473   3.332   9.519
 4538W        W 8057   6.707   2.849  11.428
 4539W        W 8058   2.897   7.538   9.318
 4540W        W 8059   9.700   9.015   2.496
 4541W        W 8060   4.424   7.194   9.367
 4542W        W 8061   8.045   9.778   9.427
 4543W        W 8062   3.716   7.320   9.474
 4544W        W 8063   6.453   5.426   1.107
 4545W        W 8064   5.906   3.932   0.284
 4546W        W 8065   9.534   0.878   0.118
 4547W        W 8066   8.451   8.854   2.143
 4548W        W 8067   4.157   9.272   1.484
 4549W        W 8068   9.675   8.173   0.350
 4550W        W 8069   2.137   0.874   2.621
 4551W        W 8070   9.985   6.868   1.025
 4552W        W 8071   6.080   0.488   2.004
 4553W        W 8072   6.205   9.439   8.633
 4554W        W 8073   0.018   4.176   9.282
 4555W        W 8074   0.420   6.170   0.208
 4556W        W 8075   6.162   7.539   3.112
 4557W        W 8076   0.502   1.331   8.693
 4558W        W 8077   3.121   5.646  10.173
 4559W        W 8078   5.528   2.158   3.125
 4560W        W 8079   2.064   9.125   1.078
 4561W        W 8080   0.325   8.278  10.769
 4562W        W 8081   3.447   8.063   1.863
 4563W        W 8082   0.797   0.546   2.702
 4564W        W 8083   4.281   6.502   0.548
 4565W        W 8084   0.696   1.275   3.157
 4566W        W 8085   0.551   0.655   1.642
 4567W        W 8086   7.389   2.750   3.013
 4568W        W 8087   3.403   1.748   3.644
 4569W        W 8088   7.962   2.830  11.663
 4570W        W 8089   7.331   4.390  11.407
 4571W        W 8090   4.228   0.412  11.424
 4572W        W 8091   0.086   2.860   2.611
 4573W        W 8092   3.404   9.950   0.703
 4574W        W 8093   0.016   7.602   0.070
 4575W        W 8094   5.400   6.133   2.087
 4576W        W 8095   3.061   7.259   3.448
 4577W        W 8096   7.182   5.762   1.027
 4578W        W 8097   3.328   5.963  11.044
 4579W        W 8098   4.564   0.317   1.991
 4580W        W 8099   7.573   6.631   0.105
 4581W        W 8100   6.831   0.661   1.835
 4582W        W 8101   2.689   4.946   2.053
 4583W        W 8102   8.289   4.085   9.275
 4584W        W 8103   3.799   0.569   9.800
 4585W        W 8104   3.409   5.130   2.846
 4586W        W 8105   7.023   4.386   8.812
 4587W        W 8106   5.750   7.033   9.362
 4588W        W 8107   5.025   0.372   9.168
 4589W        W 8108   9.955   5.431   1.432
 4590W        W 8109   4.674   8.008   2.321
 4591W        W 8110   6.484   8.899   0.713
 4592W        W 8111   1.962   9.481   8.480
 4593W        W 8112   9.681   0.448   8.319
 4594W        W 8113   3.221   2.895  10.718
 4595W        W 8114   4.461   3.040   1.200
 4596W        W 8115   2.734   4.546   8.974
 4597W        W 8116   2.674   4.228  11.405
 4598W        W 8117   8.861   0.534   0.029
 4599W        W 8118   8.093   4.826   1.144
 4600W        W 8119   2.002   8.858  10.243
 4601W        W 8120   9.770   9.844   1.503
 4602W        W 8121   0.398   6.136   2.206
 4603W        W 8122   0.529   2.126  10.583
 4604W        W 8123   4.560   4.336   3.239
 4605W        W 8124   8.422   7.036   1.493
 4606W        W 8125   4.082   2.269   1.318
 4607W        W 8126   7.500   0.169   3.345
 4608W        W 8127   5.997   2.031   0.032
 4609W        W 8128   3.339   8.642   3.048
 4610W        W 8129   3.702   9.905  10.906
 4611W        W 8130   3.619   6.877  10.704
 4612W        W 8131   7.122   6.501  11.421
 4613W        W 8132   9.059   5.154   0.687
 4614W        W 8133   5.230   7.596  11.189
 4615W        W 8134   1.408   4.497  11.275
 4616W        W 8135   3.721   6.395  11.404
 4617W        W 8136   4.036   5.776   3.607
 4618W        W 8137   6.279   0.893   3.584
 4619W        W 8138   5.700   2.712   0.743
 4620W        W 8139   2.016   1.256  11.407
 4621W        W 8140   3.295   8.545   0.022
 4622W        W 8141   9.514   4.221   9.417
 4623W        W 8142   0.043   5.688   1.877
 4624W        W 8143   2.463   3.357  11.084
 4625W        W 8144   6.831   5.030  10.774
 4626W        W 8145   2.310   7.201   1.536
 4627W        W 8146   4.627   9.169   8.891
 4628W        W 8147   0.391   7.597   9.694
 4629W        W 8148   9.561   6.364  10.143
 4630W        W 8149   6.734   0.257   8.998
 4631W        W 8150   1.752   4.530   3.164
 4632W        W 8151   0.142   6.586   3.525
 4633W        W 8152   5.927   2.450   0.299
 4634W        W 8153   9.547   8.023   1.484
 4635W        W 8154   3.739   2.831  10.789
 4636W        W 8155   4.260   6.131  10.656
 4637W        W 8156   6.874   3.899   8.909
 4638W        W 8157   0.937   7.955   2.621
 4639W        W 8158   1.902   4.164   2.411
 4640W        W 8159   5.982   1.172  11.778
 4641W        W 8160   6.472   3.485  10.036
 4642W        W 8161   3.328   6.430   3.621
 4643W        W 8162   7.570   4.148   1.106
 4644W        W 8163   0.772   6.637   2.674
 4645W        W 8164   8.578   8.431   2.416
 4646W        W 8165   5.784   7.458  11.186
 4647W        W 8166   5.660   9.484   0.676
 4648W        W 8167   0.029   4.891   0.156
 4649W        W 8168   7.923   6.897   0.346
 4650W        W 8169   1.032   1.309   8.685
 4651W        W 8170   3.274   1.702  11.604
 4652W        W 8171   6.525   8.822  10.968
 4653W        W 8172   8.537   4.474   0.933
 4654W        W 8173   3.025   3.185   8.307
 4655W        W 8174   2.087   6.621   2.172
 4656W        W 8175   8.105   2.362  11.440
 4657W        W 8176   5.562   6.746   1.587
 4658W        W 8177   3.197   2.290  10.133
 4659W        W 8178   0.205   0.641   2.010
 4660W        W 8179   5.209   8.105  11.091
 4661W        W 8180   1.840   6.066   9.936
 4662W        W 8181   7.818   9.897  10.380
 4663W        W 8182   6.513   4.881   9.893
 4664W        W 8183   0.884   6.473   0.484
 4665W        W 8184   2.014   7.617   1.494
 4666W        W 8185   4.179   6.245   3.524
 4667W        W 8186   6.387   6.823   3.619
 4668W        W 8187   9.663   6.674  11.303
 4669W        W 8188   6.545   3.100   9.239
 4670W        W 8189   2.003   3.694   2.200
 4671W        W 8190   7.052   0.346   2.244
 4672W        W 8191   4.765   9.873  11.602
 4673W        W 8192   4.469   6.872  11.786
 4674W        W 8193   4.823   7.408  10.916
 4675W        W 8194   0.411   1.949   2.322
 4676W        W 8195   7.450   4.236   2.104
 4677W        W 8196   0.387   6.403  10.637
 4678W        W 8197   9.019   8.159  11.265
 4679W        W 8198   3.885   9.080  10.981
 4680W        W 8199   1.823   4.024   9.333
 4681W        W 8200   0.853   4.036   0.691
 4682W        W 8201   9.233   8.912  10.623
 4683W        W 8202   0.201   7.605   2.334
 4684W        W 8203   0.630   3.013   2.840
 4685W        W 8204   7.567   9.587   3.692
 4686W        W 8205   4.786   2.750   1.841
 4687W        W 8206   8.181   4.898  10.540
 4688W        W 8207   0.372   2.137   1.816
 4689W        W 8208   3.052   6.085   9.017
 4690W        W 8209   4.019   3.750   0.360
 4691W        W 8210   3.956   7.073   8.520
 4692W        W 8211   5.088   9.426   9.578
 4693W        W 8212   0.653   2.575  11.882
 4694W        W 8213   6.081   7.814   0.106
 4695W        W 8214   4.173   4.064   8.844
 4696W        W 8215   0.504   1.995   3.379
 4697W        W 8216   3.354   9.807  11.805
 4698W        W 8217   2.893   5.165   2.797
 4699W        W 8218   3.094   1.271   9.341
 4700W        W 8219   8.902   7.168  10.966
 4701W        W 8220   8.411   0.283   1.772
 4702W        W 8221   4.622   2.460   9.582
 4703W        W 8222   9.356   9.069   2.061
 4704W        W 8223   5.546   2.840   9.997
 4705W        W 8224   9.586   8.210   2.555
 4706W        W 8225   8.964   9.299   1.861
 4707W        W 8226   8.783   1.161   1.376
 4708W        W 8227   9.057   3.161   3.362
 4709W        W 8228   7.539   6.375   2.828
 4710W        W 8229   4.564   9.575  11.242
 4711W        W 8230   9.757   0.420   0.011
 4712W        W 8231   4.749   4.395   2.315
 4713W        W 8232   6.868   3.630   0.390
 4714W        W 8233   4.183   4.696   3.145
 4715W        W 8234   4.679   5.733   1.106
 4716W        W 8235   7.607   8.000   0.952
 4717W        W 8236   6.943   8.989   2.747
 4718W        W 8237   5.843   0.283  10.825
 4719W        W 8238   1.751   0.114   0.792
 4720W        W 8239   3.373   1.459   0.675
 4721W        W 8240   4.002   7.593  11.803
 4722W        W 8241   3.899   8.993   9.419
 4723W        W 8242   2.633   1.631  10.169
 4724W        W 8243   6.223   8.624   9.565
 4725W        W 8244   0.978   3.667  11.023
 4726W        W 8245   1.888   7.465  10.785
 4727W        W 8246   7.953   8.179   3.141
 4728W        W 8247   7.924   1.015   8.894
 4729W        W 8248   8.435   5.953   8.787
 4730W        W 8249   3.360   1.182  11.775
 4731W        W 8250   6.965   1.119   3.533
 4732W        W 8251   6.716   0.733   2.341
 4733W        W 8252   1.023   2.092   3.405
 4734W        W 8253   4.088   4.815  10.588
 4735W        W 8254   8.059   4.920   1.660
 4736W        W 8255   5.496   0.661   9.219
 4737W        W 8256   7.922   0.279   2.015
 4738W        W 8257   2.125   5.136   8.609
 4739W        W 8258   0.724   8.886  11.973
 4740W        W 8259   1.005   4.986  11.087
 4741W        W 8260   3.957   9.366   0.585
 4742W        W 8261   7.123   6.054   0.208
 4743W        W 8262   4.762   9.842   0.118
 4744W        W 8263   3.205   9.946  11.342
 4745W        W 8264   3.326   4.591  11.983
 4746W        W 8265   5.075   2.397   3.073
 4747W        W 8266   6.175   1.925   2.117
 4748W        W 8267   0.018   4.142   3.115
 4749W        W 8268   1.387   7.459   3.418
 4750W        W 8269   9.898   2.052   0.497
 4751W        W 8270   8.087   8.200   0.871
 4752W        W 8271   9.975   3.137  11.434
 4753W        W 8272   5.019   3.132   8.557
 4754W        W 8273   8.276   0.035   3.413
 4755W        W 8274   5.548   3.823   8.891
 4756W        W 8275   0.841   1.703   0.268
 4757W        W 8276   9.451   0.875   0.614
 4758W        W 8277   3.732   6.511   0.435
 4759W        W 8278   4.926   5.650  10.163
 4760W        W 8279   8.470   5.987  11.244
 4761W        W 8280   4.976   4.776  10.228
 4762W        W 8281   9.889   0.272   9.987
 4763W        W 8282   1.296   5.492   1.311
 4764W        W 8283   8.824   7.294   1.265
 4765W        W 8284   1.871   9.349   0.103
 4766W        W 8285   4.867   0.028   2.749
 4767W        W 8286   6.406   2.634   0.202
 4768W        W 8287   0.852   9.073   1.702
 4769W        W 8288   6.311   2.203   0.510
 4770W        W 8289   2.031   9.925   1.217
 4771W        W 8290   9.935   2.155  11.988
 4772W        W 8291   6.682   0.209   2.609
 4773W        W 8292   7.620   5.133   1.530
 4774W        W 8293   1.656   1.170   0.737
 4775W        W 8294   0.972   9.266  11.609
 4776W        W 8295   9.462   5.848  10.091
 4777W        W 8296   1.733   0.659   0.839
 4778W        W 8297   7.063   8.184   3.668
 4779W        W 8298   0.779   3.682   9.336
 4780W        W 8299   5.024   3.435  10.051
 4781W        W 8300   8.479   7.487   3.360
 4782W        W 8301   8.707   0.202   1.366
 4783W        W 8302   5.974   2.329   1.854
 4784W        W 8303   7.257   9.458   2.308
 4785W        W 8304   4.058   6.717   2.330
 4786W        W 8305   0.258   0.935   2.464
 4787W        W 8306   3.144   2.326   0.318
 4788W        W 8307   0.649   3.821   9.814
 4789W        W 8308   6.013   4.594   0.838
 4790W        W 8309   6.811   9.469   1.415
 4791W        W 8310   3.494   7.320   3.144
 4792W        W 8311   8.523   4.838  11.862
 4793W        W 8312   4.076   6.538  10.087
 4794W        W 8313   2.026   2.747   3.485
 4795W        W 8314   0.844   0.487  10.321
 4796W        W 8315   2.310   1.919   2.083
 4797W        W 8316   7.565   3.376  10.065
 4798W        W 8317   8.491   4.127  10.797
 4799W        W 8318   9.892   7.236   2.440
 4800W        W 8319   8.497   8.972   0.653
 4801W        W 8320   7.640   9.001  10.005
 4802W        W 8321   8.509   0.760   2.164
 4803W        W 8322   1.224   1.973   2.546
 4804W        W 8323   8.989   3.600  11.451
 4805W        W 8324   9.877   4.546   1.732
 4806W        W 8325   2.062   4.625   4.119
 4807W        W 8326   0.512   1.628   1.872
 4808W        W 8327   9.081   2.608   1.518
 4809W        W 8328   8.741   1.925   0.819
 4810W        W 8329   6.659   6.322   8.046
 4811W        W 8330   4.703   0.820   0.202
 4812W        W 8331   5.891   0.890  10.892
 4813W        W 8332   3.913   7.956   1.064
 4814W        W 8333   1.658   1.673   0.601
 4815W        W 8334   5.905   7.987   8.899
 4816W        W 8335   0.702   1.054   2.700
 4817W        W 8336   8.990   0.617   0.687
 4818W        W 8337   0.373   9.504   3.561
 4819W        W 8338   6.311   1.154   9.205
 4820W        W 8339   2.515   6.380   2.119
 4821W        W 8340   8.517   4.232   9.746
 4822W        W 8341   2.723   2.399   2.590
 4823W        W 8342   5.251   9.175   3.551
 4824W        W 8343   1.621   6.602   9.225
 4825W        W 8344   5.169   1.570   0.971
 4826W        W 8345   8.346   6.225   9.239
 4827W        W 8346   0.307   3.072   9.145
 4828W        W 8347   7.458   9.983   2.314
 4829W        W 8348   4.866   0.139  10.944
 4830W        W 8349   3.984   7.511   0.764
 4831W        W 8350   5.655   2.029   8.717
 4832W        W 8351   3.564   2.166   1.306
 4833W        W 8352   8.086   6.707   0.796
 4834W        W 8353   5.799   1.934   9.607
 4835W        W 8354   3.707   1.032   9.584
 4836W        W 8355   4.773   8.896  11.936
 4837W        W 8356   3.189   3.374   0.439
 4838W        W 8357   4.746   4.424   1.717
 4839W        W 8358   2.940   4.741   9.948
 4840W        W 8359   5.679   8.810  10.568
 4841W        W 8360   4.898   4.866   1.509
 4842W        W 8361   9.529   1.373   9.109
 4843W        W 8362   2.295   9.485   2.580
 4844W        W 8363   9.378   2.776   8.983
 4845W        W 8364   6.459   3.820  11.530
 4846W        W 8365   9.294   7.714   1.807
 4847W        W 8366   7.483   8.621   3.261
 4848W        W 8367   8.962   2.296   0.542
 4849W        W 8368   6.140   6.217  11.545
 4850W        W 8369   0.691   7.785   1.028
 4851W        W 8370   0.395   7.119   0.256
 4852W        W 8371   6.427   2.034  11.551
 4853W        W 8372   1.270   0.963   1.000
 4854W        W 8373   8.949   0.367   1.796
 4855W        W 8374   5.368   2.828   8.283
 4856W        W 8375   9.359   5.963   8.718
 4857W        W 8376   9.525   9.036   1.574
 4858W        W 8377   1.350   8.779   9.011
 4859W        W 8378   8.010   3.668  11.448
 4860W        W 8379   3.418   6.035  11.607
 4861W        W 8380   3.563   5.525   2.252
 4862W        W 8381   1.030   7.432  11.190
 4863W        W 8382   4.415   9.127   0.658
 4864W        W 8383   0.655   9.997  11.211
 4865W        W 8384   1.612   6.771  11.475
 4866W        W 8385   1.782   0.352   1.250
 4867W        W 8386   3.963   6.786  11.084
 4868W        W 8387   2.271   9.161   9.896
 4869W        W 8388   7.103   7.178  10.956
 4870W        W 8389   1.363   5.818   0.368
 4871W        W 8390   8.181   6.508   2.681
 4872W        W 8391   7.103   2.385  10.352
 4873W        W 8392   1.199   1.714   3.033
 4874W        W 8393   4.026   2.863   1.450
 4875W        W 8394   2.809   2.042  10.427
 4876W        W 8395   2.675   7.308   2.354
 4877W        W 8396   2.851   9.907   3.122
 4878W        W 8397   3.464   1.262   2.140
 4879W        W 8398   5.014   5.280  11.377
 4880W        W 8399   4.960   6.535   1.163
 4881W        W 8400   8.628   9.701   3.570
 4882W        W 8401   0.429   8.970   3.335
 4883W        W 8402   1.691   8.443  10.187
 4884W        W 8403   8.101   1.151  11.923
 4885W        W 8404   0.143   5.280   2.167
 4886W        W 8405   3.663   2.325   9.938
 4887W        W 8406   7.572   4.382  10.965
 4888W        W 8407   6.560   0.489   0.755
 4889W        W 8408   4.095   9.577  11.015
 4890W        W 8409   8.447   2.252   0.249
 4891W        W 8410   4.631   0.926  11.264
 4892W        W 8411   7.685   1.825   9.062
 4893W        W 8412   5.383   5.934   2.857
 4894W        W 8413   5.808   4.331  10.042
 4895W        W 8414   4.381   6.683  11.338
 4896W        W 8415   9.987   7.334   0.538
 4897W        W 8416   6.452   0.375   0.264
 4898W        W 8417   9.063   9.202   9.780
 4899W        W 8418   5.590   1.470  11.630
 4900W        W 8419   9.952   4.398   3.545
 4901W        W 8420   7.017   5.611   3.617
 4902W        W 8421   5.122   2.559  11.757
 4903W        W 8422   1.429   5.500   1.831
 4904W        W 8423   6.916   6.150  11.074
 4905W        W 8424   2.242   4.887   0.488
 4906W        W 8425   5.214   3.763   9.689
 4907W        W 8426   9.788   8.973  10.313
 4908W        W 8427   6.599   6.544  11.479
 4909W        W 8428   2.875   0.242   8.851
 4910W        W 8429   1.856   4.247   0.015
 4911W        W 8430   0.976   0.577  11.193
 4912W        W 8431   2.984   2.762   9.477
 4913W        W 8432   6.815   3.381   1.242
 4914W        W 8433   7.253   8.532  10.375
 4915W        W 8434   8.407   1.942   9.766
 4916W        W 8435   7.267   7.611   9.095
 4917W        W 8436   1.267   8.062   9.706
 4918W        W 8437   1.385   5.051  10.024
 4919W        W 8438   2.205   1.272   9.008
 4920W        W 8439   0.173   2.746   0.951
 4921W        W 8440   0.199   8.051   3.234
 4922W        W 8441   1.967   5.524   3.518
 4923W        W 8442   3.431   9.099  11.249
 4924W        W 8443   9.006   5.608   9.967
 4925W        W 8444   0.921   9.371   2.858
 4926W        W 8445   5.127   6.658   9.081
 4927W        W 8446   9.941   8.569   2.369
 4928W        W 8447   4.371   7.303   3.629
 4929W        W 8448   2.789   8.202   0.669
 4930W        W 8449   5.658   7.630   3.202
 4931W        W 8450   0.749   8.554   3.221
 4932W        W 8451   4.739   1.351   2.445
 4933W        W 8452   3.773   5.110   2.454
 4934W        W 8453   8.962   8.769   0.502
 4935W        W 8454   2.898   5.569   0.440
 4936W        W 8455   8.478   9.426   1.907
 4937W        W 8456   3.696   7.148   0.993
 4938W        W 8457   7.662   8.449   0.675
 4939W        W 8458   4.195   8.053  11.741
 4940W        W 8459   0.463   2.165   9.003
 4941W        W 8460   5.022   5.897   9.353
 4942W        W 8461   1.145   7.476   1.988
 4943W        W 8462   4.163   9.839   9.143
 4944W        W 8463   0.419   6.695   3.088
 4945W        W 8464   7.999   6.053  11.341
 4946W        W 8465   3.535   5.136  11.347
 4947W        W 8466   3.838   0.989   1.727
 4948W        W 8467   8.450   2.513   2.896
 4949W        W 8468   6.243   8.501   2.967
 4950W        W 8469   3.912   8.629   2.571
 4951W        W 8470   2.176   8.653   1.283
 4952W        W 8471   5.599   5.093   2.626
 4953W        W 8472   7.112   7.360   2.023
 4954W        W 8473   1.488   3.326   0.527
 4955W        W 8474   8.493   1.112  11.232
 4956W        W 8475   9.095   3.470   2.439
 4957W        W 8476   9.540   9.508   0.429
 4958W        W 8477   6.638   2.686   2.295
 4959W        W 8478   9.902   8.447   1.861
 4960W        W 8479   4.565   9.821   3.558
 4961W        W 8480   4.632   1.939   2.291
 4962W        W 8481   6.218   7.832   2.179
 4963W        W 8482   3.118   4.333  10.182
 4964W        W 8483   4.523   6.367   8.621
 4965W        W 8484   1.415   5.345  10.588
 4966W        W 8485   1.291   9.769   9.026
 4967W        W 8486   7.151   2.036   9.568
 4968W        W 8487   2.043   5.603  10.059
 4969W        W 8488   4.109   5.612  10.903
 4970W        W 8489   5.356   3.419   1.292
 4971W        W 8490   3.684   8.556   0.370
 4972W        W 8491   7.798   2.154   1.735
 4973W        W 8492   2.367   3.324  10.580
 4974W        W 8493   4.069   3.177   3.437
 4975W        W 8494   2.715   3.777   1.432
 4976W        W 8495   5.009   8.193   2.924
 4977W        W 8496   8.925   2.738  11.724
 4978W        W 8497   6.060   9.068   2.271
 4979W        W 8498   3.232   5.161  10.919
 4980W        W 8499   8.798   4.967   2.633
 4981W        W 8500   5.783   5.461  11.472
 4982W        W 8501   0.822   3.751   2.124
 4983W        W 8502   9.723   1.908  10.290
 4984W        W 8503   6.587   6.535   9.579
 4985W        W 8504   6.359   0.244  10.248
 4986W        W 8505   1.676   7.900   9.463
 4987W        W 8506   1.637   0.278  11.853
 4988W        W 8507   8.972   6.865   9.940
 4989W        W 8508   8.963   8.268  11.838
 4990W        W 8509   3.769   1.151   2.565
 4991W        W 8510   7.449   6.165   4.172
 4992W        W 8511   5.224   4.155   0.824
 4993W        W 8512   0.484   9.631   3.059
 4994W        W 8513   8.639   9.964  10.175
 4995W        W 8514   6.427   7.092   1.193
 4996W        W 8515   1.762   7.584   0.295
 4997W        W 8516   6.274   1.925   9.814
 4998W        W 8517   7.139   2.321   0.067
 4999W        W 8518   0.920   3.391  11.461
 5000W        W 8519   1.515   9.747   3.429
 5001W        W 8520   1.728   5.927   1.752
 5002W        W 8521   1.701   1.760   0.073
 5003W        W 8522   7.613   6.852   1.700
 5004W        W 8523   7.118   0.733  10.295
 5005W        W 8524   8.198   5.883   2.028
 5006W        W 8525   9.812   7.188  10.355
 5007W        W 8526   9.737   6.195   1.075
 5008W        W 8527   6.053   5.130   2.874
 5009W        W 8528   3.760   6.685   1.771
 5010W        W 8529   8.307   3.204  10.454
 5011W        W 8530   5.837   4.464  11.196
 5012W        W 8531   8.034   1.867   9.432
 5013W        W 8532   1.362   7.594  10.467
 5014W        W 8533   1.222   8.723   1.594
 5015W        W 8534   1.417   5.403   0.658
 5016W        W 8535   7.419   8.068  10.504
 5017W        W 8536   3.610   9.583  11.319
 5018W        W 8537   8.756   2.142  10.090
 5019W        W 8538   9.494   6.008   2.542
 5020W        W 8539   0.336   8.420   1.603
 5021W        W 8540   0.791   5.319   1.234
 5022W        W 8541   6.715   1.387   0.407
 5023W        W 8542   5.326   0.249   2.699
 5024W        W 8543   4.631   8.782  10.976
 5025W        W 8544   0.311   2.439   2.444
 5026W        W 8545   2.100   3.582   9.477
 5027W        W 8546   9.383   4.994   1.034
 5028W        W 8547   5.932   6.078   0.065
 5029W        W 8548   0.464   3.660   1.767
 5030W        W 8549   1.807   7.185   1.316
 5031W        W 8550   0.172   7.231   1.347
 5032W        W 8551   1.092   0.219  11.965
 5033W        W 8552   4.197   0.843   2.901
 5034W        W 8553   7.979   7.192   1.651
 5035W        W 8554   6.917   6.123   4.159
 5036W        W 8555   2.557   5.133   3.212
 5037W        W 8556   3.079   4.420   8.224
 5038W        W 8557   9.191   2.249   3.209
 5039W        W 8558   5.172   2.522   0.739
 5040W        W 8559   6.844   6.995   3.787
 5041W        W 8560   0.722   5.294  10.740
 5042W        W 8561   5.120   1.058   2.808
 5043W        W 8562   4.867   6.737   3.916
 5044W        W 8563   0.150   3.470   0.705
 5045W        W 8564   7.988   4.254  10.192
 5046W        W 8565   5.252   6.928   9.516
 5047W        W 8566   8.098   3.476   2.264
 5048W        W 8567   6.457   9.716  11.449
 5049W        W 8568   5.840   9.990   8.909
 5050W        W 8569   9.368   6.898   2.083
 5051W        W 8570   9.234   7.888   2.342
 5052W        W 8571   2.091   6.936   3.473
 5053W        W 8572   4.273   6.561   1.893
 5054W        W 8573   5.401   2.295   2.625
 5055W        W 8574   6.034   5.484   1.379
 5056W        W 8575   7.125   7.571  11.637
 5057W        W 8576   1.001   0.019   1.808
 5058W        W 8577   7.310   6.062   9.057
 5059W        W 8578   8.739   9.400   3.172
 5060W        W 8579   3.878   8.963  11.468
 5061W        W 8580   9.562   7.498   0.292
 5062W        W 8581   1.913   6.446  10.859
 5063W        W 8582   1.314   9.855  10.575
 5064W        W 8583   7.878   9.270   9.552
 5065W        W 8584   8.354   6.290   0.868
 5066W        W 8585   3.176   8.062   2.311
 5067W        W 8586   5.887   1.016  10.397
 5068W        W 8587   1.649   2.756   1.216
 5069W        W 8588   2.689   9.355   9.291
 5070W        W 8589   3.307   4.617   9.618
 5071W        W 8590   5.171   7.834   2.570
 5072W        W 8591   2.277   6.001   3.458
 5073W        W 8592   6.574   9.264  10.404
 5074W        W 8593   6.469   2.436   2.746
 5075W        W 8594   1.309   8.484   2.358
 5076W        W 8595   6.481   5.227   2.558
 5077W        W 8596   0.851   4.419   3.221
 5078W        W 8597   5.863   4.926   2.197
 5079W        W 8598   7.841   2.601   9.903
 5080W        W 8599   6.077   9.458  10.342
 5081W        W 8600   7.863   3.468  10.469
 5082W        W 8601   2.493   2.566   3.354
 5083W        W 8602   9.583   6.762   0.243
 5084W        W 8603   7.724   5.604   2.469
 5085W        W 8604   3.470   0.933   3.514
 5086W        W 8605   9.458   4.360   0.062
 5087W        W 8606   5.743   8.545   2.990
 5088W        W 8607   8.401   7.100   1.991
 5089W        W 8608   8.707   9.262   2.332
 5090W        W 8609   3.566   8.275   2.775
 5091W        W 8610   8.727   2.907   9.609
 5092W        W 8611   3.190   2.968   0.856
 5093W        W 8612   4.828   0.380   9.678
 5094W        W 8613   3.739   7.262  11.073
 5095W        W 8614   4.432   5.494  10.058
 5096W        W 8615   3.552   8.236   1.312
 5097W        W 8616   3.734   5.423   9.429
 5098W        W 8617   1.226   1.959   0.828
 5099W        W 8618   4.253   2.314   9.247
 5100W        W 8619   1.974   1.040   3.084
 5101W        W 8620   9.717   3.589  11.460
 5102W        W 8621   4.542   5.583   0.178
 5103W        W 8622   3.805   8.143  11.413
 5104W        W 8623   8.759   7.048   0.276
 5105W        W 8624   1.115   3.371   3.412
 5106W        W 8625   0.755   0.873   8.592
 5107W        W 8626   9.503   9.407   9.624
 5108W        W 8627   4.013   0.986   3.388
 5109W        W 8628   7.949   8.750   3.047
 5110W        W 8629   7.567   4.379   9.950
 5111W        W 8630   0.516   3.023   0.651
 5112W        W 8631   8.123   6.234   3.619
 5113W        W 8632   0.406   3.334   9.578
 5114W        W 8633   0.907   2.226   8.755
 5115W        W 8634   5.552   8.297   8.704
 5116W        W 8635   1.523   7.493   2.825
 5117W        W 8636   5.824   8.913   9.685
 5118W        W 8637   3.202   4.711   9.102
 5119W        W 8638   8.409   5.711   1.560
 5120W        W 8639   3.986   4.682   2.625
 5121W        W 8640   2.206   6.226   0.434
 5122W        W 8641   6.785   0.584  11.441
 5123W        W 8642   2.917   8.959   0.087
 5124W        W 8643   1.367   0.633   0.087
 5125W        W 8644   9.845   4.832   2.186
 5126W        W 8645   6.264   5.609   2.882
 5127W        W 8646   3.471   0.585   0.303
 5128W        W 8647   2.133   9.198   1.570
 5129W        W 8648   8.629   2.274   1.467
 5130W        W 8649   9.482   5.342  11.420
 5131W        W 8650   4.162   0.844   1.375
 5132W        W 8651   8.449   3.543   0.684
 5133W        W 8652   7.290   0.638   1.568
 5134W        W 8653   9.032   5.867   2.290
 5135W        W 8654   8.577   9.666   0.253
 5136W        W 8655   5.938   3.004   8.812
 5137W        W 8656   0.044   5.476   9.881
 5138W        W 8657   1.044   0.344   9.868
 5139W        W 8658   3.198   6.706   8.302
 5140W        W 8659   8.252   0.633   3.171
 5141W        W 8660   4.500   3.217   0.693
 5142W        W 8661   2.716   5.529  10.981
 5143W        W 8662   1.693   3.163  11.334
 5144W        W 8663   2.141   0.402  11.959
 5145W        W 8664   7.940   3.009   2.255
 5146W        W 8665   5.752   9.912   2.306
 5147W        W 8666   3.529   2.669   1.460
 5148W        W 8667   9.638   9.966   0.236
 5149W        W 8668   8.310   5.101   9.947
 5150W        W 8669   6.172   9.017  10.635
 5151W        W 8670   5.892   6.386  11.105
 5152W        W 8671   0.441   1.553   0.010
 5153W        W 8672   6.177   4.691   0.028
 5154W        W 8673   6.262   4.144   0.686
 5155W        W 8674   9.444   9.309   8.670
 5156W        W 8675   9.417   7.094  11.166
 5157W        W 8676   5.670   1.434   0.589
 5158W        W 8677   4.206   5.060   9.856
 5159W        W 8678   7.713   4.799   9.033
 5160W        W 8679   1.316   7.130   0.155
 5161W        W 8680   2.394   5.254   2.753
 5162W        W 8681   5.401   4.902  10.463
 5163W        W 8682   9.424   5.520   0.710
 5164W        W 8683   2.321   7.854   1.821
 5165W        W 8684   6.703   1.430   8.564
 5166W        W 8685   4.249   6.402   2.744
 5167W        W 8686   6.920   8.732  10.046
 5168W        W 8687   4.295   8.911   2.393
 5169W        W 8688   0.748   6.108  11.827
 5170W        W 8689   9.804   4.626  10.016
 5171W        W 8690   7.662   1.017   2.357
 5172W        W 8691   6.046   2.852   2.114
 5173W        W 8692   7.914   9.422  11.671
 5174W        W 8693   3.705   1.992   2.806
 5175W        W 8694   2.825   5.099  11.267
 5176W        W 8695   3.901   4.168   3.799
 5177W        W 8696   9.005   9.863   1.615
 5178W        W 8697   8.960   8.080  10.757
 5179W        W 8698   8.420   5.198   2.291
 5180W        W 8699   4.497   4.235   9.713
 5181W        W 8700   8.823   3.731   2.080
 5182W        W 8701   5.947   6.953  11.907
 5183W        W 8702   1.089   5.006   0.444
 5184W        W 8703   1.876   7.665  11.265
 5185W        W 8704   3.812   2.996   2.402
 5186W        W 8705   2.948   8.882   3.283
 5187W        W 8706   5.645   7.079   4.031
 5188W        W 8707   5.561   2.644   2.987
 5189W        W 8708   1.728   0.142   2.596
 5190W        W 8709   0.542   3.499   8.928
 5191W        W 8710   8.048   1.188   2.644
 5192W        W 8711   7.653   9.759  10.935
 5193W        W 8712   5.053   3.465   4.076
 5194W        W 8713   3.897   9.887   0.513
 5195W        W 8714   6.983   9.024   9.214
 5196W        W 8715   2.138   3.806   2.705
 5197W        W 8716   7.404   3.625   0.463
 5198W        W 8717   0.005   5.947   1.423
 5199W        W 8718   9.620   1.445   1.670
 5200W        W 8719   6.871   9.843   3.126
 5201W        W 8720   7.881   7.676   1.731
 5202W        W 8721   6.419   7.303  11.003
 5203W        W 8722   1.672   5.407   8.722
 5204W        W 8723   1.813   5.511   1.443
 5205W        W 8724   9.750   8.047   9.058
 5206W        W 8725   1.534   0.177   9.764
 5207W        W 8726   0.690   7.292   1.225
 5208W        W 8727   2.403   4.719   9.796
 5209W        W 8728   2.060   4.070   0.476
 5210W        W 8729   7.248   5.567   8.970
 5211W        W 8730   9.752   0.836  10.812
 5212W        W 8731   8.032   6.119  10.064
 5213W        W 8732   2.221   4.238  10.551
 5214W        W 8733   3.943   5.425  11.420
 5215W        W 8734   1.371   8.422   0.638
 5216W        W 8735   5.539   1.831  10.049
 5217W        W 8736   8.302   2.378  10.056
 5218W        W 8737   9.539   1.424   2.171
 5219W        W 8738   3.768   2.216   0.744
 5220W        W 8739   1.769   1.548   9.105
 5221W        W 8740   3.490   6.288   8.843
 5222W        W 8741   3.019   1.853   8.646
 5223W        W 8742   9.297   6.344  11.397
 5224W        W 8743   0.168   0.624   0.226
 5225W        W 8744   4.555   2.177   2.980
 5226W        W 8745   9.824   9.404   1.805
 5227W        W 8746   8.963   5.111  11.718
 5228W        W 8747   2.200   3.739   0.873
 5229W        W 8748   3.495   1.867   9.989
 5230W        W 8749   4.623   9.545   9.328
 5231W        W 8750   6.288   3.780   1.775
 5232W        W 8751   2.269   8.365   3.153
 5233W        W 8752   7.913   2.262   2.671
 5234W        W 8753   5.283   5.075   1.231
 5235W        W 8754   4.246   5.476   9.567
 5236W        W 8755   4.187   4.578  10.147
 5237W        W 8756   9.354   9.919   1.204
 5238W        W 8757   5.516   2.339   1.064
 5239W        W 8758   2.651   0.475  10.272
 5240W        W 8759   8.493   5.494  11.275
 5241W        W 8760   4.928   7.044  11.904
 5242W        W 8761   6.011   1.775   3.196
 5243W        W 8762   3.964   0.351   0.318
 5244W        W 8763   9.063   5.410   1.126
 5245W        W 8764   1.661   6.179  11.219
 5246W        W 8765   0.417   3.028  11.706
 5247W        W 8766   9.101   9.486   9.315
 5248W        W 8767   3.086   0.401   2.500
 5249W        W 8768   5.007   6.313   3.192
 5250W        W 8769   6.513   3.635   9.222
 5251W        W 8770   1.517   2.926   3.570
 5252W        W 8771   1.679   8.075  10.993
 5253W        W 8772   3.205   5.620  10.686
 5254W        W 8773   8.593   3.380   2.374
 5255W        W 8774   1.382   6.971   1.128
 5256W        W 8775   9.189   4.230   1.990
 5257W        W 8776   1.182   3.100   1.682
 5258W        W 8777   4.154   9.313   9.062
 5259W        W 8778   8.298   7.505   1.275
 5260W        W 8779   3.472   8.184   9.368
 5261W        W 8780   3.044   5.767   8.369
 5262W        W 8781   5.694   6.437   3.686
 5263W        W 8782   6.781   4.030  11.856
 5264W        W 8783   0.719   7.049   1.815
 5265W        W 8784   7.677   5.631   0.435
 5266W        W 8785   2.159   0.906   0.040
 5267W        W 8786   0.048   2.832  10.858
 5268W        W 8787   8.627   9.409   8.860
 5269W        W 8788   5.957   4.035   2.090
 5270W        W 8789   7.641   6.520   0.593
 5271W        W 8790   2.690   7.720   2.689
 5272W        W 8791   5.729   9.436   2.117
 5273W        W 8792   1.344   6.131  10.045
 5274W        W 8793   1.180   6.712  11.825
 5275W        W 8794   3.175   6.683   8.831
 5276W        W 8795   2.566   5.760   2.748
 5277W        W 8796   3.433   8.006   8.868
 5278W        W 8797   8.077   5.660  10.974
 5279W        W 8798   9.336   6.154   9.194
 5280W        W 8799   4.957   1.826   0.224
 5281W        W 8800   7.652   7.321   2.803
 5282W        W 8801   2.712   4.274  11.920
 5283W        W 8802   8.825   3.881   2.618
 5284W        W 8803   4.930   9.217  11.014
 5285W        W 8804   0.250   8.546   3.105
 5286W        W 8805   6.496   4.136   2.116
 5287W        W 8806   4.027   4.362  11.503
 5288W        W 8807   1.419   9.736   1.784
 5289W        W 8808   8.366   3.018   2.656
 5290W        W 8809   3.307   1.876   1.668
 5291W        W 8810   8.434   3.042   8.492
 5292W        W 8811   8.428   4.450   1.841
 5293W        W 8812   7.479   6.435   8.727
 5294W        W 8813   0.745   4.504   1.403
 5295W        W 8814   1.142   8.037  10.208
 5296W        W 8815   2.238   2.932  10.930
 5297W        W 8816   4.289   3.657  11.091
 5298W        W 8817   3.532   0.100   0.179
 5299W        W 8818   5.168   4.116  11.084
 5300W        W 8819   4.517   1.354  11.545
 5301W        W 8820   9.137   2.207   9.679
 5302W        W 8821   1.846   6.235   8.913
 5303W        W 8822   5.476   3.331   9.853
 5304W        W 8823   6.646   2.729  10.963
 5305W        W 8824   6.066   4.956   0.462
 5306W        W 8825   3.208   1.219   3.101
 5307W        W 8826   5.008   8.547   9.534
 5308W        W 8827   0.718   1.676  10.353
 5309W        W 8828   8.830   3.245   0.477
 5310W        W 8829   8.110   9.807   2.822
 5311W        W 8830   9.876   3.398  10.983
 5312W        W 8831   9.989   8.827   1.505
 5313W        W 8832   1.157   8.014  10.730
 5314W        W 8833   0.841   8.394  11.099
 5315W        W 8834   3.630   0.063   1.983
 5316W        W 8835   3.224   1.990  10.869
 5317W        W 8836   4.093   0.901   9.010
 5318W        W 8837   0.057   1.007  10.435
 5319W        W 8838   4.094   5.799  10.320
 5320W        W 8839   9.738   6.980   1.462
 5321W        W 8840   4.319   1.161   0.467
 5322W        W 8841   1.608   7.230  11.242
 5323W        W 8842   8.386   0.261   2.289
 5324W        W 8843   6.109   6.418   0.449
 5325W        W 8844   9.025   2.169   1.774
 5326W        W 8845   8.206   1.948  11.756
 5327W        W 8846   4.999   4.345  11.525
 5328W        W 8847   0.295   2.354   0.303
 5329W        W 8848   2.050   2.094   3.698
 5330W        W 8849   4.762   5.572   9.650
 5331W        W 8850   3.706   9.523   1.523
 5332W        W 8851   9.201   1.890  11.909
 5333W        W 8852   3.878   6.287   4.323
 5334W        W 8853   2.673   7.512   0.218
 5335W        W 8854   1.382   0.856  11.373
 5336W        W 8855   2.703   2.936  11.254
 5337W        W 8856   2.553   8.022   9.418
 5338W        W 8857   2.202   3.470  11.896
 5339W        W 8858   9.139   7.447   0.006
 5340W        W 8859   4.607   3.160  11.670
 5341W        W 8860   3.603   7.400   0.089
 5342W        W 8861   8.123   7.586  10.702
 5343W        W 8862   8.673   6.516  10.143
 5344W        W 8863   3.834   5.667   4.064
 5345W        W 8864   0.990   9.324   9.006
 5346W        W 8865   0.868   2.608  11.110
 5347W        W 8866   4.183   6.328  11.656
 5348W        W 8867   5.085   8.787   2.213
 5349W        W 8868   6.201   4.516   8.668
 5350W        W 8869   1.736   6.668  10.399
 5351W        W 8870   6.778   8.445   0.909
 5352W        W 8871   4.591   8.394  11.882
 5353W        W 8872   8.914   4.625   1.798
 5354W        W 8873   2.349   0.806   1.721
 5355W        W 8874   4.714   5.427   9.151
 5356W        W 8875   8.369   5.803   0.695
 5357W        W 8876   2.441   0.372  11.306
 5358W        W 8877   5.744   6.827   8.317
 5359W        W 8878   7.965   9.083   3.443
 5360W        W 8879   8.962   6.678  10.841
 5361W        W 8880   5.643   2.697  10.857
 5362W        W 8881   6.549   6.546  10.610
 5363W        W 8882   3.372   7.530  10.741
 5364W        W 8883   3.199   4.304   2.412
 5365W        W 8884   7.335   9.690   3.236
 5366W        W 8885   8.538   2.338  11.756
 5367W        W 8886   8.927   1.745   9.811
 5368W        W 8887   3.524   4.924   8.667
 5369W        W 8888   2.271   2.609   9.985
 5370W        W 8889   0.871   7.580   3.518
 5371W        W 8890   8.381   0.800   2.679
 5372W        W 8891   2.971   9.972   1.004
 5373W        W 8892   1.903   0.476   9.982
 5374W        W 8893   1.253   4.630   2.385
 5375W        W 8894   5.980   3.183  11.812
 5376W        W 8895   5.114   6.081   4.113
 5377W        W 8896   5.973   2.269   0.865
 5378W        W 8897   7.594   3.557   2.972
 5379W        W 8898   2.658   2.910   0.996
 5380W        W 8899   1.455   0.739   1.866
 5381W        W 8900   2.509   1.030   0.385
 5382W        W 8901   3.263   1.456   8.880
 5383W        W 8902   1.786   4.718   9.952
 5384W        W 8903   0.050   1.710  11.736
 5385W        W 8904   6.121   6.009  10.756
 5386W        W 8905   8.226   8.566  11.399
 5387W        W 8906   1.464   0.858  10.854
 5388W        W 8907   6.866   9.066   0.423
 5389W        W 8908   0.104   4.810  11.414
 5390W        W 8909   0.434   5.861  11.300
 5391W        W 8910   2.580   1.319   1.911
 5392W        W 8911   6.675   6.355  10.108
 5393W        W 8912   6.717   3.880   0.821
 5394W        W 8913   6.682   5.229   3.656
 5395W        W 8914   6.657   9.853  10.991
 5396W        W 8915   4.519   5.810   8.769
 5397W        W 8916   2.217   5.610   2.383
 5398W        W 8917   7.021   0.715   9.513
 5399W        W 8918   0.299   3.362   2.737
 5400W        W 8919   6.533   2.256   8.644
 5401W        W 8920   6.958   6.256   0.935
 5402W        W 8921   6.159   1.859  10.292
 5403W        W 8922   9.358   9.233   0.013
 5404W        W 8923   6.784   5.845  10.221
 5405W        W 8924   2.216   4.291  10.027
 5406W        W 8925   6.676   5.818   0.821
 5407W        W 8926   8.926   5.989  11.453
 5408W        W 8927   6.520   8.078   2.985
 5409W        W 8928   6.480   0.653   1.252
 5410W        W 8929   2.955   3.274  10.955
 5411W        W 8930   2.305   9.258  10.909
 5412W        W 8931   1.267   6.210   0.643
 5413W        W 8932   7.729   2.665   3.399
 5414W        W 8933   1.664   3.277   2.371
 5415W        W 8934   1.711   1.219   2.222
 5416W        W 8935   5.602   4.450   1.122
 5417W        W 8936   2.049   6.429  11.930
 5418W        W 8937   0.871   8.860   9.196
 5419W        W 8938   8.032   5.612   9.952
 5420W        W 8939   6.948   8.241   8.573
 5421W        W 8940   5.336   1.038  11.560
 5422W        W 8941   5.053   1.707   9.950
 5423W        W 8942   9.461   1.436   2.713
 5424W        W 8943   5.974   0.518  10.402
 5425W        W 8944   8.449   9.736   2.416
 5426W        W 8945   1.211   2.541   3.299
 5427W        W 8946   9.451   6.521  10.834
 5428W        W 8947   6.065   7.975  11.218
 5429W        W 8948   2.264   7.966   2.810
 5430W        W 8949   1.282   1.315   9.132
 5431W        W 8950   5.290   1.984   9.584
 5432W        W 8951   5.720   8.090   9.397
 5433W        W 8952   6.458   2.031   3.070
 5434W        W 8953   1.168   8.968   2.583
 5435W        W 8954   3.606   5.123   3.324
 5436W        W 8955   2.633   6.320   2.632
 5437W        W 8956   9.019   4.170   9.590
 5438W        W 8957   3.385   4.764  10.181
 5439W        W 8958   2.663   9.211   2.334
 5440W        W 8959   2.289   2.175   9.589
 5441W        W 8960   2.706   7.424   0.709
 5442W        W 8961   0.209   1.721   8.908
 5443W        W 8962   5.404   1.465   2.700
 5444W        W 8963   9.202   1.811   1.019
 5445W        W 8964   5.455   1.810   0.300
 5446W        W 8965   6.129   2.312  10.536
 5447W        W 8966   1.540   8.305   9.177
 5448W        W 8967   9.184   6.654   0.684
 5449W        W 8968   0.065   4.769   8.759
 5450W        W 8969   1.897   4.699   9.115
 5451W        W 8970   9.453   2.228   0.265
 5452W        W 8971   0.581   4.664  11.408
 5453W        W 8972   7.769   9.232   1.312
 5454W        W 8973   6.542   1.303  11.008
 5455W        W 8974   0.121   2.870   9.617
 5456W        W 8975   4.773   6.459   8.187
 5457W        W 8976   2.853   6.847  10.245
 5458W        W 8977   3.203   8.755   0.478
 5459W        W 8978   3.594   7.119   2.029
 5460W        W 8979   7.975   4.165   9.692
 5461W        W 8980   2.153   8.324   1.761
 5462W        W 8981   9.420   4.793   3.448
 5463W        W 8982   9.996   3.241   9.934
 5464W        W 8983   2.655   7.168   1.142
 5465W        W 8984   0.037   4.275   0.137
 5466W        W 8985   4.356   5.434  11.734
 5467W        W 8986   8.914   4.622  11.533
 5468W        W 8987   9.585   6.593   3.217
 5469W        W 8988   4.699   3.408   2.411
 5470W        W 8989   2.266   2.781   1.882
 5471W        W 8990   1.888   9.165   0.584
 5472W        W 8991   9.091   1.740  11.417
 5473W        W 8992   5.496   5.925   0.872
 5474W        W 8993   9.810   2.521   0.683
 5475W        W 8994   9.769   5.686   8.567
 5476W        W 8995   9.964   1.059   1.773
 5477W        W 8996   0.359   1.375  10.567
 5478W        W 8997   7.653   7.560  11.667
 5479W        W 8998   2.644   8.499   1.501
 5480W        W 8999   3.969   1.368   2.111
 5481W        W 9000   6.078   8.062  10.211
 5482W        W 9001   1.205   5.150   2.170
 5483W        W 9002   7.096   1.516   9.767
 5484W        W 9003   9.962   4.268   0.792
 5485W        W 9004   1.164   4.027  10.038
 5486W        W 9005   9.849   2.275   2.612
 5487W        W 9006   5.279   5.151   9.679
 5488W        W 9007   6.042   7.943   1.482
 5489W        W 9008   8.125   5.927   0.257
 5490W        W 9009   8.975   0.898   2.032
 5491W        W 9010   4.134   8.852   9.864
 5492W        W 9011   9.516   8.423   3.706
 5493W        W 9012   9.840   1.304  11.981
 5494W        W 9013   2.039   6.495   0.863
 5495W        W 9014   5.559   4.367   8.919
 5496W        W 9015   5.114   0.171  10.038
 5497W        W 9016   9.496   3.571   2.123
 5498W        W 9017   0.880   5.617   1.802
 5499W        W 9018   8.952   7.475   3.109
 5500W        W 9019   5.742   1.815  11.251
 5501W        W 9020   0.758   2.425   1.442
 5502W        W 9021   6.105   5.756   9.581
 5503W        W 9022   5.939   1.544   8.973
 5504W        W 9023   9.831   0.890   2.770
 5505W        W 9024   6.382   3.830   8.768
 5506W        W 9025   9.435   4.438   3.838
 5507W        W 9026   8.918   7.987   9.194
 5508W        W 9027   7.087   0.962   0.281
 5509W        W 9028   3.796   9.432   3.125
 5510W        W 9029   9.945   8.148   8.586
 5511W        W 9030   1.098   7.484   2.497
 5512W        W 9031   5.107   1.920   3.321
 5513W        W 9032   8.375   6.984   3.388
 5514W        W 9033   3.130   4.409  11.552
 5515W        W 9034   4.516   3.823   0.194
 5516W        W 9035   7.454   1.306   1.981
 5517W        W 9036   0.359   5.236   8.789
 5518W        W 9037   7.372   5.691  11.974
 5519W        W 9038   9.028   0.423  11.013
 5520W        W 9039   9.028   5.823   1.459
 5521W        W 9040   3.489   1.923   0.402
 5522W        W 9041   8.346   7.091   0.534
 5523W        W 9042   4.159   7.968  10.453
 5524W        W 9043   0.011   2.219  10.006
 5525W        W 9044   8.161   0.564  10.877
 5526W        W 9045   5.198   8.721   0.769
 5527W        W 9046   7.108   1.650   0.761
 5528W        W 9047   7.868   1.144   1.700
 5529W        W 9048   6.402   4.642  10.367
 5530W        W 9049   6.900   6.251   9.311
 5531W        W 9050   0.181   7.324  10.661
 5532W        W 9051   4.179   7.327   1.465
 5533W        W 9052   9.654   2.853  10.557
 5534W        W 9053   9.740   4.944   3.817
 5535W        W 9054   9.487   5.201  10.912
 5536W        W 9055   5.299   4.473  11.917
 5537W        W 9056   8.379   9.817  11.664
 5538W        W 9057   5.256   9.737   0.847
 5539W        W 9058   0.404   9.916   8.978
 5540W        W 9059   3.767   9.762   8.499
 5541W        W 9060   6.624   4.217   8.539
 5542W        W 9061   1.502   9.381   8.764
 5543W        W 9062   6.002   5.153  11.858
 5544W        W 9063   7.740   1.595  11.168
 5545W        W 9064   7.583   5.377   9.721
 5546W        W 9065   3.469   2.526  11.418
 5547W        W 9066   7.802   8.446   1.216
 5548W        W 9067   6.114   4.215   2.539
 5549W        W 9068   4.091   7.037   1.908
 5550W        W 9069   9.348   3.877   9.822
 5551W        W 9070   5.334   0.275  10.865
 5552W        W 9071   6.653   4.693   2.211
 5553W        W 9072   5.905   8.594   2.482
 5554W        W 9073   2.375   5.729   0.467
 5555W        W 9074   5.798   4.317  11.911
 5556W        W 9075   4.180   0.815  10.053
 5557W        W 9076   3.657   4.707   3.024
 5558W        W 9077   7.265   0.841   9.021
 5559W        W 9078   5.311   8.949   9.606
 5560W        W 9079   1.370   9.906   2.970
 5561W        W 9080   0.120   4.551   9.636
 5562W        W 9081   3.670   6.621   8.492
 5563W        W 9082   2.268   5.161  10.007
 5564W        W 9083   4.361   6.081   1.293
 5565W        W 9084   3.222   7.884   1.428
 5566W        W 9085   6.430   6.359   1.823
 5567W        W 9086   2.452   4.836   0.970
 5568W        W 9087   8.804   5.383   1.589
 5569W        W 9088   7.145   9.722   1.122
 5570W        W 9089   2.376   2.287  10.594
 5571W        W 9090   7.486   8.633   9.035
 5572W        W 9091   2.913   3.161  11.965
 5573W        W 9092   4.368   4.820   0.818
 5574W        W 9093   6.453   0.395  11.765
 5575W        W 9094   3.928   8.504   1.096
 5576W        W 9095   2.497   5.532   3.526
 5577W        W 9096   6.451   8.942   1.990
 5578W        W 9097   1.150   1.240   3.445
 5579W        W 9098   8.674   2.831  10.519
 5580W        W 9099   3.611   4.897   1.232
 5581W        W 9100   7.289   5.217  10.875
 5582W        W 9101   7.423   3.508  11.430
 5583W        W 9102   2.118   3.255   1.772
 5584W        W 9103   3.218   3.668   1.575
 5585W        W 9104   4.376   1.110  11.953
 5586W        W 9105   7.122   7.287  10.422
 5587W        W 9106   0.857   3.482  10.142
 5588W        W 9107   7.919   7.210   3.272
 5589W        W 9108   0.825   2.037   2.920
 5590W        W 9109   4.046   9.379   0.078
 5591W        W 9110   7.645   6.434   9.887
 5592W        W 9111   8.191   5.154  11.019
 5593W        W 9112   4.469   5.362   0.828
 5594W        W 9113   7.900   2.077   9.943
 5595W        W 9114   3.258   5.388   1.864
 5596W        W 9115   4.235   0.500   3.286
 5597W        W 9116   7.689   2.149   3.530
 5598W        W 9117   7.945   0.233   3.074
 5599W        W 9118   7.316   0.312   9.702
 5600W        W 9119   8.831   3.500   1.554
 5601W        W 9120   8.407   1.230   9.081
 5602W        W 9121   4.765   5.734   0.604
 5603W        W 9122   5.767   3.725   1.722
 5604W        W 9123   9.409   3.313  10.625
 5605W        W 9124   6.475   2.580   9.044
 5606W        W 9125   1.436   7.639  10.965
 5607W        W 9126   4.816   4.832  11.138
 5608W        W 9127   4.267   8.999  11.826
 5609W        W 9128   9.383   2.848   1.955
 5610W        W 9129   5.503   5.420   1.544
 5611W        W 9130   2.718   5.688   0.907
 5612W        W 9131   1.149   2.795   9.463
 5613W        W 9132   4.610   4.989  11.578
 5614W        W 9133   5.561   9.391   2.599
 5615W        W 9134   9.018   8.658   9.920
 5616W        W 9135   3.726   1.753  11.923
 5617W        W 9136   6.997   3.865   1.274
 5618W        W 9137   4.717   8.546   3.157
 5619W        W 9138   6.600   1.147   1.300
 5620W        W 9139   5.321   8.370   9.164
 5621W        W 9140   6.107   2.818   9.284
 5622W        W 9141   9.283   6.692   9.251
 5623W        W 9142   3.177   8.517   2.099
 5624W        W 9143   7.073   1.815   2.340
 5625W        W 9144   5.682   7.032  11.479
 5626W        W 9145   5.904   8.668   1.961
 5627W        W 9146   7.597   8.886   0.948
 5628W        W 9147   6.003   8.435   3.490
 5629W        W 9148   5.923   8.476   9.943
 5630W        W 9149   1.737   3.538   9.103
 5631W        W 9150   9.116   1.751   3.060
 5632W        W 9151   1.083   1.888   3.883
 5633W        W 9152   9.046   0.824  11.362
 5634W        W 9153   0.967   3.778  11.817
 5635W        W 9154   7.274   0.374  10.639
 5636W        W 9155   2.330   8.788   1.766
 5637W        W 9156   5.816   6.166   8.902
 5638W        W 9157   1.132   9.811   2.273
 5639W        W 9158   7.308   8.145   8.958
 5640W        W 9159   4.217   7.496   8.684
 5641W        W 9160   9.040   8.942   1.440
 5642W        W 9161   0.291   5.163   1.145
 5643W        W 9162   0.517   9.796  10.071
 5644W        W 9163   5.182   3.555  11.085
 5645W        W 9164   0.862   4.405   2.643
 5646W        W 9165   1.905   2.153  10.431
 5647W        W 9166   7.076   5.092   9.820
 5648W        W 9167   1.331   7.068   3.078
 5649W        W 9168   3.001   4.648   3.824
 5650W        W 9169   5.959   3.656  10.436
 5651W        W 9170   7.384   4.759  10.650
 5652W        W 9171   7.922   3.078  10.786
 5653W        W 9172   1.260   0.876   8.552
 5654W        W 9173   6.718   8.815   9.587
 5655W        W 9174   6.697   7.738  11.837
 5656W        W 9175   3.812   2.347   3.153
 5657W        W 9176   4.062   0.316  10.192
 5658W        W 9177   2.120   2.301   1.807
 5659W        W 9178   1.738   2.243   9.403
 5660W        W 9179   4.796   5.386   3.428
 5661W        W 9180   3.070   0.901   2.242
 5662W        W 9181   6.949   9.096  10.983
 5663W        W 9182   4.919   2.851   1.338
 5664W        W 9183   1.877   6.789   3.887
 5665W        W 9184   3.350   2.560   9.165
 5666W        W 9185   5.047   9.525   0.426
 5667W        W 9186   1.348   1.750   9.805
 5668W        W 9187   4.508   4.965   9.012
 5669W        W 9188   1.650   9.972  11.376
 5670W        W 9189   0.534   4.219   0.340
 5671W        W 9190   7.284   9.319   1.387
 5672W        W 9191   9.780   2.662   9.280
 5673W        W 9192   0.839   5.818   1.326
 5674W        W 9193   1.424   9.333   0.387
 5675W        W 9194   0.139   6.415   0.821
 5676W        W 9195   9.383   8.280   3.026
 5677W        W 9196   3.842   2.955   2.950
 5678W        W 9197   1.107   6.504   1.039
 5679W        W 9198   9.332   8.227   8.775
 5680W        W 9199   3.754   2.798   1.902
 5681W        W 9200   5.450   4.153   0.295
 5682W        W 9201   7.885   8.306   8.941
 5683W        W 9202   9.429   6.678   9.742
 5684W        W 9203   1.729   1.700  10.649
 5685W        W 9204   2.921   4.794   1.176
 5686W        W 9205   0.743   7.559   1.688
 5687W        W 9206   9.567   4.393   2.324
 5688W        W 9207   3.819   4.700   3.513
 5689W        W 9208   8.048   3.722   0.439
 5690W        W 9209   5.183   7.765   0.534
 5691W        W 9210   5.181   7.808   4.386
 5692W        W 9211   5.244   3.836  10.665
 5693W        W 9212   6.223   7.314   2.170
 5694W        W 9213   7.761   0.414   1.533
 5695W        W 9214   0.875   6.175   2.441
 5696W        W 9215   6.862   4.448   0.853
 5697W        W 9216   3.274   4.493   1.381
 5698W        W 9217   9.417   0.132   1.758
 5699W        W 9218   2.738   6.013   9.802
 5700W        W 9219   2.772   4.676   3.352
 5701W        W 9220   9.695   8.870  10.808
 5702W        W 9221   0.930   5.845   9.891
 5703W        W 9222   5.132   5.708  10.639
 5704W        W 9223   5.283   5.671   9.765
 5705W        W 9224   6.645   5.708   0.335
 5706W        W 9225   1.542   4.800  10.453
 5707W        W 9226   6.920   2.603   1.847
 5708W        W 9227   1.121   9.580   1.380
 5709W        W 9228   7.535   0.510   2.376
 5710W        W 9229   1.749   8.552  11.268
 5711W        W 9230   1.385   9.534  11.370
 5712W        W 9231   7.843   0.535   9.042
 5713W        W 9232   1.865   9.567   0.900
 5714W        W 9233   5.991   5.365   2.425
 5715W        W 9234   1.964   0.907   8.483
 5716W        W 9235   1.730   1.727  11.565
 5717W        W 9236   4.272   9.499   3.267
 5718W        W 9237   2.474   1.229  10.413
 5719W        W 9238   3.186   5.233   1.214
 5720W        W 9239   5.877   9.010   2.742
 5721W        W 9240   6.649   6.256   1.364
 5722W        W 9241   1.938   3.086  10.444
 5723W        W 9242   2.229   9.014   9.338
 5724W        W 9243   5.067   9.378   9.064
 5725W        W 9244   6.165   9.854   9.980
 5726W        W 9245   7.110   6.083   2.792
 5727W        W 9246   2.867   4.606   1.687
 5728W        W 9247   5.992   5.059  11.184
 5729W        W 9248   3.230   2.799   1.846
 5730W        W 9249   0.453   6.905   8.734
 5731W        W 9250   7.149   3.994   0.200
 5732W        W 9251   5.117   6.165  11.566
 5733W        W 9252   7.134   8.497   9.429
 5734W        W 9253   9.783   9.825   9.753
 5735W        W 9254   7.596   6.343  11.292
 5736W        W 9255   1.989   0.556   3.272
 5737W        W 9256   8.768   7.597  10.716
 5738W        W 9257   3.279   6.326   0.159
 5739W        W 9258   1.261   6.018   9.137
 5740W        W 9259   5.521   9.378  11.195
 5741W        W 9260   1.560   1.368   9.555
 5742W        W 9261   0.499   6.387   8.569
 5743W        W 9262   9.512   4.003   1.038
 5744W        W 9263   3.285   6.886   1.686
 5745W        W 9264   5.222   3.134   3.011
 5746W        W 9265   5.023   0.464  10.474
 5747W        W 9266   8.320   2.696   3.348
 5748W        W 9267   3.219   6.391  11.289
 5749W        W 9268   3.160   6.042   3.257
 5750W        W 9269   4.921   3.267   9.044
 5751W        W 9270   3.644   4.043   9.593
 5752W        W 9271   7.946   1.006  11.072
 5753W        W 9272   6.958   9.479   8.834
 5754W        W 9273   6.483   0.809   9.590
 5755W        W 9274   8.904   0.849   9.948
 5756W        W 9275   6.177   7.214   9.551
 5757W        W 9276   6.228   1.507   1.348
 5758W        W 9277   8.485   3.993   0.182
 5759W        W 9278   3.537   8.015  10.830
 5760W        W 9279   3.146   6.935   3.040
 5761W        W 9280   1.325   4.188   3.217
 5762W        W 9281   1.736   4.075   2.903
 5763W        W 9282   2.746   5.500  10.487
 5764W        W 9283   1.392   7.850   1.754
 5765W        W 9284   4.662   2.244   0.126
 5766W        W 9285   7.520   1.422   0.978
 5767W        W 9286   3.637   8.330   2.261
 5768W        W 9287   5.380   0.246   2.198
 5769W        W 9288   2.693   8.220   2.528
 5770W        W 9289   7.686   6.980   8.589
 5771W        W 9290   6.785   2.176   3.433
 5772W        W 9291   1.275   8.496  11.471
 5773W        W 9292   2.515   7.638   1.351
 5774W        W 9293   2.725   8.823  10.957
 5775W        W 9294   9.665   5.965   2.077
 5776W        W 9295   5.893   1.419   2.831
 5777W        W 9296   5.852   8.426   1.482
 5778W        W 9297   0.445   6.805   1.299
 5779W        W 9298   3.923   0.151   9.488
 5780W        W 9299   4.268   6.205   2.263
 5781W        W 9300   9.966   6.404   0.232
 5782W        W 9301   4.593   8.319   9.977
 5783W        W 9302   9.037   9.437  11.048
 5784W        W 9303   2.330   3.644   9.920
 5785W        W 9304   3.362   5.567   3.165
 5786W        W 9305   4.709   8.139   9.520
 5787W        W 9306   6.804   5.156   1.329
 5788W        W 9307   4.378   5.934   9.782
 5789W        W 9308   8.346   5.313  11.769
 5790W        W 9309   5.711   8.874  11.578
 5791W        W 9310   2.779   0.932  10.089
 5792W        W 9311   9.112   6.460   8.823
 5793W        W 9312   6.693   6.223   0.427
 5794W        W 9313   6.451   1.603   3.410
 5795W        W 9314   4.205   4.770   0.344
 5796W        W 9315   7.057   8.913   3.262
 5797W        W 9316   6.440   6.049   9.321
 5798W        W 9317   4.915   2.629   3.752
 5799W        W 9318   6.659   8.048   1.486
 5800W        W 9319   0.173   4.678  10.938
 5801W        W 9320   0.297   4.188  10.017
 5802W        W 9321   4.574   1.402  11.035
 5803W        W 9322   3.539   8.577  11.511
 5804W        W 9323   5.613   2.436  11.892
 5805W        W 9324   5.627   6.581   9.152
 5806W        W 9325   5.521   3.903   1.163
 5807W        W 9326   4.843   4.193   2.820
 5808W        W 9327   0.931   0.156   0.452
 5809W        W 9328   4.463   5.946   2.679
 5810W        W 9329   4.497   3.564   1.244
 5811W        W 9330   0.920   9.468  10.062
 5812W        W 9331   9.357   9.684   2.670
 5813W        W 9332   1.419   0.671   9.907
 5814W        W 9333   3.182   0.003  10.297
 5815W        W 9334   9.467   8.450  11.270
 5816W        W 9335   7.049   3.298  10.762
 5817W        W 9336   9.825   6.173   3.371
 5818W        W 9337   8.364   1.669   2.161
 5819W        W 9338   4.218   1.540   0.139
 5820W        W 9339   3.713   7.570   8.876
 5821W        W 9340   1.267   1.673  10.318
 5822W        W 9341   9.280   3.959   2.409
 5823W        W 9342   7.270   5.299   1.208
 5824W        W 9343   5.423   2.641   3.921
 5825W        W 9344   7.122   6.749  11.878
 5826W        W 9345   2.642   9.892   9.472
 5827W        W 9346   4.665   2.629   2.813
 5828W        W 9347   6.966   3.144  11.755
 5829W        W 9348   1.795   3.730   1.204
 5830W        W 9349   0.872   6.240   2.990
 5831W        W 9350   4.082   9.076   1.974
 5832W        W 9351   6.289   9.972   9.140
 5833W        W 9352   9.741   3.764   9.470
 5834W        W 9353   2.629   8.346   2.009
 5835W        W 9354   3.940   8.996  10.293
 5836W        W 9355   4.179   6.913   2.781
 5837W        W 9356   3.079   4.158  11.099
 5838W        W 9357   0.292   3.146   1.751
 5839W        W 9358   1.764   8.094   3.921
 5840W        W 9359   1.017   2.951  10.076
 5841W        W 9360   7.048   3.188  11.248
 5842W        W 9361   0.865   5.981   0.376
 5843W        W 9362   3.103   3.867   0.397
 5844W        W 9363   0.933   1.104  11.270
 5845W        W 9364   0.879   7.019  10.842
 5846W        W 9365   6.706   7.054  11.351
 5847W        W 9366   6.544   3.328  11.455
 5848W        W 9367   3.443   2.616   2.265
 5849W        W 9368   9.171   4.284   3.036
 5850W        W 9369   8.438   7.420  11.079
 5851W        W 9370   8.243   8.859  10.952
 5852W        W 9371   0.192   8.927  10.790
 5853W        W 9372   4.718   3.477  11.287
 5854W        W 9373   3.810   7.065   9.928
 5855W        W 9374   3.781   5.907  11.259
 5856W        W 9375   5.689   5.971  11.610
 5857W        W 9376   1.231   8.854  11.848
 5858W        W 9377   1.266   1.918  11.543
 5859W        W 9378   2.845   7.113   9.741
 5860W        W 9379   4.817   4.364   3.680
 5861W        W 9380   6.064   9.529   2.507
 5862W        W 9381   8.966   4.103  11.558
 5863W        W 9382   3.400   2.742   9.772
 5864W        W 9383   7.957   3.548   3.331
 5865W        W 9384   0.889   7.728   9.638
 5866W        W 9385   4.714   1.944  10.325
 5867W        W 9386   8.596   6.784   2.908
 5868W        W 9387   3.115   0.628   1.401
 5869W        W 9388   4.613   2.855   9.937
 5870W        W 9389   5.091   0.696   9.998
 5871W        W 9390   7.419   6.798  11.102
 5872W        W 9391   4.429   8.218   1.902
 5873W        W 9392   9.881   6.666  11.780
 5874W        W 9393   1.363   1.701   8.786
 5875W        W 9394   4.112   6.648   8.772
 5876W        W 9395   9.097   3.966   3.528
 5877W        W 9396   2.747   2.693   1.763
 5878W        W 9397   0.766   2.540   2.943
 5879W        W 9398   6.067   3.243   2.938
 5880W        W 9399   6.904   6.830   8.876
 5881W        W 9400   9.863   5.945   9.457
 5882W        W 9401   7.417   7.996  10.009
 5883W        W 9402   9.904   2.066   3.757
 5884W        W 9403   0.278   7.422  10.162
 5885W        W 9404   4.624   6.213  11.365
 5886W        W 9405   4.145   3.572   0.849
 5887W        W 9406   3.057   0.423  10.657
 5888W        W 9407   6.778   1.212   9.459
 5889W        W 9408   5.306   2.307   3.564
 5890W        W 9409   5.647   4.779   0.149
 5891W        W 9410   1.821   9.999  10.184
 5892W        W 9411   5.155   4.575   2.600
 5893W        W 9412   7.335   2.651   9.081
 5894W        W 9413   2.858   0.421   2.990
 5895W        W 9414   0.197   9.018   2.346
 5896W        W 9415   7.931   6.877   1.255
 5897W        W 9416   0.836   1.382   2.185
 5898W        W 9417   0.926   8.438  11.848
 5899W        W 9418   7.292   1.182  11.515
 5900W        W 9419   9.148   6.566  10.374
 5901W        W 9420   2.622   9.754   2.280
 5902W        W 9421   2.591   3.177   1.993
 5903W        W 9422   7.160   5.622   9.913
 5904W        W 9423   3.859   4.717   0.783
 5905W        W 9424   2.432   0.573   9.777
 5906W        W 9425   0.419   0.833   9.359
 5907W        W 9426   0.853   1.222   1.298
 5908W        W 9427   3.962   9.515   9.502
 5909W        W 9428   7.516   8.179   0.256
 5910W        W 9429   2.343   5.117  11.043
 5911W        W 9430   0.131   0.650   8.142
 5912W        W 9431   9.860   2.721  10.075
 5913W        W 9432   6.487   5.498   1.672
 5914W        W 9433   5.037   1.565   9.410
 5915W        W 9434   1.339   0.455   0.572
 5916W        W 9435   9.973   1.588   9.353
 5917W        W 9436   0.593   6.528   9.051
 5918W        W 9437   5.118   4.845  11.603
 5919W        W 9438   7.188   4.853   1.497
 5920W        W 9439   6.536   8.579   8.619
 5921W        W 9440   8.140   2.357   9.567
 5922W        W 9441   1.622   7.164  10.385
 5923W        W 9442   6.259   9.462   2.014
 5924W        W 9443   3.132   8.907   8.753
 5925W        W 9444   5.566   8.008   1.301
 5926W        W 9445   5.743   4.113   0.739
 5927W        W 9446   2.801   9.558   2.723
 5928W        W 9447   1.235   5.922   1.616
 5929W        W 9448   1.882   3.315   0.860
 5930W        W 9449   8.602   6.288   2.897
 5931W        W 9450   3.415   5.267   9.970
 5932W        W 9451   8.822   6.142   9.091
 5933W        W 9452   8.132   4.563   9.201
 5934W        W 9453   8.863   2.765   0.264
 5935W        W 9454   6.272   2.080   3.537
 5936W        W 9455   0.523   5.205  10.060
 5937W        W 9456   3.635   8.781   8.647
 5938W        W 9457   5.525   5.330   2.132
 5939W        W 9458   1.702   4.219   3.576
 5940W        W 9459   9.571   6.999   0.741
 5941W        W 9460   1.351   9.483   0.917
 5942W        W 9461   7.679   5.588   0.952
 5943W        W 9462   0.769   3.268   1.405
 5944W        W 9463   9.202   9.658   3.414
 5945W        W 9464   1.326   7.022   2.574
 5946W        W 9465   3.080   4.267   3.277
 5947W        W 9466   3.528   2.899   8.796
 5948W        W 9467   5.292   1.250   1.402
 5949W        W 9468   4.480   0.214   0.361
 5950W        W 9469   2.188   5.616   3.070
 5951W        W 9470   8.933   8.349   3.252
 5952W        W 9471   6.219   9.085  11.682
 5953W        W 9472   7.178   8.665   1.902
 5954W        W 9473   1.398   4.743   1.906
 5955W        W 9474   3.214   7.077  11.911
 5956W        W 9475   5.923   2.256  10.022
 5957W        W 9476   2.989   7.430   1.431
 5958W        W 9477   1.844   6.591   0.417
 5959W        W 9478   4.235   2.182   3.371
 5960W        W 9479   1.074   0.767   1.435
 5961W        W 9480   8.296   0.662  11.995
 5962W        W 9481   4.034   5.076  11.925
 5963W        W 9482   2.683   5.720   9.314
 5964W        W 9483   4.726   4.411   0.746
 5965W        W 9484   5.699   6.263   1.656
 5966W        W 9485   7.492   0.985   2.831
 5967W        W 9486   1.643   7.346   8.745
 5968W        W 9487   1.897   9.118  11.274
 5969W        W 9488   8.479   8.017   0.571
 5970W        W 9489   3.670   6.090   3.376
 5971W        W 9490   6.709   2.838   0.583
 5972W        W 9491   5.657   2.667   2.388
 5973W        W 9492   4.398   2.773   9.057
 5974W        W 9493   6.530   8.391   3.415
 5975W        W 9494   4.133   6.638   0.086
 5976W        W 9495   3.360   5.772   8.763
 5977W        W 9496   2.633   1.802   9.610
 5978W        W 9497   0.313   2.216   2.919
 5979W        W 9498   5.130   1.932   9.030
 5980W        W 9499   1.865   7.606  10.296
 5981W        W 9500   0.030   1.640   2.127
 5982W        W 9501   3.321   9.886   8.780
 5983W        W 9502   5.891   4.110   9.594
 5984W        W 9503   1.918   6.416   3.515
 5985W        W 9504   5.321   1.529   1.888
 5986W        W 9505   4.608   1.755  11.861
 5987W        W 9506   8.597   0.879   9.415
 5988W        W 9507   0.631   9.146  10.986
 5989W        W 9508   2.762   2.184  10.962
 5990W        W 9509   9.154   4.834  10.720
 5991W        W 9510   4.995   7.858  10.695
 5992W        W 9511   9.387   5.555  10.516
 5993W        W 9512   0.704   3.107  10.457
 5994W        W 9513   5.527   1.666   9.235
 5995W        W 9514   3.211   8.665  11.094
 5996W        W 9515   1.499   4.952  10.935
 5997W        W 9516   9.721   6.146  11.827
 5998W        W 9517   4.897   7.191   3.663
 5999W        W 9518   7.958   0.428   3.564
 6000W        W 9519   3.367   4.412  10.756
 6001W        W 9520   4.525   3.012   8.624
 6002W        W 9521   6.422   9.504  11.945
 6003W        W 9522   2.757   2.322   9.825
 6004W        W 9523   3.089   7.579   2.407
 6005W        W 9524   5.092   8.492  11.800
 6006W        W 9525   9.826   8.862  11.302
 6007W        W 9526   7.623   3.982  11.316
 6008W        W 9527   4.481   4.150  10.232
 6009W        W 9528   6.998   8.257   9.873
 6010W        W 9529   9.792   3.424   1.089
 6011W        W 9530   3.718   9.762   2.757
 6012W        W 9531   8.862   3.846  10.462
 6013W        W 9532   9.946   4.886   3.360
 6014W        W 9533   4.953   9.033   3.111
 6015W        W 9534   8.978   0.346  11.530
 6016W        W 9535   2.732   2.880   9.930
 6017W        W 9536   9.056   3.019  10.889
 6018W        W 9537   9.330   2.292   2.711
 6019W        W 9538   1.446   0.983   3.745
 6020W        W 9539   0.331   8.847   1.895
 6021W        W 9540   9.333   2.255   2.205
 6022W        W 9541   3.676   0.697   8.724
 6023W        W 9542   0.421   2.654   8.753
 6024W        W 9543   8.774   0.659   1.163
 6025W        W 9544   6.221   7.173   1.684
 6026W        W 9545   6.463   2.868   1.828
 6027W        W 9546   8.304   0.498   9.591
 6028W        W 9547   7.173   9.979   0.399
 6029W        W 9548   4.942   2.268  11.279
 6030W        W 9549   4.117   5.316  10.469
 6031W        W 9550   5.453   8.284   3.530
 6032W        W 9551   7.966   6.068   2.471
 6033W        W 9552   9.760   6.641   1.857
 6034W        W 9553   7.801   8.619  10.802
 6035W        W 9554   5.631   6.233   0.463
 6036W        W 9555   4.995   1.682  10.908
 6037W        W 9556   7.140   2.860   2.342
 6038W        W 9557   9.803   4.394  11.229
 6039W        W 9558   8.017   5.795   3.401
 6040W        W 9559   6.737   6.456   2.230
 6041W        W 9560   2.632   8.191   9.894
 6042W        W 9561   4.346   5.504   1.399
 6043W        W 9562   4.259   6.555   3.919
 6044W        W 9563   3.765   1.607  10.361
 6045W        W 9564   3.073   7.216   2.025
 6046W        W 9565   2.552   7.820   8.949
 6047W        W 9566   4.679   8.523   0.802
 6048W        W 9567   2.947   1.592   0.939
 6049W        W 9568   4.083   3.223   0.398
 6050W        W 9569   3.499   2.318   1.848
 6051W        W 9570   0.277   8.612   1.037
 6052W        W 9571   1.213   8.003   0.301
 6053W        W 9572   4.526   4.493  11.430
 6054W        W 9573   2.131   2.895   0.999
 6055W        W 9574   9.970   5.938   2.878
 6056W        W 9575   0.902   4.493  10.406
 6057W        W 9576   4.959   4.171   9.519
 6058W        W 9577   3.281   8.864   1.751
 6059W        W 9578   0.357   8.141   1.201
 6060W        W 9579   2.186   5.882   1.450
 6061W        W 9580   0.958   1.575   9.440
 6062W        W 9581   1.394   2.181   8.581
 6063W        W 9582   4.344   8.836   9.171
 6064W        W 9583   5.540   3.074   3.706
 6065W        W 9584   0.828   8.722   9.675
 6066W        W 9585   0.802   8.238   9.813
 6067W        W 9586   8.785   9.045  11.685
 6068W        W 9587   0.419   3.727   3.103
 6069W        W 9588   4.844   3.951   4.057
 6070W        W 9589   5.713   2.534   8.574
 6071W        W 9590   0.542   9.822   0.466
 6072W        W 9591   2.438   1.726   1.618
 6073W        W 9592   6.446   5.607   8.722
 6074W        W 9593   0.075   4.367   2.166
 6075W        W 9594   0.323   8.107   9.724
 6076W        W 9595   6.908   3.098   1.956
 6077W        W 9596   3.068   7.982   9.671
 6078W        W 9597   8.029   0.915   0.360
 6079W        W 9598   7.100   0.228  10.165
 6080W        W 9599   5.502   3.560   2.717
 6081W        W 9600   7.890   2.837   0.715
 6082W        W 9601   2.272   6.295   9.651
 6083W        W 9602   6.732   3.094   9.817
 6084W        W 9603   5.721   3.207   1.586
 6085W        W 9604   0.607   4.364   2.202
 6086W        W 9605   6.537   7.314  10.288
 6087W        W 9606   0.231   5.058   9.671
 6088W        W 9607   9.824   2.618   0.186
 6089W        W 9608   3.717   4.962   9.679
 6090W        W 9609   7.763   2.736   1.553
 6091W        W 9610   3.254   7.736   3.298
 6092W        W 9611   9.097   1.335   1.760
 6093W        W 9612   7.969   7.361   2.127
 6094W        W 9613   9.386   1.071   9.874
 6095W        W 9614   7.950   1.833  10.758
 6096W        W 9615   5.282   2.899   9.292
 6097W        W 9616   3.150   0.433   1.899
 6098W        W 9617   1.503   0.910   3.232
 6099W        W 9618   1.330   9.361   3.177
 6100W        W 9619   5.007   3.690   2.753
 6101W        W 9620   5.710   9.932  11.982
 6102W        W 9621   1.359   1.695   2.121
 6103W        W 9622   6.695   5.475   9.754
 6104W        W 9623   3.780   1.863   3.315
 6105W        W 9624   9.827   5.216   8.734
 6106W        W 9625   2.414   2.250   2.944
 6107W        W 9626   6.660   7.563   2.148
 6108W        W 9627   2.140   8.192  11.163
 6109W        W 9628   5.969   5.862  11.212
 6110W        W 9629   8.071   8.926  11.796
 6111W        W 9630   2.772   9.898   1.824
 6112W        W 9631   0.084   7.347   9.362
 6113W        W 9632   1.935   8.526   8.891
 6114W        W 9633   3.593   1.427   1.670
 6115W        W 9634   0.207   3.825   0.318
 6116W        W 9635   2.583   4.228   3.143
 6117W        W 9636   4.898   4.476   8.399
 6118W        W 9637   1.789   6.662   1.291
 6119W        W 9638   1.514   1.323   0.270
 6120W        W 9639   8.117   2.347   1.367
 6121W        W 9640   6.113   9.022   8.947
 6122W        W 9641   6.771   3.680   2.031
 6123W        W 9642   3.804   5.493   0.660
 6124W        W 9643   5.089   9.651  10.066
 6125W        W 9644   1.500   6.233  10.577
 6126W        W 9645   4.499   8.084   3.205
 6127W        W 9646   0.443   5.071  11.113
 6128W        W 9647   7.899   9.967   3.776
 6129W        W 9648   6.938   3.618  11.532
 6130W        W 9649   6.285   4.159   0.002
 6131W        W 9650   8.046   4.323   1.023
 6132W        W 9651   5.948   1.325  11.265
 6133W        W 9652   4.785   6.368   2.751
 6134W        W 9653   5.667   8.909   1.379
 6135W        W 9654   0.422   6.629   0.425
 6136W        W 9655   1.182   6.581   2.340
 6137W        W 9656   9.624   1.872   2.384
 6138W        W 9657   7.376   6.100   0.690
 6139W        W 9658   3.995   1.077  10.558
 6140W        W 9659   0.896   5.648   9.357
 6141W        W 9660  10.000   1.934   3.235
 6142W        W 9661   0.560   5.169   9.282
 6143W        W 9662   1.736   3.288  11.842
 6144W        W 9663   5.208   5.443   9.280
 6145W        W 9664   5.962   3.785   3.608
 6146W        W 9665   8.841   5.311   3.026
 6147W        W 9666   1.867   4.545   0.427
 6148W        W 9667   2.556   8.747  11.806
 6149W        W 9668   6.532   0.216   3.093
 6150W        W 9669   7.363   3.599  10.483
 6151W        W 9670   9.391   2.742   3.188
 6152W        W 9671   8.897   3.494  10.954
 6153W        W 9672   1.699   8.081  11.502
 6154W        W 9673   7.505   0.320   2.852
 6155W        W 9674   6.487   8.703   9.131
 6156W        W 9675   1.070   9.074   1.200
 6157W        W 9676   9.803   4.329   8.785
 6158W        W 9677   8.034   6.719  11.350
 6159W        W 9678   0.407   5.017  11.805
 6160W        W 9679   1.906   4.648   2.217
 6161W        W 9680   9.931   2.851   8.817
 6162W        W 9681   0.563   0.880  10.473
 6163W        W 9682   4.477   9.785   2.043
 6164W        W 9683   6.250   1.351  10.272
 6165W        W 9684   9.318   2.664   0.035
 6166W        W 9685   1.022   9.869  11.546
 6167W        W 9686   6.436   0.279   1.616
 6168W        W 9687   6.348   5.202  10.259
 6169W        W 9688   9.509   3.575   2.690
 6170W        W 9689   6.486   2.939   2.938
 6171W        W 9690   7.012   1.157   0.762
 6172W        W 9691   6.646   6.055  10.660
 6173W        W 9692   3.100   4.697   2.940
 6174W        W 9693   2.626   9.944   0.232
 6175W        W 9694   1.965   7.840   1.026
 6176W        W 9695   1.220   9.994  11.081
 6177W        W 9696   9.350   7.452   0.776
 6178W        W 9697   3.352   0.793   2.670
 6179W        W 9698   1.880   1.037   1.721
 6180W        W 9699   7.082   3.220  10.240
 6181W        W 9700   8.929   2.629  11.220
 6182W        W 9701   4.383   0.354   1.410
 6183W        W 9702   7.052   4.160  10.340
 6184W        W 9703   5.057   8.327   2.440
 6185W        W 9704   3.435   7.459   1.669
 6186W        W 9705   0.385   6.876  10.869
 6187W        W 9706   4.942   7.308   1.877
 6188W        W 9707   1.772   6.163   9.439
 6189W        W 9708   3.130   6.287   8.026
 6190W        W 9709   0.481   0.939  10.969
 6191W        W 9710   1.954   1.674  11.117
 6192W        W 9711   9.605   9.470   2.283
 6193W        W 9712   9.608   9.386   9.144
 6194W        W 9713   9.275   3.094  11.513
 6195W        W 9714   7.287   5.138   1.908
 6196W        W 9715   3.556   3.572  10.247
 6197W        W 9716   0.783   2.130   1.042
 6198W        W 9717   8.905   5.147   2.155
 6199W        W 9718   7.592   7.258  10.818
 6200W        W 9719   3.354   5.464   4.084
 6201W        W 9720   8.669   5.320   9.024
 6202W        W 9721   4.718   6.371  11.845
 6203W        W 9722   2.043   5.025   1.334
 6204W        W 9723   4.623   9.750   8.862
 6205W        W 9724   7.106   3.638   2.823
 6206W        W 9725   4.609   0.645   9.292
 6207W        W 9726   1.342   1.089  11.856
 6208W        W 9727   7.333   0.611   8.554
 6209W        W 9728   1.881   1.311   9.968
 6210W        W 9729   8.515   9.315  10.926
 6211W        W 9730   2.231   1.748  10.463
 6212W        W 9731   8.518   7.126   9.197
 6213W        W 9732   8.475   3.620  10.708
 6214W        W 9733   2.286   9.372   8.965
 6215W        W 9734   2.661   2.492   1.279
 6216W        W 9735   1.764   3.724   3.287
 6217W        W 9736   4.699   7.789   2.811
 6218W        W 9737   5.152   7.932   1.574
 6219W        W 9738   3.362   3.062  11.758
 6220W        W 9739   5.621   1.016   2.584
 6221W        W 9740   3.682   7.802   3.000
 6222W        W 9741   1.790   6.188   2.209
 6223W        W 9742   7.725   2.108  11.152
 6224W        W 9743   4.577   0.104   9.313
 6225W        W 9744   3.609   3.421  11.339
 6226W        W 9745   8.317   8.017   3.493
 6227W        W 9746   1.447   7.891   3.160
 6228W        W 9747   3.383   7.215   9.083
 6229W        W 9748   0.868   0.308   1.400
 6230W        W 9749   5.776   5.039   9.663
 6231W        W 9750   7.989   8.808   9.070
 6232W        W 9751   5.259   4.126   8.561
 6233W        W 9752   6.246   7.295   9.056
 6234W        W 9753   3.100   2.349   1.518
 6235W        W 9754   7.207   1.465   0.288
 6236W        W 9755   2.882   6.565   1.834
 6237W        W 9756   7.891   0.672   2.792
 6238W        W 9757   4.935   5.645   3.881
 6239W        W 9758   2.449   3.009   1.449
 6240W        W 9759   5.447   4.005   2.031
 6241W        W 9760   8.483   7.534  10.317
 6242W        W 9761   7.538   7.581   3.222
 6243W        W 9762   2.677   6.100   3.122
 6244W        W 9763   4.625   0.879   9.759
 6245W        W 9764   5.228   9.816  11.814
 6246W        W 9765   0.451   7.037   9.238
 6247W        W 9766   6.460   3.738   1.302
 6248W        W 9767   6.084   4.924   3.331
 6249W        W 9768   6.591   4.023  10.149
 6250W        W 9769   5.571   8.973   2.291
 6251W        W 9770   0.728   1.694   0.791
 6252W        W 9771   2.515   0.443  10.783
 6253W        W 9772   4.891   3.279   1.042
 6254W        W 9773   0.899   4.861  10.043
 6255W        W 9774   3.147   8.390   1.609
 6256W        W 9775   0.832   3.125   9.169
 6257W        W 9776   6.164   4.511   2.130
 6258W        W 9777   5.704   0.889   8.580
 6259W        W 9778   9.378   4.379   9.895
 6260W        W 9779   1.932   0.899   3.629
 6261W        W 9780   4.625   8.816   3.563
 6262W        W 9781   9.955   8.459   0.035
 6263W        W 9782   7.604   5.825  11.546
 6264W        W 9783   2.538   1.695   0.619
 6265W        W 9784   6.978   2.890   9.398
 6266W        W 9785   9.439   8.736   3.284
 6267W        W 9786   9.955   4.370   2.664
 6268W        W 9787   0.932   8.321   3.632
 6269W        W 9788   0.449   5.728  10.006
 6270W        W 9789   4.855   7.236   9.676
 6271W        W 9790   9.417   1.367   3.273
 6272W        W 9791   2.559   4.203  10.922
 6273W        W 9792   9.467   6.063   3.037
 6274W        W 9793   4.145   2.317   9.750
 6275W        W 9794   3.524   5.072  11.934
 6276W        W 9795   3.163   6.562   2.663
 6277W        W 9796   3.443   5.974   4.226
 6278W        W 9797   0.373   8.597   9.827
 6279W        W 9798   3.144   9.420  11.529
 6280W        W 9799   4.536   3.798   3.321
 6281W        W 9800   9.226   9.429   1.392
 6282W        W 9801   8.281   1.008  10.684
 6283W        W 9802   0.347   8.705  11.672
 6284W        W 9803   3.275   6.125  10.549
 6285W        W 9804   4.100   5.096   2.046
 6286W        W 9805   7.383   5.925  11.077
 6287W        W 9806   7.873   2.820   0.194
 6288W        W 9807   7.263   9.173   1.873
 6289W        W 9808   1.848   6.954  10.830
 6290W        W 9809   4.208   1.905  10.419
 6291W        W 9810   6.426   3.189   0.316
 6292W        W 9811   8.185   9.922   0.576
 6293W        W 9812   1.738   0.869   0.335
 6294W        W 9813   9.472   1.008   1.881
 6295W        W 9814   5.492   9.604   9.250
 6296W        W 9815   4.539   7.582  10.507
 6297W        W 9816   0.415   7.894   1.950
 6298W        W 9817   5.950   6.140   2.080
 6299W        W 9818   6.614   0.690   2.853
 6300W        W 9819   2.248   9.851  10.491
 6301W        W 9820   3.155   5.523  11.283
 6302W        W 9821   7.639   2.203   9.478
 6303W        W 9822   9.654   4.060   1.881
 6304W        W 9823   3.278   8.417   8.629
 6305W        W 9824   7.272   3.587   8.670
 6306W        W 9825   8.371   5.201   1.386
 6307W        W 9826   8.149   9.754   8.909
 6308W        W 9827   1.416   3.188   1.034
 6309W        W 9828   5.533   7.500   9.370
 6310W        W 9829   7.779   3.309   0.316
 6311W        W 9830   3.179   4.083  11.950
 6312W        W 9831   6.345   5.096   2.064
 6313W        W 9832   8.274   9.346   1.232
 6314W        W 9833   8.265   8.920   9.487
 6315W        W 9834   9.912   1.322   2.515
 6316W        W 9835   7.230   3.143   9.754
 6317W        W 9836   7.927   1.074   3.141
 6318W        W 9837   1.843   9.528  11.620
 6319W        W 9838   2.109   8.289   9.885
 6320W        W 9839   5.034   4.069   9.017
 6321W        W 9840   4.230   1.570   0.753
 6322W        W 9841   2.636   5.152  11.766
 6323W        W 9842   1.673   2.176   0.544
 6324W        W 9843   0.872   4.703   1.900
 6325W        W 9844   7.415   9.478   8.512
 6326W        W 9845   9.345   1.607  10.459
 6327W        W 9846   8.277   0.488   1.308
 6328W        W 9847   1.166   2.644  11.886
 6329W        W 9848   9.063   1.853   9.308
 6330W        W 9849   1.651   2.410   3.531
 6331W        W 9850   2.715   3.467  10.190
 6332W        W 9851   3.478   5.882   1.881
 6333W        W 9852   8.938   7.796  10.266
 6334W        W 9853   6.091   2.137   8.418
 6335W        W 9854   7.260   1.799  11.086
 6336W        W 9855   6.850   9.587   2.644
 6337W        W 9856   5.581   8.393  10.883
 6338W        W 9857   2.911   1.338   0.478
 6339W        W 9858   5.139   9.688  10.923
 6340W        W 9859   0.281   8.548   8.560
 6341W        W 9860   4.263   9.686   2.772
 6342W        W 9861   3.527   9.685   2.295
 6343W        W 9862   0.206   3.826  11.430
 6344W        W 9863   8.870   7.005   2.162
 6345W        W 9864   4.202   1.253   9.769
 6346W        W 9865   7.372   6.645   3.490
 6347W        W 9866   1.288   1.921   0.326
 6348W        W 9867   6.539   9.521   9.973
 6349W        W 9868   4.933   2.200   9.900
 6350W        W 9869   4.812   6.168   8.987
 6351W        W 9870   7.469   0.452   1.096
 6352W        W 9871   8.744   0.808   3.055
 6353W        W 9872   8.053   6.599   1.661
 6354W        W 9873   1.423   9.243   9.279
 6355W        W 9874   1.746   5.766  10.428
 6356W        W 9875   6.817   6.140   3.185
 6357W        W 9876   2.965   5.269   8.478
 6358W        W 9877   6.442   3.186  10.966
 6359W        W 9878   5.493   0.203  10.382
 6360W        W 9879   1.277   3.259   2.700
 6361W        W 9880   5.118   2.006   0.666
 6362W        W 9881   3.241   6.798   0.332
 6363W        W 9882   1.835   3.750   1.706
 6364W        W 9883   0.380   5.678   1.191
 6365W        W 9884   4.607   1.020  10.257
 6366W        W 9885   7.353   5.252   0.677
 6367W        W 9886   1.063   3.609   1.069
 6368W        W 9887   3.453   8.488   0.856
 6369W        W 9888   4.396   2.644   3.586
 6370W        W 9889   2.257   0.814  10.207
 6371W        W 9890   3.111   7.949  10.565
 6372W        W 9891   9.844   8.651   0.502
 6373W        W 9892   2.844   6.714  11.895
 6374W        W 9893   6.118   0.548   9.888
 6375W        W 9894   8.758   0.881  10.869
 6376W        W 9895   7.979   2.562   1.983
 6377W        W 9896   2.546   0.152  11.769
 6378W        W 9897   9.769   2.576   1.250
 6379W        W 9898   2.892   6.929   0.743
 6380W        W 9899   2.324   1.725   3.017
 6381W        W 9900   8.980   3.438   9.647
 6382W        W 9901   0.669   6.402   3.449
 6383W        W 9902   6.083   9.211   0.763
 6384W        W 9903   6.434   9.384  10.890
 6385W        W 9904   5.250   4.073   3.759
 6386W        W 9905   9.974   2.324   8.902
 6387W        W 9906   4.050   8.293   2.942
 6388W        W 9907   0.255   6.727   2.605
 6389W        W 9908   2.174   5.347   0.173
 6390W        W 9909   4.872   6.680  11.471
 6391W        W 9910   0.002   1.371   1.313
 6392W        W 9911   7.993   3.329   0.808
 6393W        W 9912   5.493   1.196  10.123
 6394W        W 9913   8.396   5.977  10.727
 6395W        W 9914   8.587   5.016  11.378
 6396W        W 9915   7.016   6.391  10.477
 6397W        W 9916   8.105   7.710   0.826
 6398W        W 9917   4.797   4.617  11.936
 6399W        W 9918   4.036   1.319   9.302
 6400W        W 9919   7.384   2.431   1.737
 6401W        W 9920   2.437   7.859   0.842
 6402W        W 9921   5.119   2.406   9.333
 6403W        W 9922   8.065   0.880   9.366
 6404W        W 9923   7.158   0.818  11.166
 6405W        W 9924   1.732   0.589   2.837
 6406W        W 9925   0.841   1.633   3.478
 6407W        W 9926   6.573   8.600  11.846
 6408W        W 9927   9.326   8.954   9.398
 6409W        W 9928   3.026   0.202  11.976
 6410W        W 9929   1.596   6.609   1.992
 6411W        W 9930   7.554   1.609   9.504
 6412W        W 9931   1.149   5.069   2.695
 6413W        W 9932   8.644   6.673   0.611
 6414W        W 9933   2.335   2.791  10.450
 6415W        W 9934   9.164   2.910  10.394
 6416W        W 9935   0.950   6.838   1.394
 6417W        W 9936   5.795   0.862  11.413
 6418W        W 9937   3.991   0.759   0.898
 6419W        W 9938   7.382   8.915   2.319
 6420W        W 9939   3.189   9.369   0.027
 6421W        W 9940   1.596   6.296  11.719
 6422W        W 9941   3.106   3.740   9.356
 6423W        W 9942   6.910   6.662  10.983
 6424W        W 9943   2.338   2.495   0.024
 6425W        W 9944   9.801   4.634   9.224
 6426W        W 9945   2.446   8.673  10.047
 6427W        W 9946   4.509   4.356   0.280
 6428W        W 9947   1.296   3.706   3.066
 6429W        W 9948   9.346   2.127  11.164
 6430W        W 9949   5.959   2.939   0.278
 6431W        W 9950   5.643   5.834  10.797
 6432W        W 9951   0.761   3.161  10.976
 6433W        W 9952   2.757   9.675   0.645
 6434W        W 9953   8.439   4.337   8.834
 6435W        W 9954   7.627   6.074  10.390
 6436W        W 9955   0.757   8.613  10.188
 6437W        W 9956   3.129   2.677   2.749
 6438W        W 9957   9.433   0.138  11.370
 6439W        W 9958   2.699   9.425   0.203
 6440W        W 9959   8.220   1.728   8.974
 6441W        W 9960   5.918   3.159  11.027
 6442W        W 9961   9.508   5.770   0.250
 6443W        W 9962   0.048   0.430   3.252
 6444W        W 9963   7.602   1.890   2.499
 6445W        W 9964   8.153   3.204  11.940
 6446W        W 9965   1.631   8.416   9.678
 6447W        W 9966   7.977   1.583   9.841
 6448W        W 9967   1.239   5.799  10.415
 6449W        W 9968   8.458   5.513  10.227
 6450W        W 9969   8.308   5.835  11.751
 6451W        W 9970   9.612   2.389  10.376
 6452W        W 9971   4.715   0.181   3.228
 6453W        W 9972   8.641   5.602   2.036
 6454W        W 9973   8.915   0.448   2.299
 6455W        W 9974   2.893   1.874   1.377
 6456W        W 9975   1.953   3.201   0.344
 6457W        W 9976   3.211   7.471   9.724
 6458W        W 9977   2.086   2.928  11.937
 6459W        W 9978   3.960   4.200   8.228
 6460W        W 9979   5.770   2.074   3.563
 6461W        W 9980   9.551   3.140  10.154
 6462W        W 9981   8.782   1.335  11.618
 6463W        W 9982   0.419   6.205   1.225
 6464W        W 9983   1.266   7.552   0.515
 6465W        W 9984   0.976   6.236  10.502
 6466W        W 9985   8.027   4.454   1.503
 6467W        W 9986   2.425   1.225   2.895
 6468W        W 9987   0.920   1.643  11.249
 6469W        W 9988   0.069   8.219   2.741
 6470W        W 9989   1.553   4.927   0.629
 6471W        W 9990   3.336   9.412   2.699
 6472W        W 9991   7.398   2.294   2.754
 6473W        W 9992   1.581   4.266   2.011
 6474W        W 9993   3.546   7.593   1.159
 6475W        W 9994   9.164   5.050   0.207
 6476W        W 9995   6.904   0.921  10.751
 6477W        W 9996   4.330   9.824   9.672
 6478W        W 9997   3.687   1.767  10.856
 6479W        W 9998   0.736   6.696   9.499
 6480W        W 9999   6.494   9.401   9.071
 6481W        W10000   2.668   5.001  10.268
 6482W        W10001   5.721   5.752   1.850
 6483W        W10002   2.888   8.477   8.931
 6484W        W10003   4.214   7.100   0.997
 6485W        W10004   6.478   2.351   1.889
 6486W        W10005   8.264   7.996   9.140
 6487W        W10006   5.935   2.194  11.552
 6488W        W10007   8.349   4.148   2.799
 6489W        W10008   5.186   7.426   1.394
 6490W        W10009   3.085   5.717   2.203
 6491W        W10010   1.809   7.268   3.211
 6492W        W10011   9.373   9.609   1.843
 6493W        W10012   5.271   6.927   1.969
 6494W        W10013   0.146   5.389   0.035
 6495W        W10014   8.553   0.717   0.434
 6496W        W10015   0.125   5.011   1.730
 6497W        W10016   7.831   1.487   8.718
 6498W        W10017   7.166   8.168   0.652
 6499W        W10018   9.220   6.239   1.208
 6500W        W10019   0.468   8.560   3.676
 6501W        W10020   8.108   7.800  10.044
 6502W        W10021   2.371   7.508   9.341
 6503W        W10022   3.186   5.190   8.924
 6504W        W10023   6.032   7.680   9.356
 6505W        W10024   2.908   8.890  11.436
 6506W        W10025   2.954   5.135   0.751
 6507W        W10026   5.104   0.665   0.928
 6508W        W10027   2.295   3.972  11.987
 6509W        W10028   5.635   4.963   0.861
 6510W        W10029   0.928   9.500  10.594
 6511W        W10030   7.469   1.134   3.417
 6512W        W10031   2.307   4.320   9.149
 6513W        W10032   5.010   9.942  10.485
 6514W        W10033   9.848   7.686  10.274
 6515W        W10034   5.846   1.531   0.113
 6516W        W10035   4.945   2.468  10.345
 6517W        W10036   6.020   3.844   9.164
 6518W        W10037   6.800   1.078  11.425
 6519W        W10038   7.611   3.659   0.936
 6520W        W10039   6.112   0.444   2.958
 6521W        W10040   4.239   7.942   0.624
 6522W        W10041   9.981   3.028   1.351
 6523W        W10042   2.635   0.846   9.096
 6524W        W10043   2.642   5.927   2.285
 6525W        W10044   5.681   7.720   0.429
 6526W        W10045   2.593   5.599   0.009
 6527W        W10046   6.154   9.817  10.863
 6528W        W10047   7.538   8.134   3.441
 6529W        W10048   9.393   4.617   8.919
 6530W        W10049   5.470   6.943   2.441
 6531W        W10050   1.579   7.813   8.960
 6532W        W10051   7.665   5.842   8.757
 6533W        W10052   5.468   9.350  11.700
 6534W        W10053   9.394   7.902  10.498
 6535W        W10054   9.014   4.098   0.083
 6536W        W10055   1.643   8.034   8.499
 6537W        W10056   8.081   8.861   1.375
 6538W        W10057   1.423   3.935  11.956
 6539W        W10058   4.728   4.495   8.886
 6540W        W10059   2.973   8.462   9.436
 6541W        W10060   2.791   4.177   9.351
 6542W        W10061   1.452   2.548  10.835
 6543W        W10062   2.310   5.779   9.664
 6544W        W10063   1.816   4.720  11.764
 6545W        W10064   8.085   2.797  11.166
 6546W        W10065   3.882   0.909   0.320
 6547W        W10066   3.643   3.346   3.235
 6548W        W10067   9.638   7.566   9.449
 6549W        W10068   5.907   6.000   3.481
 6550W        W10069   8.511   6.783   9.643
 6551W        W10070   7.690   6.170   8.351
 6552W        W10071   2.195   0.373   0.923
 6553W        W10072   3.168   9.522  11.046
 6554W        W10073   9.802   0.869   2.245
 6555W        W10074   4.461   0.226  11.850
 6556W        W10075   3.632   9.322  11.776
 6557W        W10076   7.367   3.293   1.237
 6558W        W10077   8.600   3.939   3.618
 6559W        W10078   0.074   9.018   9.852
 6560W        W10079   4.442   6.021   8.265
 6561W        W10080   1.829   9.534   9.193
 6562W        W10081   2.689   2.660   9.055
 6563W        W10082   3.651   7.094   0.491
 6564W        W10083   5.267   5.525   2.601
 6565W        W10084   7.712   5.310  11.143
 6566W        W10085   7.512   7.056   2.176
 6567W        W10086   5.043   6.019   2.474
 6568W        W10087   7.181   3.752  11.071
 6569W        W10088   9.979   3.639   1.958
 6570W        W10089   4.608   0.522  10.144
 6571W        W10090   5.640   3.062   2.701
 6572W        W10091   2.724   2.520  10.291
 6573W        W10092   9.668   9.293  11.544
 6574W        W10093   5.303   5.411   3.606
 6575W        W10094   9.647   7.540  11.247
 6576W        W10095   6.791   5.014   1.811
 6577W        W10096   7.630   2.719   2.542
 6578W        W10097   8.854   0.476   9.608
 6579W        W10098   7.491   7.902   1.447
 6580W        W10099   2.437   8.405  10.823
 6581W        W10100   4.775   3.815  10.888
 6582W        W10101   6.446   1.202   0.001
 6583W        W10102   7.171   9.887  11.891
 6584W        W10103   3.453   5.396   8.423
 6585W        W10104   5.185   0.880   0.440
 6586W        W10105   5.138   7.992   8.619
 6587W        W10106   0.743   0.328  11.582
 6588W        W10107   4.799   6.107  10.688
 6589W        W10108   9.757   5.661   3.295
 6590W        W10109   6.045   0.570   1.005
 6591W        W10110   0.342   7.077   2.230
 6592W        W10111   4.610   3.220   0.185
 6593W        W10112   5.040   5.211   2.303
 6594W        W10113   6.290   9.369   3.295
 6595W        W10114   2.580   5.611   1.905
 6596W        W10115   1.192   2.595   1.710
 6597W        W10116   4.209   2.996  11.954
 6598W        W10117   4.750   5.712  11.502
 6599W        W10118   7.537   4.874   3.311
 6600W        W10119   6.794   2.925   1.452
 6601W        W10120   7.514   4.854   2.790
 6602W        W10121   5.472   8.184   0.336
 6603W        W10122   4.055   4.119   9.927
 6604W        W10123   4.492   9.568  10.313
 6605W        W10124   1.822   9.327  10.110
 6606W        W10125   9.602   6.243   1.567
 6607W        W10126   8.921   7.435   9.028
 6608W        W10127   2.565   4.141   1.755
 6609W        W10128   2.737   4.303   2.662
 6610W        W10129   3.311   3.809   2.053
 6611W        W10130   3.973   0.221   3.633
 6612W        W10131   5.388   5.548  11.128
 6613W        W10132   9.201   2.706   2.422
 6614W        W10133   5.618   3.817  11.232
 6615W        W10134   4.834   0.414   2.426
 6616W        W10135   5.749   1.375   1.603
 6617W        W10136   2.764   5.073  10.762
 6618W        W10137   0.313   8.454   0.545
 6619W        W10138   1.770   1.938   1.851
 6620W        W10139   7.280   2.199  11.403
 6621W        W10140   7.021   4.469   0.374
 6622W        W10141   0.747   6.643  11.491
 6623W        W10142   4.485   5.840   9.289
 6624W        W10143   1.439   9.819  11.834
 6625W        W10144   4.907   1.151   1.098
 6626W        W10145   1.638   5.757  11.880
 6627W        W10146   0.533   2.295   9.570
 6628W        W10147   8.560   0.225  10.866
 6629W        W10148   5.514   9.611   3.241
 6630W        W10149   0.792   7.398  10.012
 6631W        W10150   0.764   1.355  10.845
 6632W        W10151   4.194   2.022   0.006
 6633W        W10152   8.379   5.454   3.252
 6634W        W10153   7.351   1.406   2.503
 6635W        W10154   7.224   4.717   2.168
 6636W        W10155   4.597   4.616  10.542
 6637W        W10156   3.964   7.268   2.375
 6638W        W10157   5.343   8.412   1.600
 6639W        W10158   7.954   8.044  10.497
 6640W        W10159   4.216   3.429   8.726
 6641W        W10160   0.878   6.905   9.944
 6642W        W10161   7.899   6.071   0.716
 6643W        W10162   1.749   9.066   3.316
 6644W        W10163   3.876   7.632  10.732
 6645W        W10164   5.164   6.363   9.478
 6646W        W10165   5.020   1.166  10.885
 6647W        W10166   7.073   7.812   2.276
 6648W        W10167   9.973   8.560   9.009
 6649W        W10168   1.633   3.412   3.670
 6650W        W10169   3.907   7.464   3.378
 6651W        W10170   6.978   8.596   8.953
 6652W        W10171   6.027   8.160  11.744
 6653W        W10172   5.886   4.090   2.990
 6654W        W10173   4.845   5.041   0.922
 6655W        W10174   0.236   3.713   9.299
 6656W        W10175   5.046   8.560   0.296
 6657W        W10176   0.536   7.649  11.366
 6658W        W10177   4.566   9.370   0.252
 6659W        W10178   1.361   7.150  10.815
 6660W        W10179   2.463   9.637   8.557
 6661W        W10180   4.710   1.879   0.943
 6662W        W10181   5.946   3.433   0.314
 6663W        W10182   4.485   4.220   8.169
 6664W        W10183   5.527   0.951   9.660
 6665W        W10184   8.346   6.199   1.630
 6666W        W10185   8.392   3.690   1.381
 6667W        W10186   1.673   6.622   2.497
 6668W        W10187   0.333   2.240   0.799
 6669W        W10188   4.833   5.451  10.949
 6670W        W10189   1.251   0.719   2.808
 6671W        W10190   9.212   9.216   2.522
 6672W        W10191   6.758   2.193   1.503
 6673W        W10192   1.674   8.042   0.085
 6674W        W10193   5.939   3.609   1.264
 6675W        W10194   2.089   7.970  10.685
 6676W        W10195   1.806   1.222   1.237
 6677W        W10196   8.136   8.396   0.416
 6678W        W10197   0.698   5.371   3.422
 6679W        W10198   2.163   5.504   1.054
 6680W        W10199   6.344   4.058  11.096
 6681W        W10200   5.992   7.211   2.747
 6682W        W10201   0.378   0.438   2.451
 6683W        W10202   1.102   8.983  10.031
 6684W        W10203   3.359   9.722   1.208
 6685W        W10204   6.683   0.691   3.360
 6686W        W10205   4.084   9.818  10.125
 6687W        W10206   4.561   6.024  10.245
 6688W        W10207   0.532   7.975   3.616
 6689W        W10208   2.619   4.482  10.293
 6690W        W10209   6.176   5.636   2.059
 6691W        W10210   6.205   2.659   8.497
 6692W        W10211   3.574   4.879  10.659
 6693W        W10212   0.941   8.009   3.230
 6694W        W10213   7.982   5.522   2.919
 6695W        W10214   3.658   6.854   0.042
 6696W        W10215   2.880   1.372   9.804
 6697W        W10216   7.213   4.824   0.973
 6698W        W10217   6.689   1.720   9.565
 6699W        W10218   7.072   3.172   0.437
 6700W        W10219   6.550   6.950   9.266
 6701W        W10220   6.976   0.341  11.834
 6702W        W10221   7.608   5.873   2.923
 6703W        W10222   0.235   0.562  10.233
 6704W        W10223   3.535   4.063  10.086
 6705ION    NA+10224   4.468   0.489  10.978
 6706ION    NA+10225   7.947   4.193   8.814
 6707ION    NA+10226   6.277   8.427   0.728
 6708ION    NA+10227   3.381   1.622   1.226
 6709ION    NA+10228   3.887   6.205   1.796
 6710ION    NA+10229   2.284   5.734  10.514
 6711ION    NA+10230   4.489   6.554  10.408
 6712ION    NA+10231   6.601   4.984  11.700
 6713ION    NA+10232   9.521   3.075   8.550
 6714ION    NA+10233   4.653   8.795   9.799
 6715ION    NA+10234   6.172   3.655   9.623
 6716ION    NA+10235   4.720   7.865   0.764
 6717ION    NA+10236   7.880   5.610  11.951
 6718ION    NA+10237   0.855   3.152  11.952
 6719ION    NA+10238   0.028   9.951   3.041
 6720ION    NA+10239   7.565   8.963  11.737
 6721ION    NA+10240   1.695   7.041   9.517
 6722ION    NA+10241   4.034   2.373  10.290
 6723ION    NA+10242   3.790   0.203   8.887
 6724ION    NA+10243   3.861   8.489   9.567
 6725ION    NA+10244   6.928   1.225   8.981
 6726ION    NA+10245   3.605   5.507  11.002
 6727ION    NA+10246   7.435   4.104   9.554
 6728ION    NA+10247   5.372   9.248  10.173
 6729ION    NA+10248   6.909   9.537  10.686
 6730ION    NA+10249   3.118   0.941   8.953
 6731ION    NA+10250   0.267   5.410  11.497
 6732ION    NA+10251   9.303   3.422   1.294
 6733ION    NA+10252   8.134   1.580   3.175
 6734ION    NA+10253   2.619   5.047   8.785
 6735ION    NA+10254   6.371   0.847   1.717
 6736ION    NA+10255   8.649   1.380  10.779
 6737ION    NA+10256   5.379   8.677   2.642
 6738ION    NA+10257   1.878   4.686   1.711
 6739ION    NA+10258   7.286   9.385   2.830
 6740ION    NA+10259   1.742   9.738   0.437
 6741ION    NA+10260   7.918   7.891   2.223
 6742ION    NA+10261   2.748   6.771   2.349
 6743ION    NA+10262   1.549   6.588   0.832
 6744ION    NA+10263   1.336   8.628   1.116
 6745ION    NA+10264   2.148   5.912   0.021
 6746ION    NA+10265   8.175   4.797   2.135
 6747ION    NA+10266   8.902   9.010  10.255
 6748ION    NA+10267   8.396   7.994  11.978
 6749ION    NA+10268   8.426   8.035   1.616
 6750ION    NA+10269   6.056   6.686   3.995
 6751ION    NA+10270   4.227   9.476   1.011
 6752ION    NA+10271   0.904   3.246   9.665
 6753ION    NA+10272   1.370   0.500   3.705
 6754ION    NA+10273   4.079   5.519   2.347
 6755ION    NA+10274   8.668   2.746   1.248
 6756ION    NA+10275   6.392   8.436   2.252
 6757ION    NA+10276   7.794   4.836  10.953
 6758ION    NA+10277   4.201   5.269   0.410
 6759ION    NA+10278   0.599   4.908   0.295
 6760ION    NA+10279   1.824   0.121   3.089
 6761ION    NA+10280   3.832   4.980  10.183
 6762ION    NA+10281   9.743   7.906   3.002
 6763ION    NA+10282   5.069   5.860   3.424
 6764ION    NA+10283   3.595   9.591   0.240
 6765ION    NA+10284   0.268   0.429   8.594
 6766ION    NA+10285   8.724   7.956   2.410
 6767ION    NA+10286   3.831   6.385   9.205
 6768ION    NA+10287   4.320   0.369   9.732
 6769ION    NA+10288   7.965   7.831   9.544
 6770ION    NA+10289   2.714   1.889   2.440
 6771ION    NA+10290   3.025   2.720  11.599
 6772ION    NA+10291   7.581   2.574  10.460
 6773ION    NA+10292   2.136   5.753   8.826
 6774ION    NA+10293   5.314   4.594   1.527
 6775ION    NA+10294   6.544   6.978   9.830
 6776ION    CL-10295   8.601   4.716   2.241
 6777ION    CL-10296   0.245   1.203   2.917
 6778ION    CL-10297   5.146   8.818   1.335
 6779ION    CL-10298   6.108   0.538  11.178
 6780ION    CL-10299   4.898   4.659   3.030
 6781ION    CL-10300   6.127   3.878  10.005
 6782ION    CL-10301   1.121   3.631   9.709
 6783ION    CL-10302   2.397   5.403   8.973
 6784ION    CL-10303   3.938   5.863   2.087
 6785ION    CL-10304   1.840   1.808   3.295
 6786ION    CL-10305   6.425   8.561   0.331
 6787ION    CL-10306   4.334   8.516   9.576
 6788ION    CL-10307   4.520   1.539   9.463
 6789ION    CL-10308   2.710   5.389   2.363
 6790ION    CL-10309   0.903   4.686   0.053
 6791ION    CL-10310   7.025   1.030   8.560
 6792ION    CL-10311   7.761   4.131   9.230
 6793ION    CL-10312   4.704   7.708   0.344
 6794ION    CL-10313   2.163   8.512  11.571
 6795ION    CL-10314   4.101   6.627  10.618
 6796ION    CL-10315   2.191   9.143   2.101
 6797ION    CL-10316   7.723   9.194   0.086
 6798ION    CL-10317   9.201   2.682   9.502
 6799ION    CL-10318   5.069   4.267   1.325
 6800ION    CL-10319   1.410   0.007   0.312
 6801ION    CL-10320   8.992   3.066   1.277
 6802ION    CL-10321   3.205   3.598   3.187
 6803ION    CL-10322   5.751   7.365   2.333
 6804ION    CL-10323   3.224   4.906   0.384
 6805ION    CL-10324   0.231   0.524   0.925
 6806ION    CL-10325   6.196   2.408   2.310
 6807ION    CL-10326   4.863   5.228   8.708
 6808ION    CL-10327   9.040   1.243  10.622
 6809ION    CL-10328   7.508   4.332   0.272
 6810ION    CL-10329   7.752   5.156  10.645
 6811ION    CL-10330   5.626   6.676   0.215
 6812ION    CL-10331   0.994   8.702   0.828
 6813ION    CL-10332   0.824   8.366   2.301
 6814ION    CL-10333   6.629   1.551   9.091
 6815ION    CL-10334   1.309   4.538  10.087
 6816ION    CL-10335   0.120   7.722   2.842
 6817ION    CL-10336   4.329   4.679  11.008
 6818ION    CL-10337   4.370   0.061  11.064
 6819ION    CL-10338   3.429   8.618   9.650
 6820ION    CL-10339   3.149   7.291   0.402
 6821ION    CL-10340   2.022   6.016  11.605
 6822ION    CL-10341   2.434   1.539   2.403
 6823ION    CL-10342   5.494   4.937   1.764
 6824ION    CL-10343   8.357   7.982   2.081
 6825ION    CL-10344   7.083   4.121   9.837
 6826ION    CL-10345   9.890   0.679   8.729
 6827ION    CL-10346   5.236   8.622   3.067
 6828ION    CL-10347   5.740   3.175   1.069
 6829ION    CL-10348   6.740   3.368   3.093
 6830ION    CL-10349   7.522   9.945   0.865
 6831ION    CL-10350   8.916   9.314  10.580
 6832ION    CL-10351   8.463   9.205   3.564
 6833ION    CL-10352   3.767   6.727   9.488
 6834ION    CL-10353   0.105   3.842   2.710
 6835ION    CL-10354   6.365   7.799   8.974
 6836ION    CL-10355   4.584   3.328   9.728
 6837ION    CL-10356   4.996   9.053   9.996
 6838ION    CL-10357   5.664   0.254   3.114
 6839ION    CL-10358   5.768   3.594   3.166
 6840ION    CL-10359   5.021   7.597   9.372
 6841ION    CL-10360   9.553   5.685   9.125
 6842ION    CL-10361   9.832   2.465   3.075
 6843ION    CL-10362   2.686   4.697  11.567
 6844ION    CL-10363   7.772   2.551  10.859
 6845ION    CL-10364   1.679   8.572   1.414
 6846ION    CL-10365   9.611   3.716   1.462
  10.00000  10.00000  12.00000
