Protein in INSANE! Membrane UpperLeaflet>POPC=1.0 LowerLeaflet>POPC=1.0
11125
    1AU     AUC    1   5.249   5.300   6.006
    1AU     AUC    2   5.544   5.299   5.828
    1AU     AUC    3   5.520   5.301   6.175
    1AU     AUC    4   4.964   5.291   5.841
    1AU     AUC    5   4.978   5.335   6.198
    1AU     AUC    6   5.069   5.576   6.006
    1AU     AUC    7   5.436   5.572   5.992
    1AU     AUC    8   5.059   5.037   6.013
    1AU     AUC    9   5.412   5.015   6.009
    1AU     AUC   10   5.250   5.135   6.290
    1AU     AUC   11   5.239   5.477   6.274
    1AU     AUC   12   5.246   5.129   5.733
    1AU     AUC   13   5.275   5.450   5.729
    1AU     AUC   14   5.858   5.294   5.656
    1AU     AUC   15   5.861   5.278   6.015
    1AU     AUC   16   5.803   5.294   6.357
    1AU     AUC   17   4.658   5.288   5.671
    1AU     AUC   18   4.637   5.326   6.036
    1AU     AUC   19   4.678   5.359   6.394
    1AU     AUC   20   4.898   5.886   5.981
    1AU     AUC   21   5.249   5.901   5.953
    1AU     AUC   22   5.617   5.865   5.979
    1AU     AUC   23   4.849   4.760   6.020
    1AU     AUC   24   5.199   4.705   6.011
    1AU     AUC   25   5.570   4.709   5.999
    1AU     AUC   26   5.236   4.964   6.587
    1AU     AUC   27   5.277   5.340   6.621
    1AU     AUC   28   5.262   5.672   6.559
    1AU     AUC   29   5.263   4.947   5.457
    1AU     AUC   30   5.269   5.280   5.403
    1AU     AUC   31   5.271   5.606   5.425
    1AU     AUC   32   5.529   5.120   6.500
    1AU     AUC   33   5.562   5.491   6.490
    1AU     AUC   34   5.588   5.127   5.508
    1AU     AUC   35   5.596   5.477   5.527
    1AU     AUC   36   4.943   5.177   6.530
    1AU     AUC   37   4.964   5.532   6.498
    1AU     AUC   38   4.946   5.109   5.548
    1AU     AUC   39   4.931   5.426   5.504
    1AU     AUC   40   5.779   5.575   5.836
    1AU     AUC   41   5.745   5.604   6.178
    1AU     AUC   42   4.754   5.595   5.837
    1AU     AUC   43   4.763   5.646   6.195
    1AU     AUC   44   5.731   4.984   5.828
    1AU     AUC   45   5.703   4.971   6.177
    1AU     AUC   46   4.721   4.996   5.860
    1AU     AUC   47   4.778   5.058   6.221
    1AU     AUC   48   5.065   5.836   6.270
    1AU     AUC   49   5.427   5.785   6.247
    1AU     AUC   50   5.042   4.840   6.316
    1AU     AUC   51   5.375   4.796   6.292
    1AU     AUC   52   5.073   5.725   5.696
    1AU     AUC   53   5.458   5.762   5.668
    1AU     AUC   54   5.040   4.824   5.717
    1AU     AUC   55   5.433   4.833   5.717
    1AU    AUSL   56   5.815   5.266   6.691
    1AU    AUSL   57   5.527   4.804   6.677
    1AU     AUL   58   5.858   4.854   6.835
    1AU       S   59   5.868   4.451   6.633
    1AU     LIG   60   5.781   4.339   7.015
    1AU     LIG   61   5.990   3.990   7.222
    1AU     LIG   62   6.239   3.642   7.416
    1AU     LIG   63   6.442   3.464   7.792
    1AU       S   64   6.082   5.238   6.765
    1AU     LIG   65   6.111   5.178   7.209
    1AU     LIG   66   6.216   5.077   7.662
    1AU     LIG   67   6.520   5.065   8.035
    1AU     LIG   68   6.850   5.149   8.372
    1AU    AUSL   69   5.432   5.164   6.887
    1AU    AUSL   70   5.131   5.501   6.909
    1AU     AUL   71   5.345   5.451   7.234
    1AU       S   72   5.631   5.135   7.091
    1AU     LIG   73   5.421   4.938   7.391
    1AU     LIG   74   5.516   4.775   7.823
    1AU     LIG   75   5.718   4.592   8.225
    1AU     LIG   76   5.899   4.634   8.660
    1AU       S   77   4.963   5.232   7.169
    1AU     LIG   78   5.016   5.159   7.629
    1AU     LIG   79   4.724   5.163   7.983
    1AU     LIG   80   4.547   5.191   8.415
    1AU     LIG   81   4.548   5.432   8.824
    1AU    AUSL   82   5.537   5.589   6.843
    1AU    AUSL   83   5.891   5.675   6.580
    1AU     AUL   84   5.835   5.553   6.973
    1AU       S   85   5.403   5.879   6.974
    1AU     LIG   86   5.640   5.848   7.361
    1AU     LIG   87   5.717   5.904   7.840
    1AU     LIG   88   5.760   5.938   8.329
    1AU     LIG   89   5.789   5.917   8.810
    1AU       S   90   5.976   5.926   6.746
    1AU     LIG   91   6.328   5.712   6.848
    1AU     LIG   92   6.650   5.869   7.151
    1AU     LIG   93   6.933   6.130   7.434
    1AU     LIG   94   7.225   6.426   7.659
    1AU    AUSL   95   5.814   5.378   5.286
    1AU    AUSL   96   5.663   5.788   5.329
    1AU     AUL   97   5.941   5.684   5.065
    1AU       S   98   5.651   5.438   4.838
    1AU     LIG   99   6.105   5.422   4.655
    1AU     LIG  100   6.231   5.142   4.322
    1AU     LIG  101   6.271   5.012   3.883
    1AU     LIG  102   6.484   5.031   3.466
    1AU       S  103   6.004   6.008   5.387
    1AU     LIG  104   6.088   6.184   4.989
    1AU     LIG  105   6.249   6.372   4.577
    1AU     LIG  106   6.486   6.663   4.294
    1AU     LIG  107   6.727   6.952   4.019
    1AU    AUSL  108   5.557   5.078   5.115
    1AU    AUSL  109   5.922   4.988   5.410
    1AU     AUL  110   5.973   5.150   5.099
    1AU       S  111   5.986   4.694   5.176
    1AU     LIG  112   6.163   4.445   4.812
    1AU     LIG  113   6.459   4.080   4.700
    1AU     LIG  114   6.753   3.762   4.496
    1AU     LIG  115   7.136   3.729   4.204
    1AU       S  116   5.672   5.246   4.767
    1AU     LIG  117   5.882   4.896   4.635
    1AU     LIG  118   5.918   4.744   4.187
    1AU     LIG  119   5.848   4.773   3.715
    1AU     LIG  120   6.026   4.879   3.288
    1AU    AUSL  121   5.393   5.462   5.260
    1AU    AUSL  122   5.149   5.087   5.237
    1AU     AUL  123   5.286   5.126   4.953
    1AU       S  124   4.840   5.137   4.818
    1AU     LIG  125   4.908   4.801   4.567
    1AU     LIG  126   4.728   4.664   4.147
    1AU     LIG  127   4.514   4.667   3.710
    1AU     LIG  128   4.581   4.773   3.250
    1AU       S  129   5.473   5.561   4.928
    1AU     LIG  130   5.460   5.468   4.390
    1AU     LIG  131   5.773   5.244   4.064
    1AU     LIG  132   5.922   5.278   3.603
    1AU     LIG  133   5.909   5.474   3.168
    1AU    AUSL  134   4.733   5.424   6.766
    1AU    AUSL  135   5.010   5.779   6.615
    1AU     AUL  136   4.886   5.733   6.961
    1AU       S  137   4.792   5.371   7.237
    1AU     LIG  138   4.541   5.042   7.421
    1AU     LIG  139   4.286   4.944   7.825
    1AU     LIG  140   4.112   4.943   8.276
    1AU     LIG  141   3.767   5.080   8.582
    1AU       S  142   4.584   6.019   6.728
    1AU     LIG  143   4.687   6.193   7.119
    1AU     LIG  144   4.533   6.479   7.461
    1AU     LIG  145   4.225   6.732   7.715
    1AU     LIG  146   4.015   6.880   8.113
    1AU    AUSL  147   5.050   5.138   6.695
    1AU    AUSL  148   4.587   5.037   6.626
    1AU     AUL  149   4.613   5.162   6.878
    1AU       S  150   4.410   4.751   6.859
    1AU     LIG  151   4.016   4.628   6.652
    1AU     LIG  152   3.812   4.233   6.764
    1AU     LIG  153   3.644   3.936   7.074
    1AU     LIG  154   3.437   3.672   7.392
    1AU       S  155   5.021   5.068   7.085
    1AU     LIG  156   4.952   4.728   7.362
    1AU     LIG  157   4.744   4.688   7.764
    1AU     LIG  158   4.573   4.703   8.195
    1AU     LIG  159   4.436   4.579   8.620
    1AU    AUSL  160   4.743   5.205   5.281
    1AU    AUSL  161   4.913   4.813   5.450
    1AU     AUL  162   4.958   4.816   5.118
    1AU       S  163   4.638   5.116   4.957
    1AU     LIG  164   4.408   4.855   4.665
    1AU     LIG  165   4.268   4.877   4.204
    1AU     LIG  166   4.043   4.919   3.783
    1AU     LIG  167   3.602   5.048   3.620
    1AU       S  168   4.546   4.722   5.275
    1AU     LIG  169   4.589   4.460   4.968
    1AU     LIG  170   4.266   4.148   4.842
    1AU     LIG  171   3.915   3.913   4.635
    1AU     LIG  172   3.662   3.736   4.279
    1AU    AUSL  173   5.018   5.493   5.077
    1AU    AUSL  174   4.541   5.555   5.427
    1AU     AUL  175   4.665   5.550   5.096
    1AU       S  176   4.262   5.731   5.248
    1AU     LIG  177   4.096   5.941   4.876
    1AU     LIG  178   3.970   6.282   4.601
    1AU     LIG  179   3.645   6.405   4.298
    1AU     LIG  180   3.168   6.398   4.205
    1AU       S  181   4.923   5.363   4.758
    1AU     LIG  182   4.654   5.219   4.369
    1AU     LIG  183   4.619   5.132   3.914
    1AU     LIG  184   4.618   5.238   3.460
    1AU     LIG  185   4.777   5.466   3.072
    1AU    AUSL  186   6.017   5.790   6.000
    1AU    AUSL  187   5.977   5.596   5.607
    1AU     AUL  188   6.306   5.909   5.821
    1AU       S  189   6.101   5.716   5.486
    1AU     LIG  190   6.425   5.805   5.200
    1AU     LIG  191   6.529   5.980   4.788
    1AU     LIG  192   6.770   6.297   4.542
    1AU     LIG  193   7.018   6.608   4.282
    1AU       S  194   6.466   5.657   6.185
    1AU     LIG  195   6.830   5.873   6.023
    1AU     LIG  196   7.269   6.072   6.059
    1AU     LIG  197   7.486   6.515   6.062
    1AU     LIG  198   7.732   6.773   6.370
    1AU    AUSL  199   6.219   5.396   5.893
    1AU    AUSL  200   6.156   5.072   6.201
    1AU     AUL  201   6.532   5.168   6.220
    1AU       S  202   6.360   5.472   5.945
    1AU     LIG  203   6.805   5.390   5.855
    1AU     LIG  204   7.257   5.578   5.866
    1AU     LIG  205   7.680   5.745   5.731
    1AU     LIG  206   8.060   5.483   5.569
    1AU       S  207   6.393   4.785   6.020
    1AU     LIG  208   6.811   4.656   6.110
    1AU     LIG  209   7.237   4.484   6.194
    1AU     LIG  210   7.664   4.401   6.321
    1AU     LIG  211   8.100   4.537   6.451
    1AU    AUSL  212   5.957   5.443   6.242
    1AU    AUSL  213   5.800   6.004   6.296
    1AU     AUL  214   6.089   5.880   6.304
    1AU       S  215   6.000   6.206   6.626
    1AU     LIG  216   6.385   6.242   6.896
    1AU     LIG  217   6.706   6.508   7.145
    1AU     LIG  218   6.861   6.950   7.288
    1AU     LIG  219   6.909   7.453   7.259
    1AU       S  220   6.274   5.488   6.381
    1AU     LIG  221   6.715   5.497   6.573
    1AU     LIG  222   7.123   5.597   6.360
    1AU     LIG  223   7.579   5.722   6.328
    1AU     LIG  224   8.001   5.870   6.524
    1AU    AUSL  225   4.568   5.862   6.028
    1AU    AUSL  226   4.637   5.658   6.429
    1AU     AUL  227   4.335   5.968   6.282
    1AU       S  228   4.494   5.799   6.675
    1AU     LIG  229   4.394   5.752   7.109
    1AU     LIG  230   4.189   6.120   7.327
    1AU     LIG  231   3.882   6.371   7.589
    1AU     LIG  232   3.601   6.468   7.962
    1AU       S  233   4.551   6.234   5.954
    1AU     LIG  234   4.077   6.159   5.879
    1AU     LIG  235   3.605   6.260   5.865
    1AU     LIG  236   3.192   6.504   5.869
    1AU     LIG  237   2.786   6.688   6.027
    1AU    AUSL  238   4.545   5.476   5.833
    1AU    AUSL  239   4.680   5.921   5.625
    1AU     AUL  240   4.366   5.798   5.700
    1AU       S  241   4.173   5.295   5.483
    1AU     LIG  242   3.857   5.656   5.571
    1AU     LIG  243   3.417   5.817   5.679
    1AU     LIG  244   3.103   6.128   5.508
    1AU     LIG  245   2.636   6.207   5.434
    1AU       S  246   4.502   6.171   5.440
    1AU     LIG  247   4.274   6.396   5.076
    1AU     LIG  248   4.248   6.697   4.731
    1AU     LIG  249   3.957   7.002   4.548
    1AU     LIG  250   3.636   7.291   4.719
    1AU    AUSL  251   4.315   5.518   6.206
    1AU    AUSL  252   4.289   5.153   5.904
    1AU     AUL  253   4.145   5.469   5.923
    1AU       S  254   4.086   5.070   6.169
    1AU     LIG  255   3.778   5.127   5.832
    1AU     LIG  256   3.386   4.896   5.712
    1AU     LIG  257   2.972   4.676   5.730
    1AU     LIG  258   2.565   4.815   5.638
    1AU       S  259   4.157   5.539   6.422
    1AU     LIG  260   3.739   5.528   6.221
    1AU     LIG  261   3.314   5.727   6.353
    1AU     LIG  262   2.877   5.937   6.397
    1AU     LIG  263   2.479   6.224   6.350
    1AU    AUSL  264   5.931   4.725   6.047
    1AU    AUSL  265   5.783   4.987   6.382
    1AU     AUL  266   6.117   4.877   6.423
    1AU       S  267   6.210   4.605   6.044
    1AU     LIG  268   6.498   4.339   5.812
    1AU     LIG  269   6.931   4.162   5.913
    1AU     LIG  270   7.377   4.002   6.042
    1AU     LIG  271   7.714   3.870   6.343
    1AU       S  272   5.995   4.453   6.485
    1AU     LIG  273   6.273   4.251   6.847
    1AU     LIG  274   6.518   4.012   7.176
    1AU     LIG  275   6.741   3.800   7.530
    1AU     LIG  276   7.018   3.835   7.921
    1AU    AUSL  277   5.949   5.088   5.814
    1AU    AUSL  278   5.831   4.630   5.644
    1AU     AUL  279   6.090   4.779   5.639
    1AU       S  280   6.435   4.967   5.824
    1AU     LIG  281   6.747   4.746   5.610
    1AU     LIG  282   7.163   4.559   5.687
    1AU     LIG  283   7.588   4.395   5.782
    1AU     LIG  284   7.999   4.341   5.576
    1AU       S  285   6.009   4.467   5.306
    1AU     LIG  286   6.192   4.069   5.173
    1AU     LIG  287   6.354   3.664   4.984
    1AU     LIG  288   6.610   3.311   4.796
    1AU     LIG  289   6.775   2.869   4.923
    1AU    AUSL  290   4.489   4.794   6.058
    1AU    AUSL  291   4.594   5.034   5.640
    1AU     AUL  292   4.241   4.861   5.766
    1AU       S  293   4.420   4.868   5.344
    1AU     LIG  294   4.091   4.544   5.144
    1AU     LIG  295   3.755   4.224   5.017
    1AU     LIG  296   3.402   4.018   4.769
    1AU     LIG  297   3.032   4.094   4.482
    1AU       S  298   4.062   4.828   6.195
    1AU     LIG  299   3.723   4.633   6.002
    1AU     LIG  300   3.276   4.548   6.124
    1AU     LIG  301   2.900   4.378   6.367
    1AU     LIG  302   2.545   4.034   6.344
    1AU    AUSL  303   4.561   5.183   6.240
    1AU    AUSL  304   4.810   4.816   6.335
    1AU     AUL  305   4.472   4.781   6.390
    1AU       S  306   4.486   4.548   6.772
    1AU     LIG  307   4.319   4.114   6.664
    1AU     LIG  308   3.994   3.728   6.743
    1AU     LIG  309   3.671   3.417   6.967
    1AU     LIG  310   3.231   3.267   7.139
    1AU       S  311   4.122   5.072   6.348
    1AU     LIG  312   3.605   5.033   6.309
    1AU     LIG  313   3.161   5.045   6.150
    1AU     LIG  314   2.747   4.872   6.155
    1AU     LIG  315   2.432   4.656   6.423
    1AU    AUSL  316   5.233   6.112   6.468
    1AU    AUSL  317   4.819   6.034   6.326
    1AU     AUL  318   5.029   6.125   6.708
    1AU       S  319   4.659   6.259   6.461
    1AU     LIG  320   4.344   6.440   6.816
    1AU     LIG  321   4.118   6.641   7.196
    1AU     LIG  322   3.923   7.040   7.402
    1AU     LIG  323   3.702   7.485   7.389
    1AU       S  324   5.268   6.444   6.428
    1AU     LIG  325   5.384   6.480   6.839
    1AU     LIG  326   5.493   6.888   7.007
    1AU     LIG  327   5.624   7.314   7.135
    1AU     LIG  328   5.655   7.684   7.419
    1AU    AUSL  329   5.062   6.251   6.059
    1AU    AUSL  330   5.412   6.206   5.711
    1AU     AUL  331   5.259   6.554   5.857
    1AU       S  332   5.084   6.513   6.281
    1AU     LIG  333   5.297   6.925   6.512
    1AU     LIG  334   5.354   7.368   6.686
    1AU     LIG  335   5.255   7.844   6.714
    1AU     LIG  336   4.892   8.149   6.831
    1AU       S  337   5.165   6.371   5.457
    1AU     LIG  338   5.513   6.720   5.452
    1AU     LIG  339   5.724   7.177   5.378
    1AU     LIG  340   5.985   7.618   5.320
    1AU     LIG  341   6.172   8.082   5.276
    1AU    AUSL  342   5.436   6.029   6.098
    1AU    AUSL  343   5.480   5.776   6.483
    1AU     AUL  344   5.556   6.106   6.533
    1AU       S  345   5.837   6.039   6.878
    1AU     LIG  346   6.119   5.969   7.238
    1AU     LIG  347   6.423   6.224   7.471
    1AU     LIG  348   6.709   6.537   7.681
    1AU     LIG  349   6.781   6.771   8.086
    1AU       S  350   5.514   6.388   6.185
    1AU     LIG  351   5.737   6.640   6.505
    1AU     LIG  352   5.802   7.099   6.654
    1AU     LIG  353   5.832   7.571   6.742
    1AU     LIG  354   5.854   8.025   6.758
    1AU    AUSL  355   5.194   4.636   6.463
    1AU    AUSL  356   5.603   4.608   6.290
    1AU     AUL  357   5.416   4.490   6.672
    1AU       S  358   5.176   4.130   6.526
    1AU     LIG  359   4.933   3.966   6.854
    1AU     LIG  360   4.842   3.512   6.938
    1AU     LIG  361   4.869   3.033   6.940
    1AU     LIG  362   4.696   2.620   7.139
    1AU       S  363   5.758   4.372   6.347
    1AU     LIG  364   5.896   3.960   6.641
    1AU     LIG  365   6.245   3.688   6.883
    1AU     LIG  366   6.625   3.470   7.111
    1AU     LIG  367   6.863   3.032   7.107
    1AU    AUSL  368   4.865   4.435   6.192
    1AU    AUSL  369   4.918   4.753   6.757
    1AU     AUL  370   4.867   4.479   6.537
    1AU       S  371   4.962   4.064   6.354
    1AU     LIG  372   4.717   3.696   6.467
    1AU     LIG  373   4.585   3.242   6.552
    1AU     LIG  374   4.476   2.792   6.690
    1AU     LIG  375   4.577   2.334   6.712
    1AU       S  376   4.703   4.672   6.945
    1AU     LIG  377   4.575   4.237   7.130
    1AU     LIG  378   4.171   3.992   7.147
    1AU     LIG  379   3.961   3.633   7.362
    1AU     LIG  380   4.002   3.405   7.778
    1AU    AUSL  381   5.291   4.368   6.141
    1AU    AUSL  382   5.047   4.594   5.837
    1AU     AUL  383   4.929   4.262   5.941
    1AU       S  384   5.289   4.155   5.704
    1AU     LIG  385   4.895   3.844   5.668
    1AU     LIG  386   4.726   3.382   5.596
    1AU     LIG  387   4.748   2.896   5.487
    1AU     LIG  388   4.621   2.490   5.260
    1AU       S  389   5.292   4.160   6.266
    1AU     LIG  390   5.268   3.681   6.292
    1AU     LIG  391   5.118   3.306   6.536
    1AU     LIG  392   5.331   2.898   6.671
    1AU     LIG  393   5.756   2.658   6.644
    1AU    AUSL  394   5.263   5.924   5.379
    1AU    AUSL  395   5.693   5.896   5.744
    1AU     AUL  396   5.560   6.126   5.392
    1AU       S  397   5.150   6.307   5.245
    1AU     LIG  398   5.477   6.482   5.011
    1AU     LIG  399   5.521   6.945   4.952
    1AU     LIG  400   5.497   7.299   4.632
    1AU     LIG  401   5.546   7.589   4.250
    1AU       S  402   5.938   6.098   5.638
    1AU     LIG  403   6.389   6.285   5.429
    1AU     LIG  404   6.555   6.456   5.003
    1AU     LIG  405   6.781   6.784   4.721
    1AU     LIG  406   7.125   7.122   4.644
    1AU    AUSL  407   5.067   5.954   5.765
    1AU    AUSL  408   4.967   5.633   5.465
    1AU     AUL  409   4.911   5.933   5.332
    1AU       S  410   4.953   6.316   5.591
    1AU     LIG  411   4.999   6.822   5.489
    1AU     LIG  412   5.193   7.235   5.340
    1AU     LIG  413   5.044   7.705   5.315
    1AU     LIG  414   4.780   8.037   5.088
    1AU       S  415   4.476   5.962   5.210
    1AU     LIG  416   4.596   6.082   4.807
    1AU     LIG  417   4.449   6.327   4.427
    1AU     LIG  418   4.146   6.638   4.221
    1AU     LIG  419   4.122   7.088   4.045
    1AU    AUSL  420   5.239   4.541   5.447
    1AU    AUSL  421   4.648   4.600   5.719
    1AU     AUL  422   4.904   4.433   5.492
    1AU       S  423   4.462   4.577   5.479
    1AU     LIG  424   4.412   4.163   5.364
    1AU     LIG  425   4.058   3.864   5.225
    1AU     LIG  426   3.693   3.625   5.010
    1AU     LIG  427   3.506   3.179   4.881
    1AU       S  428   5.279   4.132   5.485
    1AU     LIG  429   5.187   3.689   5.285
    1AU     LIG  430   4.963   3.262   5.151
    1AU     LIG  431   4.826   2.848   4.944
    1AU     LIG  432   4.749   2.567   4.550
    1AU    AUSL  433   5.470   4.579   5.831
    1AU    AUSL  434   5.505   4.864   5.469
    1AU     AUL  435   5.574   4.486   5.460
    1AU       S  436   5.526   4.171   5.791
    1AU     LIG  437   5.383   3.684   5.781
    1AU     LIG  438   5.227   3.269   5.599
    1AU     LIG  439   5.238   2.853   5.359
    1AU     LIG  440   5.384   2.406   5.410
    1AU       S  441   5.755   4.664   5.089
    1AU     LIG  442   5.714   4.229   4.981
    1AU     LIG  443   5.963   3.922   4.726
    1AU     LIG  444   6.246   3.637   4.477
    1AU     LIG  445   6.483   3.531   4.086
    2POPC   NC3  446  10.100   5.933   8.088
    2POPC   PO4  447  10.494   5.382   7.960
    2POPC   GL1  448  10.322   5.435   7.664
    2POPC   GL2  449  10.016   5.565   7.740
    2POPC   C1A  450  10.188   5.344   7.284
    2POPC   D2A  451  10.393   5.373   6.899
    2POPC   C3A  452  10.197   5.446   6.493
    2POPC   C4A  453  10.158   5.418   6.004
    2POPC   C1B  454  10.277   5.858   7.430
    2POPC   C2B  455  10.287   5.891   6.997
    2POPC   C3B  456  10.073   5.938   6.624
    2POPC   C4B  457  10.260   5.866   6.234
    3POPC   NC3  458   0.483   9.280   8.320
    3POPC   PO4  459   0.664   9.613   7.810
    3POPC   GL1  460   0.477   9.484   7.460
    3POPC   GL2  461   0.280   9.209   7.488
    3POPC   C1A  462   0.221   9.608   7.164
    3POPC   D2A  463   0.357   9.711   6.792
    3POPC   C3A  464   0.067   9.668   6.505
    3POPC   C4A  465   0.251   9.709   6.146
    3POPC   C1B  466   0.278   8.978   7.100
    3POPC   C2B  467   0.575   9.068   6.746
    3POPC   C3B  468   0.437   9.322   6.405
    3POPC   C4B  469   0.490   9.313   5.914
    4POPC   NC3  470   9.390   7.424   8.200
    4POPC   PO4  471   8.907   7.006   8.047
    4POPC   GL1  472   9.110   7.043   7.708
    4POPC   GL2  473   9.448   7.138   7.760
    4POPC   C1A  474   9.188   7.106   7.314
    4POPC   D2A  475   9.156   6.912   6.936
    4POPC   C3A  476   9.202   7.158   6.569
    4POPC   C4A  477   9.218   7.100   6.144
    4POPC   C1B  478   9.716   7.152   7.392
    4POPC   C2B  479   9.794   6.985   6.985
    4POPC   C3B  480   9.875   7.221   6.611
    4POPC   C4B  481   9.631   7.431   6.281
    5POPC   NC3  482   5.909   8.554   8.083
    5POPC   PO4  483   5.727   9.228   8.133
    5POPC   GL1  484   5.914   8.961   7.783
    5POPC   GL2  485   5.620   8.945   7.533
    5POPC   C1A  486   6.080   9.023   7.368
    5POPC   D2A  487   5.820   9.242   7.020
    5POPC   C3A  488   5.744   9.067   6.585
    5POPC   C4A  489   5.710   8.690   6.313
    5POPC   C1B  490   5.735   8.730   7.127
    5POPC   C2B  491   5.522   8.498   6.781
    5POPC   C3B  492   5.522   8.213   6.415
    5POPC   C4B  493   5.683   8.257   5.987
    6POPC   NC3  494   6.451   1.959   8.132
    6POPC   PO4  495   6.058   2.427   8.005
    6POPC   GL1  496   6.380   2.151   7.661
    6POPC   GL2  497   6.497   1.790   7.640
    6POPC   C1A  498   6.519   2.063   7.182
    6POPC   D2A  499   6.353   2.271   6.790
    6POPC   C3A  500   6.600   2.282   6.409
    6POPC   C4A  501   6.434   2.262   6.005
    6POPC   C1B  502   6.667   1.463   7.342
    6POPC   C2B  503   6.712   1.582   6.922
    6POPC   C3B  504   6.617   1.844   6.654
    6POPC   C4B  505   6.403   1.828   6.281
    7POPC   NC3  506   8.796   5.846   7.871
    7POPC   PO4  507   8.830   5.258   8.108
    7POPC   GL1  508   8.688   5.312   7.673
    7POPC   GL2  509   8.493   5.587   7.558
    7POPC   C1A  510   8.918   5.471   7.316
    7POPC   D2A  511   9.020   5.621   6.901
    7POPC   C3A  512   8.911   5.541   6.484
    7POPC   C4A  513   8.923   5.640   6.063
    7POPC   C1B  514   8.484   5.634   7.114
    7POPC   C2B  515   8.489   5.412   6.722
    7POPC   C3B  516   8.425   5.599   6.303
    7POPC   C4B  517   8.087   5.686   6.034
    8POPC   NC3  518   3.728   9.688   8.065
    8POPC   PO4  519   3.074   9.723   8.212
    8POPC   GL1  520   3.265   9.720   7.806
    8POPC   GL2  521   3.366   9.371   7.800
    8POPC   C1A  522   3.332   9.809   7.363
    8POPC   D2A  523   3.170   9.707   6.913
    8POPC   C3A  524   3.469   9.573   6.584
    8POPC   C4A  525   3.471   9.428   6.149
    8POPC   C1B  526   3.425   9.218   7.391
    8POPC   C2B  527   3.462   9.229   6.964
    8POPC   C3B  528   3.566   9.049   6.557
    8POPC   C4B  529   3.766   8.953   6.172
    9POPC   NC3  530   2.628   7.871   8.432
    9POPC   PO4  531   3.053   8.216   8.093
    9POPC   GL1  532   2.678   7.976   7.893
    9POPC   GL2  533   2.449   8.183   7.716
    9POPC   C1A  534   2.591   7.773   7.444
    9POPC   D2A  535   2.845   7.683   7.048
    9POPC   C3A  536   2.666   7.716   6.622
    9POPC   C4A  537   2.484   7.526   6.252
    9POPC   C1B  538   2.873   8.207   7.457
    9POPC   C2B  539   3.013   8.172   7.034
    9POPC   C3B  540   3.001   8.097   6.568
    9POPC   C4B  541   2.789   7.971   6.169
   10POPC   NC3  542   8.481   7.008   8.215
   10POPC   PO4  543   8.485   7.568   8.399
   10POPC   GL1  544   8.646   7.450   7.900
   10POPC   GL2  545   8.567   7.107   7.694
   10POPC   C1A  546   8.737   7.494   7.380
   10POPC   D2A  547   8.643   7.683   6.924
   10POPC   C3A  548   8.444   7.499   6.508
   10POPC   C4A  549   8.425   7.486   6.024
   10POPC   C1B  550   8.692   6.994   7.250
   10POPC   C2B  551   8.727   7.145   6.796
   10POPC   C3B  552   8.737   7.028   6.337
   10POPC   C4B  553   8.790   7.162   5.883
   11POPC   NC3  554   6.138   9.072   8.239
   11POPC   PO4  555   6.313   8.385   8.193
   11POPC   GL1  556   6.327   8.604   7.772
   11POPC   GL2  557   6.650   8.761   7.728
   11POPC   C1A  558   6.353   8.605   7.297
   11POPC   D2A  559   6.668   8.432   6.996
   11POPC   C3A  560   6.565   8.521   6.547
   11POPC   C4A  561   6.417   8.542   6.112
   11POPC   C1B  562   6.739   8.914   7.325
   11POPC   C2B  563   6.620   8.929   6.899
   11POPC   C3B  564   6.604   9.020   6.481
   11POPC   C4B  565   6.167   8.983   6.257
   12POPC   NC3  566   5.053   1.159   8.079
   12POPC   PO4  567   5.275   1.811   8.089
   12POPC   GL1  568   4.920   1.586   7.790
   12POPC   GL2  569   4.929   1.263   7.610
   12POPC   C1A  570   4.688   1.587   7.334
   12POPC   D2A  571   4.915   1.511   6.914
   12POPC   C3A  572   4.793   1.485   6.477
   12POPC   C4A  573   4.834   1.459   5.999
   12POPC   C1B  574   4.920   1.085   7.203
   12POPC   C2B  575   4.984   1.030   6.759
   12POPC   C3B  576   5.046   1.067   6.322
   12POPC   C4B  577   4.631   1.014   6.154
   13POPC   NC3  578   0.206   9.517   7.886
   13POPC   PO4  579   9.994   9.424   8.067
   13POPC   GL1  580  10.208   9.558   7.730
   13POPC   GL2  581  10.302   9.215   7.683
   13POPC   C1A  582  10.126   9.798   7.351
   13POPC   D2A  583  10.296   9.784   6.931
   13POPC   C3A  584  10.094   9.883   6.541
   13POPC   C4A  585  10.201   9.669   6.146
   13POPC   C1B  586  10.311   9.318   7.263
   13POPC   C2B  587  10.421   9.271   6.837
   13POPC   C3B  588  10.099   9.361   6.551
   13POPC   C4B  589   9.974   9.214   6.157
   14POPC   NC3  590   1.693   5.537   8.419
   14POPC   PO4  591   1.076   5.450   8.175
   14POPC   GL1  592   1.148   5.553   7.735
   14POPC   GL2  593   1.335   5.278   7.590
   14POPC   C1A  594   1.114   5.807   7.350
   14POPC   D2A  595   1.258   5.672   6.924
   14POPC   C3A  596   1.121   5.915   6.537
   14POPC   C4A  597   1.136   5.720   6.135
   14POPC   C1B  598   0.929   5.343   7.311
   14POPC   C2B  599   0.804   5.378   6.847
   14POPC   C3B  600   0.852   5.370   6.381
   14POPC   C4B  601   0.877   5.316   5.910
   15POPC   NC3  602   8.586   3.374   8.011
   15POPC   PO4  603   8.697   4.000   7.782
   15POPC   GL1  604   8.693   3.662   7.475
   15POPC   GL2  605   8.684   3.276   7.509
   15POPC   C1A  606   8.809   3.535   7.042
   15POPC   D2A  607   8.589   3.422   6.664
   15POPC   C3A  608   8.845   3.313   6.349
   15POPC   C4A  609   8.839   3.583   6.012
   15POPC   C1B  610   8.349   3.392   7.188
   15POPC   C2B  611   8.197   3.678   6.861
   15POPC   C3B  612   8.105   3.515   6.443
   15POPC   C4B  613   8.378   3.386   6.123
   16POPC   NC3  614   0.462   2.774   8.107
   16POPC   PO4  615   0.311   2.116   8.157
   16POPC   GL1  616   0.386   2.387   7.745
   16POPC   GL2  617   0.162   2.690   7.708
   16POPC   C1A  618   0.142   2.410   7.311
   16POPC   D2A  619   0.166   2.652   6.918
   16POPC   C3A  620   0.442   2.546   6.558
   16POPC   C4A  621   0.116   2.450   6.257
   16POPC   C1B  622   0.431   2.833   7.338
   16POPC   C2B  623   0.460   3.083   6.957
   16POPC   C3B  624   0.329   3.048   6.524
   16POPC   C4B  625   0.456   2.860   6.139
   17POPC   NC3  626   8.895   7.776   8.300
   17POPC   PO4  627   8.555   8.152   7.911
   17POPC   GL1  628   8.679   8.003   7.567
   17POPC   GL2  629   8.965   7.817   7.683
   17POPC   C1A  630   8.635   8.237   7.196
   17POPC   D2A  631   8.353   8.267   6.902
   17POPC   C3A  632   8.476   8.066   6.583
   17POPC   C4A  633   8.594   8.180   6.157
   17POPC   C1B  634   9.058   7.929   7.237
   17POPC   C2B  635   8.962   8.110   6.819
   17POPC   C3B  636   8.930   7.915   6.424
   17POPC   C4B  637   8.910   7.494   6.273
   18POPC   NC3  638   2.871  10.095   8.419
   18POPC   PO4  639   3.298  10.278   7.934
   18POPC   GL1  640   3.628  10.283   7.630
   18POPC   GL2  641   3.936  10.129   7.765
   18POPC   C1A  642   3.574  10.331   7.195
   18POPC   D2A  643   3.456  10.226   6.762
   18POPC   C3A  644   3.622  10.424   6.360
   18POPC   C4A  645   3.419  10.319   5.937
   18POPC   C1B  646   3.857   9.884   7.391
   18POPC   C2B  647   3.682   9.830   6.995
   18POPC   C3B  648   3.820   9.932   6.585
   18POPC   C4B  649   3.561   9.935   6.236
   19POPC   NC3  650   9.643   8.294   8.009
   19POPC   PO4  651   9.345   7.821   8.427
   19POPC   GL1  652   9.486   7.787   7.880
   19POPC   GL2  653   9.417   8.054   7.630
   19POPC   C1A  654   9.375   7.574   7.446
   19POPC   D2A  655   9.146   7.492   6.996
   19POPC   C3A  656   9.318   7.654   6.601
   19POPC   C4A  657   9.312   7.768   6.123
   19POPC   C1B  658   9.592   8.172   7.282
   19POPC   C2B  659   9.464   8.037   6.905
   19POPC   C3B  660   9.433   8.136   6.473
   19POPC   C4B  661   9.705   8.083   6.121
   20POPC   NC3  662   8.402   9.175   8.251
   20POPC   PO4  663   9.003   8.898   8.122
   20POPC   GL1  664   8.703   9.034   7.738
   20POPC   GL2  665   8.548   9.369   7.747
   20POPC   C1A  666   8.600   9.160   7.271
   20POPC   D2A  667   8.775   9.150   6.859
   20POPC   C3A  668   8.581   9.106   6.481
   20POPC   C4A  669   8.790   9.100   6.088
   20POPC   C1B  670   8.892   9.528   7.453
   20POPC   C2B  671   8.925   9.618   7.006
   20POPC   C3B  672   8.621   9.619   6.674
   20POPC   C4B  673   8.702   9.556   6.259
   21POPC   NC3  674   9.499   4.602   8.544
   21POPC   PO4  675   9.408   4.473   7.883
   21POPC   GL1  676   9.496   4.764   7.612
   21POPC   GL2  677   9.524   5.046   7.799
   21POPC   C1A  678   9.485   4.808   7.166
   21POPC   D2A  679   9.183   4.739   6.873
   21POPC   C3A  680   9.327   4.712   6.468
   21POPC   C4A  681   9.066   4.815   6.171
   21POPC   C1B  682   9.680   5.228   7.415
   21POPC   C2B  683   9.414   5.338   7.081
   21POPC   C3B  684   9.249   5.213   6.696
   21POPC   C4B  685   9.369   5.228   6.290
   22POPC   NC3  686   0.785   0.929   8.124
   22POPC   PO4  687   1.394   0.777   8.027
   22POPC   GL1  688   1.125   0.920   7.714
   22POPC   GL2  689   1.059   1.263   7.838
   22POPC   C1A  690   1.175   1.050   7.289
   22POPC   D2A  691   1.399   1.067   6.922
   22POPC   C3A  692   1.211   0.890   6.592
   22POPC   C4A  693   1.155   1.103   6.217
   22POPC   C1B  694   1.324   1.461   7.538
   22POPC   C2B  695   1.252   1.545   7.102
   22POPC   C3B  696   1.105   1.446   6.681
   22POPC   C4B  697   1.396   1.526   6.367
   23POPC   NC3  698   6.889   8.733   8.176
   23POPC   PO4  699   7.324   9.228   8.202
   23POPC   GL1  700   7.068   9.085   7.833
   23POPC   GL2  701   7.205   8.733   7.766
   23POPC   C1A  702   7.211   9.055   7.381
   23POPC   D2A  703   7.171   8.799   7.008
   23POPC   C3A  704   7.258   8.910   6.566
   23POPC   C4A  705   7.021   8.815   6.184
   23POPC   C1B  706   7.033   8.483   7.421
   23POPC   C2B  707   7.161   8.274   7.036
   23POPC   C3B  708   7.061   8.444   6.632
   23POPC   C4B  709   6.912   8.331   6.221
   24POPC   NC3  710   0.105   6.415   8.323
   24POPC   PO4  711   9.975   6.392   8.147
   24POPC   GL1  712   9.882   6.448   7.714
   24POPC   GL2  713  10.170   6.276   7.670
   24POPC   C1A  714   9.806   6.302   7.251
   24POPC   D2A  715   9.974   6.501   6.834
   24POPC   C3A  716   9.762   6.348   6.479
   24POPC   C4A  717   9.799   6.049   6.187
   24POPC   C1B  718  10.299   6.369   7.252
   24POPC   C2B  719  10.454   6.377   6.820
   24POPC   C3B  720  10.299   6.358   6.384
   24POPC   C4B  721  10.428   6.588   6.006
   25POPC   NC3  722   5.384   0.387   8.253
   25POPC   PO4  723   4.675   0.182   8.211
   25POPC   GL1  724   4.778   0.411   7.804
   25POPC   GL2  725   4.966   0.737   7.729
   25POPC   C1A  726   5.009   0.294   7.400
   25POPC   D2A  727   5.136   0.385   6.989
   25POPC   C3A  728   4.964   0.102   6.683
   25POPC   C4A  729   5.067   0.168   6.246
   25POPC   C1B  730   4.676   0.672   7.365
   25POPC   C2B  731   4.662   0.630   6.908
   25POPC   C3B  732   4.880   0.586   6.509
   25POPC   C4B  733   4.947   0.627   6.063
   26POPC   NC3  734   5.943   1.240   8.058
   26POPC   PO4  735   5.424   0.823   8.043
   26POPC   GL1  736   5.391   1.032   7.608
   26POPC   GL2  737   5.440   1.399   7.692
   26POPC   C1A  738   5.416   1.147   7.121
   26POPC   D2A  739   5.759   1.206   6.769
   26POPC   C3A  740   5.603   1.031   6.360
   26POPC   C4A  741   5.404   0.858   5.994
   26POPC   C1B  742   5.691   1.512   7.297
   26POPC   C2B  743   5.476   1.639   6.897
   26POPC   C3B  744   5.444   1.529   6.479
   26POPC   C4B  745   5.826   1.463   6.227
   27POPC   NC3  746   9.409   5.170   8.281
   27POPC   PO4  747   9.640   5.832   8.218
   27POPC   GL1  748   9.488   5.780   7.805
   27POPC   GL2  749   9.722   5.980   7.664
   27POPC   C1A  750   9.309   5.773   7.375
   27POPC   D2A  751   9.485   5.865   6.949
   27POPC   C3A  752   9.369   5.757   6.542
   27POPC   C4A  753   9.313   6.113   6.297
   27POPC   C1B  754   9.810   5.728   7.311
   27POPC   C2B  755   9.890   5.534   6.940
   27POPC   C3B  756   9.736   5.319   6.647
   27POPC   C4B  757   9.759   5.560   6.281
   28POPC   NC3  758   5.322   9.139   7.913
   28POPC   PO4  759   5.711   9.721   8.076
   28POPC   GL1  760   5.535   9.555   7.729
   28POPC   GL2  761   5.821   9.424   7.637
   28POPC   C1A  762   5.394   9.344   7.306
   28POPC   D2A  763   5.188   9.477   6.924
   28POPC   C3A  764   5.322   9.371   6.517
   28POPC   C4A  765   5.406   9.599   6.160
   28POPC   C1B  766   5.773   9.691   7.306
   28POPC   C2B  767   5.600   9.810   6.931
   28POPC   C3B  768   5.747   9.636   6.559
   28POPC   C4B  769   5.945   9.470   6.220
   29POPC   NC3  770   9.530   2.610   8.383
   29POPC   PO4  771   9.733   3.219   8.157
   29POPC   GL1  772   9.635   2.862   7.853
   29POPC   GL2  773   9.264   2.756   7.780
   29POPC   C1A  774   9.617   2.711   7.406
   29POPC   D2A  775   9.282   2.764   7.080
   29POPC   C3A  776   9.415   2.852   6.670
   29POPC   C4A  777   9.631   2.600   6.353
   29POPC   C1B  778   9.209   2.395   7.472
   29POPC   C2B  779   9.138   2.274   7.056
   29POPC   C3B  780   9.272   2.358   6.648
   29POPC   C4B  781   9.196   2.369   6.211
   30POPC   NC3  782   2.697   3.423   8.508
   30POPC   PO4  783   2.243   3.380   8.183
   30POPC   GL1  784   2.313   3.436   7.760
   30POPC   GL2  785   2.429   3.112   7.726
   30POPC   C1A  786   2.545   3.431   7.342
   30POPC   D2A  787   2.722   3.333   6.941
   30POPC   C3A  788   2.560   3.492   6.534
   30POPC   C4A  789   2.425   3.444   6.101
   30POPC   C1B  790   2.841   3.027   7.480
   30POPC   C2B  791   2.902   2.868   7.054
   30POPC   C3B  792   2.969   3.006   6.625
   30POPC   C4B  793   3.139   3.244   6.273
   31POPC   NC3  794   4.681  10.184   8.360
   31POPC   PO4  795   4.175   9.834   8.119
   31POPC   GL1  796   4.456   9.948   7.798
   31POPC   GL2  797   4.436  10.272   7.684
   31POPC   C1A  798   4.434   9.891   7.337
   31POPC   D2A  799   4.174   9.930   6.965
   31POPC   C3A  800   4.316   9.807   6.564
   31POPC   C4A  801   4.457   9.949   6.160
   31POPC   C1B  802   4.140  10.318   7.323
   31POPC   C2B  803   3.976  10.384   6.898
   31POPC   C3B  804   4.169  10.300   6.519
   31POPC   C4B  805   4.155   0.039   6.192
   32POPC   NC3  806   2.786   5.303   8.623
   32POPC   PO4  807   2.343   5.218   8.161
   32POPC   GL1  808   2.424   5.328   7.657
   32POPC   GL2  809   2.426   5.710   7.605
   32POPC   C1A  810   2.570   5.432   7.199
   32POPC   D2A  811   2.672   5.625   6.787
   32POPC   C3A  812   2.857   5.419   6.382
   32POPC   C4A  813   3.088   5.509   5.961
   32POPC   C1B  814   2.427   5.940   7.181
   32POPC   C2B  815   2.255   5.945   6.746
   32POPC   C3B  816   2.414   5.723   6.366
   32POPC   C4B  817   2.377   5.890   5.933
   33POPC   NC3  818   5.672  10.177   8.169
   33POPC   PO4  819   6.285  10.101   7.925
   33POPC   GL1  820   5.947  10.019   7.651
   33POPC   GL2  821   5.600  10.113   7.682
   33POPC   C1A  822   5.810  10.181   7.242
   33POPC   D2A  823   5.972  10.355   6.903
   33POPC   C3A  824   5.842  10.132   6.568
   33POPC   C4A  825   5.996  10.158   6.157
   33POPC   C1B  826   5.313  10.329   7.366
   33POPC   C2B  827   5.426  10.331   6.922
   33POPC   C3B  828   5.396  10.380   6.492
   33POPC   C4B  829   5.501  10.148   6.137
   34POPC   NC3  830   6.176   9.656   7.961
   34POPC   PO4  831   6.582   9.112   8.156
   34POPC   GL1  832   6.408   9.240   7.733
   34POPC   GL2  833   6.706   9.364   7.554
   34POPC   C1A  834   6.230   9.492   7.351
   34POPC   D2A  835   6.118   9.645   6.932
   34POPC   C3A  836   6.194   9.330   6.628
   34POPC   C4A  837   6.456   9.416   6.226
   34POPC   C1B  838   6.652   9.640   7.167
   34POPC   C2B  839   6.611   9.556   6.756
   34POPC   C3B  840   6.764   9.761   6.445
   34POPC   C4B  841   6.948   9.824   6.093
   35POPC   NC3  842   0.599   1.804   7.904
   35POPC   PO4  843  10.407   1.768   7.971
   35POPC   GL1  844   0.179   1.600   7.729
   35POPC   GL2  845   0.207   1.934   7.598
   35POPC   C1A  846   0.339   1.535   7.321
   35POPC   D2A  847   0.325   1.701   6.946
   35POPC   C3A  848   0.537   1.557   6.613
   35POPC   C4A  849   0.403   1.688   6.213
   35POPC   C1B  850   0.491   2.047   7.314
   35POPC   C2B  851   0.420   2.197   6.932
   35POPC   C3B  852   0.292   2.055   6.550
   35POPC   C4B  853   0.564   2.164   6.198
   36POPC   NC3  854   3.490   0.988   8.190
   36POPC   PO4  855   3.104   1.394   7.923
   36POPC   GL1  856   3.393   1.188   7.681
   36POPC   GL2  857   3.477   0.834   7.677
   36POPC   C1A  858   3.265   1.111   7.278
   36POPC   D2A  859   3.001   1.082   6.950
   36POPC   C3A  860   3.261   1.212   6.600
   36POPC   C4A  861   3.161   1.347   6.193
   36POPC   C1B  862   3.758   0.988   7.307
   36POPC   C2B  863   3.854   1.235   6.975
   36POPC   C3B  864   3.849   1.104   6.602
   36POPC   C4B  865   3.649   1.195   6.240
   37POPC   NC3  866   9.802   4.283   8.039
   37POPC   PO4  867   0.016   4.384   8.020
   37POPC   GL1  868  10.330   4.430   7.677
   37POPC   GL2  869  10.075   4.184   7.619
   37POPC   C1A  870  10.415   4.430   7.284
   37POPC   D2A  871  10.135   4.452   6.974
   37POPC   C3A  872  10.361   4.483   6.639
   37POPC   C4A  873  10.213   4.617   6.242
   37POPC   C1B  874  10.277   3.937   7.300
   37POPC   C2B  875  10.148   3.939   6.905
   37POPC   C3B  876   9.985   4.176   6.564
   37POPC   C4B  877  10.113   4.110   6.141
   38POPC   NC3  878   7.591   0.135   7.850
   38POPC   PO4  879   7.663   0.764   8.011
   38POPC   GL1  880   7.888   0.521   7.692
   38POPC   GL2  881   7.982   0.152   7.546
   38POPC   C1A  882   7.869   0.582   7.273
   38POPC   D2A  883   7.838   0.857   6.963
   38POPC   C3A  884   7.770   0.690   6.591
   38POPC   C4A  885   8.020   0.694   6.263
   38POPC   C1B  886   7.990   0.092   7.143
   38POPC   C2B  887   7.711   0.240   6.831
   38POPC   C3B  888   7.939   0.204   6.462
   38POPC   C4B  889   7.939   0.260   6.009
   39POPC   NC3  890   8.074   1.961   8.137
   39POPC   PO4  891   7.491   1.608   8.198
   39POPC   GL1  892   7.552   1.640   7.731
   39POPC   GL2  893   7.864   1.776   7.715
   39POPC   C1A  894   7.631   1.641   7.279
   39POPC   D2A  895   7.894   1.726   6.944
   39POPC   C3A  896   7.627   1.744   6.608
   39POPC   C4A  897   7.602   1.807   6.208
   39POPC   C1B  898   7.952   2.038   7.383
   39POPC   C2B  899   8.219   2.118   7.004
   39POPC   C3B  900   8.028   2.084   6.592
   39POPC   C4B  901   7.945   2.154   6.174
   40POPC   NC3  902  10.296   7.838   7.975
   40POPC   PO4  903   9.825   7.373   8.021
   40POPC   GL1  904   9.899   7.581   7.623
   40POPC   GL2  905   9.920   7.943   7.624
   40POPC   C1A  906   9.810   7.663   7.171
   40POPC   D2A  907   9.964   7.948   6.841
   40POPC   C3A  908  10.051   7.819   6.406
   40POPC   C4A  909  10.427   7.778   6.107
   40POPC   C1B  910  10.266   7.852   7.327
   40POPC   C2B  911  10.459   8.012   6.959
   40POPC   C3B  912  10.397   8.192   6.548
   40POPC   C4B  913  10.208   8.247   6.126
   41POPC   NC3  914   2.175   4.745   8.062
   41POPC   PO4  915   1.701   5.283   8.036
   41POPC   GL1  916   1.872   5.256   7.598
   41POPC   GL2  917   1.823   4.921   7.541
   41POPC   C1A  918   2.201   5.091   7.255
   41POPC   D2A  919   2.182   4.960   6.795
   41POPC   C3A  920   2.387   5.162   6.413
   41POPC   C4A  921   2.264   4.967   6.004
   41POPC   C1B  922   1.739   5.192   7.114
   41POPC   C2B  923   1.684   5.122   6.677
   41POPC   C3B  924   1.902   4.898   6.345
   41POPC   C4B  925   1.771   4.657   5.959
   42POPC   NC3  926   7.717   8.448   8.207
   42POPC   PO4  927   8.386   8.422   8.418
   42POPC   GL1  928   8.123   8.385   7.911
   42POPC   GL2  929   7.814   8.583   7.732
   42POPC   C1A  930   8.105   8.331   7.404
   42POPC   D2A  931   7.919   8.496   6.991
   42POPC   C3A  932   7.947   8.279   6.557
   42POPC   C4A  933   8.134   8.377   6.151
   42POPC   C1B  934   7.653   8.804   7.345
   42POPC   C2B  935   7.708   8.937   6.896
   42POPC   C3B  936   7.753   8.823   6.458
   42POPC   C4B  937   7.516   8.948   6.078
   43POPC   NC3  938   1.170   5.907   8.103
   43POPC   PO4  939   1.267   6.602   8.079
   43POPC   GL1  940   1.366   6.261   7.802
   43POPC   GL2  941   1.049   6.185   7.676
   43POPC   C1A  942   1.487   6.136   7.405
   43POPC   D2A  943   1.261   6.195   7.032
   43POPC   C3A  944   1.462   6.350   6.678
   43POPC   C4A  945   1.491   6.184   6.277
   43POPC   C1B  946   1.159   6.567   7.430
   43POPC   C2B  947   1.180   6.811   7.071
   43POPC   C3B  948   1.212   6.884   6.633
   43POPC   C4B  949   1.154   6.588   6.317
   44POPC   NC3  950   1.439   3.182   8.407
   44POPC   PO4  951   0.869   3.000   8.064
   44POPC   GL1  952   1.134   3.179   7.709
   44POPC   GL2  953   1.246   3.550   7.754
   44POPC   C1A  954   1.216   3.309   7.274
   44POPC   D2A  955   1.151   3.578   6.930
   44POPC   C3A  956   1.252   3.318   6.627
   44POPC   C4A  957   1.060   3.280   6.260
   44POPC   C1B  958   1.461   3.746   7.376
   44POPC   C2B  959   1.657   3.539   7.018
   44POPC   C3B  960   1.601   3.687   6.619
   44POPC   C4B  961   1.417   3.619   6.235
   45POPC   NC3  962   1.192   9.483   7.903
   45POPC   PO4  963   0.754   8.957   8.134
   45POPC   GL1  964   0.835   9.143   7.672
   45POPC   GL2  965   0.993   9.482   7.455
   45POPC   C1A  966   0.762   9.126   7.225
   45POPC   D2A  967   1.068   9.342   6.960
   45POPC   C3A  968   0.901   9.453   6.588
   45POPC   C4A  969   0.884   9.171   6.253
   45POPC   C1B  970   1.381   9.611   7.295
   45POPC   C2B  971   1.467   9.723   6.907
   45POPC   C3B  972   1.415   9.479   6.581
   45POPC   C4B  973   1.252   9.496   6.205
   46POPC   NC3  974   8.885   2.475   8.415
   46POPC   PO4  975   8.469   2.994   8.255
   46POPC   GL1  976   8.508   2.819   7.778
   46POPC   GL2  977   8.757   2.520   7.787
   46POPC   C1A  978   8.363   2.869   7.301
   46POPC   D2A  979   8.555   2.985   6.915
   46POPC   C3A  980   8.370   2.979   6.490
   46POPC   C4A  981   8.597   2.930   6.114
   46POPC   C1B  982   8.807   2.651   7.334
   46POPC   C2B  983   8.632   2.474   6.945
   46POPC   C3B  984   8.719   2.599   6.518
   46POPC   C4B  985   9.054   2.834   6.313
   47POPC   NC3  986   0.470   8.570   8.071
   47POPC   PO4  987   0.080   9.124   8.118
   47POPC   GL1  988   0.127   8.803   7.758
   47POPC   GL2  989   0.485   8.760   7.594
   47POPC   C1A  990   0.067   8.531   7.383
   47POPC   D2A  991   0.225   8.453   6.970
   47POPC   C3A  992   0.264   8.693   6.613
   47POPC   C4A  993   0.117   8.545   6.205
   47POPC   C1B  994   0.659   8.638   7.184
   47POPC   C2B  995   0.778   8.417   6.792
   47POPC   C3B  996   0.832   8.689   6.428
   47POPC   C4B  997   0.487   8.871   6.175
   48POPC   NC3  998   2.742   0.535   8.104
   48POPC   PO4  999   2.576  10.383   8.129
   48POPC   GL1 1000   2.574   0.225   7.741
   48POPC   GL2 1001   2.626   0.595   7.617
   48POPC   C1A 1002   2.548   0.212   7.294
   48POPC   D2A 1003   2.570   0.513   6.973
   48POPC   C3A 1004   2.714   0.344   6.579
   48POPC   C4A 1005   2.486   0.363   6.183
   48POPC   C1B 1006   2.953   0.688   7.320
   48POPC   C2B 1007   3.064   0.590   6.886
   48POPC   C3B 1008   3.037   0.766   6.534
   48POPC   C4B 1009   2.905   0.652   6.185
   49POPC   NC3 1010   9.650   0.265   8.376
   49POPC   PO4 1011   9.641   0.734   7.909
   49POPC   GL1 1012   9.579   0.456   7.604
   49POPC   GL2 1013   9.236   0.446   7.628
   49POPC   C1A 1014   9.497   0.327   7.179
   49POPC   D2A 1015   9.137   0.152   6.933
   49POPC   C3A 1016   9.312   0.224   6.521
   49POPC   C4A 1017   9.653   0.188   6.187
   49POPC   C1B 1018   9.274   0.761   7.308
   49POPC   C2B 1019   9.223   0.658   6.897
   49POPC   C3B 1020   9.326   0.801   6.521
   49POPC   C4B 1021   9.401   0.615   6.194
   50POPC   NC3 1022   3.959   1.053   7.882
   50POPC   PO4 1023   4.568   1.176   8.186
   50POPC   GL1 1024   4.521   0.997   7.795
   50POPC   GL2 1025   4.340   0.708   7.764
   50POPC   C1A 1026   4.435   1.118   7.370
   50POPC   D2A 1027   4.400   1.354   6.981
   50POPC   C3A 1028   4.378   1.209   6.577
   50POPC   C4A 1029   4.351   1.455   6.182
   50POPC   C1B 1030   4.160   0.671   7.359
   50POPC   C2B 1031   4.205   0.864   6.976
   50POPC   C3B 1032   4.215   0.718   6.578
   50POPC   C4B 1033   4.122   0.956   6.209
   51POPC   NC3 1034   3.185   2.688   8.038
   51POPC   PO4 1035   3.755   2.751   8.096
   51POPC   GL1 1036   3.622   2.732   7.651
   51POPC   GL2 1037   3.411   2.427   7.634
   51POPC   C1A 1038   3.646   2.927   7.203
   51POPC   D2A 1039   3.442   2.972   6.782
   51POPC   C3A 1040   3.632   3.022   6.359
   51POPC   C4A 1041   3.529   3.155   5.917
   51POPC   C1B 1042   3.282   2.535   7.209
   51POPC   C2B 1043   3.157   2.519   6.780
   51POPC   C3B 1044   3.299   2.640   6.391
   51POPC   C4B 1045   3.207   2.347   6.050
   52POPC   NC3 1046   2.512   1.199   7.975
   52POPC   PO4 1047   2.865   1.604   8.366
   52POPC   GL1 1048   2.697   1.612   7.771
   52POPC   GL2 1049   2.808   1.252   7.555
   52POPC   C1A 1050   2.650   1.606   7.247
   52POPC   D2A 1051   2.879   1.546   6.814
   52POPC   C3A 1052   2.744   1.209   6.473
   52POPC   C4A 1053   2.545   1.344   6.061
   52POPC   C1B 1054   2.561   0.999   7.277
   52POPC   C2B 1055   2.343   0.980   6.890
   52POPC   C3B 1056   2.460   0.780   6.524
   52POPC   C4B 1057   2.440   0.860   6.107
   53POPC   NC3 1058   3.468   7.951   8.073
   53POPC   PO4 1059   3.925   8.469   7.998
   53POPC   GL1 1060   3.679   8.357   7.613
   53POPC   GL2 1061   3.351   8.189   7.651
   53POPC   C1A 1062   3.532   8.262   7.177
   53POPC   D2A 1063   3.419   8.304   6.764
   53POPC   C3A 1064   3.482   8.015   6.420
   53POPC   C4A 1065   3.294   8.076   6.019
   53POPC   C1B 1066   3.282   7.850   7.359
   53POPC   C2B 1067   3.363   7.803   6.910
   53POPC   C3B 1068   3.167   7.610   6.540
   53POPC   C4B 1069   3.156   7.600   6.096
   54POPC   NC3 1070   3.635   8.830   7.903
   54POPC   PO4 1071   3.060   8.994   7.998
   54POPC   GL1 1072   3.039   8.931   7.584
   54POPC   GL2 1073   3.276   8.685   7.555
   54POPC   C1A 1074   2.945   8.700   7.180
   54POPC   D2A 1075   3.243   8.768   6.881
   54POPC   C3A 1076   3.186   8.679   6.487
   54POPC   C4A 1077   3.222   8.949   6.150
   54POPC   C1B 1078   3.621   8.763   7.230
   54POPC   C2B 1079   3.791   8.652   6.799
   54POPC   C3B 1080   3.667   8.494   6.368
   54POPC   C4B 1081   3.514   8.565   5.925
   55POPC   NC3 1082   1.380   4.143   8.136
   55POPC   PO4 1083   0.982   4.593   8.114
   55POPC   GL1 1084   0.920   4.349   7.730
   55POPC   GL2 1085   1.066   4.035   7.734
   55POPC   C1A 1086   1.165   4.398   7.328
   55POPC   D2A 1087   1.257   4.573   6.896
   55POPC   C3A 1088   0.992   4.497   6.555
   55POPC   C4A 1089   1.074   4.406   6.135
   55POPC   C1B 1090   0.994   3.920   7.300
   55POPC   C2B 1091   1.329   4.058   6.961
   55POPC   C3B 1092   1.266   4.060   6.510
   55POPC   C4B 1093   0.947   3.765   6.386
   56POPC   NC3 1094   9.119   8.479   8.302
   56POPC   PO4 1095   9.640   8.788   8.049
   56POPC   GL1 1096   9.466   8.638   7.665
   56POPC   GL2 1097   9.185   8.847   7.637
   56POPC   C1A 1098   9.518   8.713   7.218
   56POPC   D2A 1099   9.293   8.518   6.841
   56POPC   C3A 1100   9.484   8.642   6.494
   56POPC   C4A 1101   9.477   8.540   6.074
   56POPC   C1B 1102   9.150   9.104   7.275
   56POPC   C2B 1103   9.259   9.018   6.862
   56POPC   C3B 1104   9.083   8.942   6.470
   56POPC   C4B 1105   9.296   9.008   6.077
   57POPC   NC3 1106   1.079   7.830   8.130
   57POPC   PO4 1107   1.416   8.271   7.832
   57POPC   GL1 1108   1.237   7.934   7.638
   57POPC   GL2 1109   0.857   7.877   7.669
   57POPC   C1A 1110   1.393   7.970   7.228
   57POPC   D2A 1111   1.488   7.736   6.904
   57POPC   C3A 1112   1.332   7.881   6.547
   57POPC   C4A 1113   1.523   7.870   6.194
   57POPC   C1B 1114   0.831   7.717   7.265
   57POPC   C2B 1115   0.966   7.919   6.913
   57POPC   C3B 1116   0.814   7.926   6.511
   57POPC   C4B 1117   0.987   7.969   6.142
   58POPC   NC3 1118   2.098   7.331   8.026
   58POPC   PO4 1119   1.481   7.578   8.072
   58POPC   GL1 1120   1.606   7.311   7.698
   58POPC   GL2 1121   1.921   7.301   7.559
   58POPC   C1A 1122   1.564   7.086   7.291
   58POPC   D2A 1123   1.757   7.298   6.922
   58POPC   C3A 1124   1.601   7.200   6.484
   58POPC   C4A 1125   1.659   6.758   6.285
   58POPC   C1B 1126   2.321   7.326   7.367
   58POPC   C2B 1127   2.383   7.433   6.939
   58POPC   C3B 1128   2.109   7.473   6.597
   58POPC   C4B 1129   2.048   7.222   6.217
   59POPC   NC3 1130   6.928   9.459   8.209
   59POPC   PO4 1131   7.567   9.840   8.131
   59POPC   GL1 1132   7.263   9.601   7.832
   59POPC   GL2 1133   7.472   9.353   7.682
   59POPC   C1A 1134   7.128   9.574   7.357
   59POPC   D2A 1135   6.953   9.282   7.019
   59POPC   C3A 1136   7.052   9.364   6.592
   59POPC   C4A 1137   6.964   9.312   6.173
   59POPC   C1B 1138   7.636   9.346   7.299
   59POPC   C2B 1139   7.434   9.344   6.944
   59POPC   C3B 1140   7.582   9.329   6.563
   59POPC   C4B 1141   7.453   9.430   6.212
   60POPC   NC3 1142   0.497   7.513   7.868
   60POPC   PO4 1143   0.661   8.152   8.064
   60POPC   GL1 1144   0.461   8.234   7.668
   60POPC   GL2 1145   0.204   7.968   7.617
   60POPC   C1A 1146   0.567   8.154   7.252
   60POPC   D2A 1147   0.455   8.017   6.867
   60POPC   C3A 1148   0.399   8.222   6.497
   60POPC   C4A 1149   0.613   8.336   6.160
   60POPC   C1B 1150   0.291   7.694   7.244
   60POPC   C2B 1151   0.525   7.535   6.858
   60POPC   C3B 1152   0.301   7.716   6.475
   60POPC   C4B 1153   0.454   7.877   6.067
   61POPC   NC3 1154   2.636   1.939   8.169
   61POPC   PO4 1155   2.033   2.168   8.291
   61POPC   GL1 1156   2.289   2.190   7.807
   61POPC   GL2 1157   2.627   2.107   7.692
   61POPC   C1A 1158   2.360   2.053   7.286
   61POPC   D2A 1159   2.580   1.959   6.842
   61POPC   C3A 1160   2.439   2.159   6.415
   61POPC   C4A 1161   2.321   2.194   5.919
   61POPC   C1B 1162   2.983   1.967   7.432
   61POPC   C2B 1163   3.103   2.043   6.986
   61POPC   C3B 1164   3.000   2.029   6.546
   61POPC   C4B 1165   2.748   1.704   6.347
   62POPC   NC3 1166   4.177   2.578   8.095
   62POPC   PO4 1167   4.584   3.072   7.924
   62POPC   GL1 1168   4.323   2.801   7.592
   62POPC   GL2 1169   4.098   2.496   7.596
   62POPC   C1A 1170   4.176   2.743   7.131
   62POPC   D2A 1171   3.971   2.978   6.783
   62POPC   C3A 1172   4.150   3.012   6.365
   62POPC   C4A 1173   3.995   2.942   5.961
   62POPC   C1B 1174   3.780   2.438   7.259
   62POPC   C2B 1175   3.693   2.540   6.821
   62POPC   C3B 1176   3.893   2.566   6.407
   62POPC   C4B 1177   4.334   2.512   6.267
   63POPC   NC3 1178   2.816   8.612   8.013
   63POPC   PO4 1179   2.328   9.089   8.154
   63POPC   GL1 1180   2.550   8.987   7.769
   63POPC   GL2 1181   2.607   8.646   7.570
   63POPC   C1A 1182   2.620   9.086   7.355
   63POPC   D2A 1183   2.506   8.893   6.996
   63POPC   C3A 1184   2.733   8.892   6.627
   63POPC   C4A 1185   2.606   8.895   6.215
   63POPC   C1B 1186   2.482   8.405   7.213
   63POPC   C2B 1187   2.637   8.418   6.802
   63POPC   C3B 1188   2.683   8.430   6.378
   63POPC   C4B 1189   3.006   8.484   6.063
   64POPC   NC3 1190   5.816   0.523   7.966
   64POPC   PO4 1191   5.319  10.464   8.049
   64POPC   GL1 1192   5.562   0.140   7.721
   64POPC   GL2 1193   5.424   0.477   7.638
   64POPC   C1A 1194   5.674   0.170   7.264
   64POPC   D2A 1195   5.620   0.282   6.820
   64POPC   C3A 1196   5.836   0.132   6.462
   64POPC   C4A 1197   5.728   0.113   6.017
   64POPC   C1B 1198   5.596   0.673   7.234
   64POPC   C2B 1199   5.443   0.759   6.791
   64POPC   C3B 1200   5.424   0.528   6.399
   64POPC   C4B 1201   5.828   0.585   6.207
   65POPC   NC3 1202   8.964   4.358   7.910
   65POPC   PO4 1203   9.502   4.117   8.363
   65POPC   GL1 1204   9.335   3.981   7.877
   65POPC   GL2 1205   9.613   3.899   7.681
   65POPC   C1A 1206   9.277   4.150   7.371
   65POPC   D2A 1207   9.447   4.304   6.957
   65POPC   C3A 1208   9.114   4.252   6.637
   65POPC   C4A 1209   9.172   4.077   6.234
   65POPC   C1B 1210   9.735   3.935   7.229
   65POPC   C2B 1211   9.670   3.809   6.782
   65POPC   C3B 1212   9.639   3.897   6.348
   65POPC   C4B 1213   9.625   4.344   6.225
   66POPC   NC3 1214   1.432  10.206   8.239
   66POPC   PO4 1215   0.886   0.034   8.124
   66POPC   GL1 1216   1.172  10.393   7.762
   66POPC   GL2 1217   1.304  10.039   7.748
   66POPC   C1A 1218   1.346  10.473   7.349
   66POPC   D2A 1219   1.306  10.221   6.925
   66POPC   C3A 1220   1.433  10.392   6.580
   66POPC   C4A 1221   1.277  10.382   6.208
   66POPC   C1B 1222   1.087  10.022   7.349
   66POPC   C2B 1223   0.957   9.855   6.918
   66POPC   C3B 1224   1.073   9.950   6.472
   66POPC   C4B 1225   1.161   9.938   6.010
   67POPC   NC3 1226  10.375   1.343   8.156
   67POPC   PO4 1227   0.593   1.366   8.131
   67POPC   GL1 1228   0.306   1.121   7.874
   67POPC   GL2 1229   0.585   1.148   7.677
   67POPC   C1A 1230   0.186   1.063   7.398
   67POPC   D2A 1231   0.052   1.251   6.990
   67POPC   C3A 1232   0.239   1.147   6.591
   67POPC   C4A 1233   0.238   0.988   6.160
   67POPC   C1B 1234   0.814   1.385   7.388
   67POPC   C2B 1235   0.748   1.233   6.988
   67POPC   C3B 1236   0.739   1.062   6.577
   67POPC   C4B 1237   0.703   1.297   6.205
   68POPC   NC3 1238   8.724   6.611   7.904
   68POPC   PO4 1239   8.454   6.075   7.671
   68POPC   GL1 1240   8.821   6.236   7.511
   68POPC   GL2 1241   8.974   6.598   7.468
   68POPC   C1A 1242   8.835   6.010   7.139
   68POPC   D2A 1243   8.617   5.929   6.718
   68POPC   C3A 1244   8.784   6.074   6.334
   68POPC   C4A 1245   8.974   6.158   5.942
   68POPC   C1B 1246   8.775   6.514   7.083
   68POPC   C2B 1247   8.646   6.448   6.682
   68POPC   C3B 1248   8.551   6.564   6.286
   68POPC   C4B 1249   8.408   6.861   5.946
   69POPC   NC3 1250   7.744   9.414   8.080
   69POPC   PO4 1251   8.137   8.853   8.061
   69POPC   GL1 1252   7.968   9.079   7.688
   69POPC   GL2 1253   8.027   9.425   7.662
   69POPC   C1A 1254   8.073   9.086   7.240
   69POPC   D2A 1255   8.269   9.277   6.874
   69POPC   C3A 1256   8.079   9.251   6.463
   69POPC   C4A 1257   8.278   9.334   6.073
   69POPC   C1B 1258   8.113   9.603   7.278
   69POPC   C2B 1259   7.884   9.599   6.897
   69POPC   C3B 1260   7.828   9.828   6.527
   69POPC   C4B 1261   7.889   9.673   6.135
   70POPC   NC3 1262   1.270   4.980   8.111
   70POPC   PO4 1263   1.746   4.416   8.155
   70POPC   GL1 1264   1.440   4.605   7.746
   70POPC   GL2 1265   1.126   4.805   7.677
   70POPC   C1A 1266   1.406   4.853   7.290
   70POPC   D2A 1267   1.247   5.138   6.991
   70POPC   C3A 1268   1.189   5.011   6.591
   70POPC   C4A 1269   1.412   4.737   6.322
   70POPC   C1B 1270   0.874   4.832   7.334
   70POPC   C2B 1271   0.803   4.821   6.941
   70POPC   C3B 1272   0.692   4.908   6.552
   70POPC   C4B 1273   0.915   4.883   6.176
   71POPC   NC3 1274  10.424   2.241   7.911
   71POPC   PO4 1275   9.812   2.234   8.315
   71POPC   GL1 1276   9.903   2.271   7.845
   71POPC   GL2 1277   9.980   1.945   7.732
   71POPC   C1A 1278  10.010   2.279   7.358
   71POPC   D2A 1279  10.295   2.252   6.977
   71POPC   C3A 1280  10.273   2.063   6.567
   71POPC   C4A 1281  10.461   1.951   6.169
   71POPC   C1B 1282  10.261   1.826   7.349
   71POPC   C2B 1283  10.308   1.704   6.930
   71POPC   C3B 1284   0.006   1.606   6.560
   71POPC   C4B 1285  10.476   1.426   6.183
   72POPC   NC3 1286   7.324   1.383   8.563
   72POPC   PO4 1287   7.170   0.911   8.136
   72POPC   GL1 1288   7.168   0.994   7.681
   72POPC   GL2 1289   6.942   1.266   7.763
   72POPC   C1A 1290   6.946   0.987   7.292
   72POPC   D2A 1291   6.697   1.077   6.941
   72POPC   C3A 1292   6.889   1.069   6.570
   72POPC   C4A 1293   7.030   1.021   6.162
   72POPC   C1B 1294   7.178   1.440   7.441
   72POPC   C2B 1295   7.157   1.386   7.029
   72POPC   C3B 1296   7.175   1.473   6.608
   72POPC   C4B 1297   7.300   1.425   6.174
   73POPC   NC3 1298  10.471   3.942   7.916
   73POPC   PO4 1299   0.637   3.939   8.022
   73POPC   GL1 1300   0.520   4.029   7.637
   73POPC   GL2 1301   0.347   4.328   7.619
   73POPC   C1A 1302   0.330   3.930   7.251
   73POPC   D2A 1303   0.118   4.128   6.926
   73POPC   C3A 1304  10.495   4.007   6.522
   73POPC   C4A 1305   0.099   4.284   6.217
   73POPC   C1B 1306   0.662   4.345   7.266
   73POPC   C2B 1307   0.782   4.136   6.882
   73POPC   C3B 1308   0.576   4.142   6.488
   73POPC   C4B 1309   0.581   4.480   6.210
   74POPC   NC3 1310   1.688   6.429   8.159
   74POPC   PO4 1311   1.842   6.957   8.004
   74POPC   GL1 1312   1.627   6.707   7.680
   74POPC   GL2 1313   1.844   6.389   7.661
   74POPC   C1A 1314   1.633   6.585   7.216
   74POPC   D2A 1315   1.661   6.802   6.826
   74POPC   C3A 1316   2.040   6.903   6.621
   74POPC   C4A 1317   2.332   6.740   6.306
   74POPC   C1B 1318   1.974   6.197   7.245
   74POPC   C2B 1319   1.998   6.407   6.859
   74POPC   C3B 1320   1.967   6.351   6.446
   74POPC   C4B 1321   1.963   5.940   6.245
   75POPC   NC3 1322   9.978   0.268   7.888
   75POPC   PO4 1323  10.221   0.879   8.178
   75POPC   GL1 1324  10.111   0.815   7.749
   75POPC   GL2 1325  10.344   0.591   7.677
   75POPC   C1A 1326   9.977   0.595   7.317
   75POPC   D2A 1327   9.979   0.311   6.955
   75POPC   C3A 1328   9.763   0.484   6.600
   75POPC   C4A 1329   9.923   0.616   6.202
   75POPC   C1B 1330  10.498   0.598   7.264
   75POPC   C2B 1331   0.025   0.512   6.850
   75POPC   C3B 1332  10.380   0.626   6.459
   75POPC   C4B 1333  10.354   0.246   6.200
   76POPC   NC3 1334   6.475   7.957   8.245
   76POPC   PO4 1335   6.861   7.565   8.025
   76POPC   GL1 1336   6.546   7.822   7.757
   76POPC   GL2 1337   6.199   8.022   7.821
   76POPC   C1A 1338   6.497   8.154   7.444
   76POPC   D2A 1339   6.222   8.158   7.092
   76POPC   C3A 1340   6.378   8.081   6.701
   76POPC   C4A 1341   6.484   8.058   6.275
   76POPC   C1B 1342   6.172   7.753   7.413
   76POPC   C2B 1343   6.315   7.638   6.979
   76POPC   C3B 1344   6.283   7.627   6.510
   76POPC   C4B 1345   5.993   7.900   6.261
   77POPC   NC3 1346   1.886   8.972   8.089
   77POPC   PO4 1347   1.588   8.435   8.313
   77POPC   GL1 1348   1.824   8.540   7.828
   77POPC   GL2 1349   2.197   8.607   7.888
   77POPC   C1A 1350   1.659   8.588   7.322
   77POPC   D2A 1351   1.604   8.817   6.901
   77POPC   C3A 1352   1.704   8.657   6.472
   77POPC   C4A 1353   1.769   8.714   6.010
   77POPC   C1B 1354   2.136   8.734   7.437
   77POPC   C2B 1355   2.074   8.617   6.998
   77POPC   C3B 1356   2.237   8.673   6.600
   77POPC   C4B 1357   2.217   8.565   6.210
   78POPC   NC3 1358   2.082  10.116   8.334
   78POPC   PO4 1359   1.649   0.079   8.003
   78POPC   GL1 1360   1.773  10.260   7.637
   78POPC   GL2 1361   2.084  10.064   7.411
   78POPC   C1A 1362   1.631  10.069   7.259
   78POPC   D2A 1363   1.837  10.101   6.831
   78POPC   C3A 1364   1.600   9.936   6.469
   78POPC   C4A 1365   1.653   9.778   6.075
   78POPC   C1B 1366   2.127  10.431   7.196
   78POPC   C2B 1367   2.302   0.065   6.810
   78POPC   C3B 1368   2.188  10.353   6.439
   78POPC   C4B 1369   2.092   9.935   6.335
   79POPC   NC3 1370   0.453   7.201   8.406
   79POPC   PO4 1371   0.028   7.431   7.917
   79POPC   GL1 1372   0.251   7.113   7.680
   79POPC   GL2 1373   0.611   7.001   7.742
   79POPC   C1A 1374   0.365   7.186   7.259
   79POPC   D2A 1375   0.168   7.174   6.883
   79POPC   C3A 1376   0.379   7.204   6.489
   79POPC   C4A 1377   0.692   7.476   6.278
   79POPC   C1B 1378   0.628   6.748   7.319
   79POPC   C2B 1379   0.368   6.693   6.904
   79POPC   C3B 1380   0.246   6.681   6.448
   79POPC   C4B 1381   0.456   6.889   6.095
   80POPC   NC3 1382   1.848   0.851   8.039
   80POPC   PO4 1383   2.108   1.474   7.960
   80POPC   GL1 1384   2.036   1.133   7.645
   80POPC   GL2 1385   1.651   1.017   7.590
   80POPC   C1A 1386   2.167   1.306   7.261
   80POPC   D2A 1387   2.189   1.648   6.997
   80POPC   C3A 1388   2.358   1.499   6.640
   80POPC   C4A 1389   2.168   1.193   6.371
   80POPC   C1B 1390   1.825   0.939   7.174
   80POPC   C2B 1391   1.883   1.225   6.816
   80POPC   C3B 1392   1.669   1.114   6.426
   80POPC   C4B 1393   1.530   0.740   6.227
   81POPC   NC3 1394   2.880  10.063   7.915
   81POPC   PO4 1395   2.183  10.042   7.891
   81POPC   GL1 1396   2.518  10.236   7.604
   81POPC   GL2 1397   2.895  10.381   7.540
   81POPC   C1A 1398   2.569  10.192   7.167
   81POPC   D2A 1399   2.374  10.016   6.817
   81POPC   C3A 1400   2.618  10.037   6.452
   81POPC   C4A 1401   2.686  10.427   6.285
   81POPC   C1B 1402   3.072  10.209   7.143
   81POPC   C2B 1403   2.979  10.415   6.736
   81POPC   C3B 1404   3.131  10.211   6.362
   81POPC   C4B 1405   3.056   9.765   6.342
   82POPC   NC3 1406   7.912  10.149   8.239
   82POPC   PO4 1407   8.250   9.591   8.110
   82POPC   GL1 1408   8.096   9.930   7.786
   82POPC   GL2 1409   7.804  10.174   7.739
   82POPC   C1A 1410   8.143  10.124   7.350
   82POPC   D2A 1411   8.229   9.981   6.920
   82POPC   C3A 1412   8.231  10.280   6.581
   82POPC   C4A 1413   7.992  10.269   6.192
   82POPC   C1B 1414   7.637  10.283   7.300
   82POPC   C2B 1415   7.757  10.229   6.849
   82POPC   C3B 1416   7.544  10.352   6.459
   82POPC   C4B 1417   7.529  10.430   5.996
   83POPC   NC3 1418   1.388   7.075   8.075
   83POPC   PO4 1419   0.807   7.448   8.206
   83POPC   GL1 1420   1.066   7.408   7.785
   83POPC   GL2 1421   1.148   7.058   7.631
   83POPC   C1A 1422   1.276   7.499   7.369
   83POPC   D2A 1423   1.237   7.296   6.958
   83POPC   C3A 1424   1.070   7.445   6.608
   83POPC   C4A 1425   1.192   7.482   6.170
   83POPC   C1B 1426   0.874   7.196   7.312
   83POPC   C2B 1427   0.735   7.060   6.904
   83POPC   C3B 1428   0.724   6.825   6.537
   83POPC   C4B 1429   0.925   7.042   6.240
   84POPC   NC3 1430   6.929   9.989   8.148
   84POPC   PO4 1431   7.152   0.091   7.981
   84POPC   GL1 1432   7.205  10.398   7.619
   84POPC   GL2 1433   7.301  10.102   7.769
   84POPC   C1A 1434   7.139  10.130   7.268
   84POPC   D2A 1435   6.949   9.945   6.912
   84POPC   C3A 1436   6.856  10.237   6.594
   84POPC   C4A 1437   7.078  10.305   6.215
   84POPC   C1B 1438   7.553   9.825   7.462
   84POPC   C2B 1439   7.457   9.840   7.002
   84POPC   C3B 1440   7.304   9.817   6.558
   84POPC   C4B 1441   7.451   9.939   6.152
   85POPC   NC3 1442   4.404   0.587   8.253
   85POPC   PO4 1443   3.805   0.636   8.016
   85POPC   GL1 1444   3.968   0.337   7.719
   85POPC   GL2 1445   4.267   0.211   7.887
   85POPC   C1A 1446   3.875   0.248   7.297
   85POPC   D2A 1447   3.859   0.492   6.946
   85POPC   C3A 1448   3.922   0.287   6.583
   85POPC   C4A 1449   3.935   0.489   6.195
   85POPC   C1B 1450   4.425   0.233   7.455
   85POPC   C2B 1451   4.317   0.262   7.017
   85POPC   C3B 1452   4.455   0.237   6.588
   85POPC   C4B 1453   4.471   0.475   6.199
   86POPC   NC3 1454   1.615   2.357   8.421
   86POPC   PO4 1455   1.505   2.970   8.010
   86POPC   GL1 1456   1.657   2.798   7.609
   86POPC   GL2 1457   2.027   2.788   7.672
   86POPC   C1A 1458   1.585   2.536   7.236
   86POPC   D2A 1459   1.624   2.338   6.807
   86POPC   C3A 1460   1.499   2.528   6.474
   86POPC   C4A 1461   1.769   2.672   6.188
   86POPC   C1B 1462   2.115   2.503   7.368
   86POPC   C2B 1463   2.020   2.605   6.979
   86POPC   C3B 1464   2.092   2.587   6.571
   86POPC   C4B 1465   2.307   2.611   6.189
   87POPC   NC3 1466   8.407   5.068   8.035
   87POPC   PO4 1467   8.795   4.592   8.313
   87POPC   GL1 1468   9.033   4.846   7.917
   87POPC   GL2 1469   8.734   4.808   7.750
   87POPC   C1A 1470   9.075   4.990   7.422
   87POPC   D2A 1471   8.830   5.110   6.996
   87POPC   C3A 1472   8.812   4.983   6.575
   87POPC   C4A 1473   8.700   5.175   6.200
   87POPC   C1B 1474   8.609   4.797   7.320
   87POPC   C2B 1475   8.722   4.550   6.955
   87POPC   C3B 1476   8.645   4.490   6.515
   87POPC   C4B 1477   8.467   4.726   6.165
   88POPC   NC3 1478  10.173   9.849   8.179
   88POPC   PO4 1479   9.808  10.402   8.161
   88POPC   GL1 1480   9.975  10.278   7.729
   88POPC   GL2 1481  10.313  10.097   7.747
   88POPC   C1A 1482   9.821  10.437   7.299
   88POPC   D2A 1483   9.587  10.397   6.897
   88POPC   C3A 1484   9.832  10.338   6.526
   88POPC   C4A 1485  10.027  10.360   6.113
   88POPC   C1B 1486  10.308  10.285   7.329
   88POPC   C2B 1487  10.180  10.288   6.914
   88POPC   C3B 1488   0.009  10.193   6.617
   88POPC   C4B 1489  10.451  10.105   6.204
   89POPC   NC3 1490   0.697   1.892   8.377
   89POPC   PO4 1491   1.343   1.993   8.341
   89POPC   GL1 1492   1.342   2.075   7.902
   89POPC   GL2 1493   1.106   1.815   7.827
   89POPC   C1A 1494   1.446   1.962   7.477
   89POPC   D2A 1495   1.318   2.074   7.095
   89POPC   C3A 1496   1.289   1.939   6.670
   89POPC   C4A 1497   1.406   2.017   6.253
   89POPC   C1B 1498   0.964   1.880   7.395
   89POPC   C2B 1499   0.824   1.803   7.001
   89POPC   C3B 1500   0.790   1.991   6.635
   89POPC   C4B 1501   0.924   1.769   6.300
   90POPC   NC3 1502   8.629   5.090   8.504
   90POPC   PO4 1503   8.287   5.512   8.029
   90POPC   GL1 1504   8.146   5.242   7.632
   90POPC   GL2 1505   8.201   4.886   7.607
   90POPC   C1A 1506   8.303   5.168   7.184
   90POPC   D2A 1507   8.375   4.895   6.806
   90POPC   C3A 1508   8.210   5.080   6.423
   90POPC   C4A 1509   8.173   5.136   5.973
   90POPC   C1B 1510   8.120   4.675   7.194
   90POPC   C2B 1511   7.871   4.811   6.806
   90POPC   C3B 1512   7.709   4.921   6.372
   90POPC   C4B 1513   7.475   4.877   5.956
   91POPC   NC3 1514   5.594   2.168   7.984
   91POPC   PO4 1515   6.104   1.669   8.038
   91POPC   GL1 1516   5.772   1.816   7.686
   91POPC   GL2 1517   5.885   2.165   7.580
   91POPC   C1A 1518   5.572   2.001   7.244
   91POPC   D2A 1519   5.776   2.181   6.864
   91POPC   C3A 1520   5.545   2.190   6.458
   91POPC   C4A 1521   5.539   1.893   6.116
   91POPC   C1B 1522   6.076   1.864   7.295
   91POPC   C2B 1523   6.133   1.809   6.866
   91POPC   C3B 1524   5.944   1.878   6.471
   91POPC   C4B 1525   6.017   1.974   6.004
   92POPC   NC3 1526   1.697   8.025   8.101
   92POPC   PO4 1527   2.275   7.717   8.201
   92POPC   GL1 1528   2.128   7.755   7.716
   92POPC   GL2 1529   1.763   7.806   7.644
   92POPC   C1A 1530   2.094   7.759   7.213
   92POPC   D2A 1531   2.325   8.021   6.883
   92POPC   C3A 1532   2.315   8.021   6.403
   92POPC   C4A 1533   2.024   7.734   6.177
   92POPC   C1B 1534   1.957   8.185   7.440
   92POPC   C2B 1535   1.818   8.179   7.006
   92POPC   C3B 1536   1.844   7.988   6.609
   92POPC   C4B 1537   1.865   8.222   6.224
   93POPC   NC3 1538   9.562   3.658   8.220
   93POPC   PO4 1539   8.862   3.706   8.221
   93POPC   GL1 1540   9.069   3.542   7.814
   93POPC   GL2 1541   9.432   3.403   7.780
   93POPC   C1A 1542   9.208   3.654   7.382
   93POPC   D2A 1543   9.214   3.848   6.967
   93POPC   C3A 1544   9.120   3.683   6.573
   93POPC   C4A 1545   9.306   3.570   6.166
   93POPC   C1B 1546   9.282   3.154   7.416
   93POPC   C2B 1547   9.285   3.325   6.969
   93POPC   C3B 1548   9.535   3.358   6.584
   93POPC   C4B 1549   9.497   3.095   6.218
   94POPC   NC3 1550   0.524   4.410   8.102
   94POPC   PO4 1551   0.278   5.046   8.315
   94POPC   GL1 1552   0.272   4.824   7.833
   94POPC   GL2 1553   0.613   4.786   7.762
   94POPC   C1A 1554   0.342   4.731   7.322
   94POPC   D2A 1555   0.370   4.563   6.861
   94POPC   C3A 1556   0.232   4.751   6.451
   94POPC   C4A 1557   0.179   4.733   5.975
   94POPC   C1B 1558   0.485   5.175   7.504
   94POPC   C2B 1559   0.384   5.161   7.036
   94POPC   C3B 1560   0.328   5.262   6.586
   94POPC   C4B 1561   0.457   5.132   6.139
   95POPC   NC3 1562   1.226   8.623   8.079
   95POPC   PO4 1563   1.580   9.213   7.853
   95POPC   GL1 1564   1.356   8.858   7.647
   95POPC   GL2 1565   1.006   8.645   7.618
   95POPC   C1A 1566   1.228   8.909   7.246
   95POPC   D2A 1567   1.045   8.833   6.881
   95POPC   C3A 1568   1.257   8.994   6.552
   95POPC   C4A 1569   1.280   8.824   6.166
   95POPC   C1B 1570   1.108   8.395   7.224
   95POPC   C2B 1571   1.325   8.349   6.815
   95POPC   C3B 1572   1.268   8.352   6.349
   95POPC   C4B 1573   1.054   8.430   5.930
   96POPC   NC3 1574   6.801   0.743   7.929
   96POPC   PO4 1575   6.152   0.811   8.107
   96POPC   GL1 1576   6.367   0.977   7.773
   96POPC   GL2 1577   6.426   1.315   7.830
   96POPC   C1A 1578   6.424   0.934   7.343
   96POPC   D2A 1579   6.162   0.837   6.993
   96POPC   C3A 1580   6.339   0.913   6.606
   96POPC   C4A 1581   6.141   1.050   6.238
   96POPC   C1B 1582   6.176   1.376   7.441
   96POPC   C2B 1583   6.245   1.338   7.003
   96POPC   C3B 1584   6.285   1.423   6.565
   96POPC   C4B 1585   6.582   1.312   6.242
   97POPC   NC3 1586   3.276   1.707   8.207
   97POPC   PO4 1587   3.844   1.347   8.214
   97POPC   GL1 1588   3.740   1.552   7.795
   97POPC   GL2 1589   3.411   1.759   7.713
   97POPC   C1A 1590   3.640   1.509   7.339
   97POPC   D2A 1591   3.378   1.565   6.969
   97POPC   C3A 1592   3.484   1.672   6.519
   97POPC   C4A 1593   3.267   1.855   6.146
   97POPC   C1B 1594   3.503   2.007   7.328
   97POPC   C2B 1595   3.621   2.040   6.899
   97POPC   C3B 1596   3.506   2.187   6.496
   97POPC   C4B 1597   3.718   2.164   6.125
   98POPC   NC3 1598   6.366   0.512   8.394
   98POPC   PO4 1599   5.802   0.185   8.285
   98POPC   GL1 1600   6.075   0.080   7.868
   98POPC   GL2 1601   6.306   0.384   7.775
   98POPC   C1A 1602   6.161   0.032   7.385
   98POPC   D2A 1603   6.096   0.340   7.008
   98POPC   C3A 1604   6.271   0.395   6.566
   98POPC   C4A 1605   6.213   0.228   6.127
   98POPC   C1B 1606   6.494   0.415   7.339
   98POPC   C2B 1607   6.636   0.559   6.947
   98POPC   C3B 1608   6.760   0.588   6.532
   98POPC   C4B 1609   6.593   0.771   6.179
   99POPC   NC3 1610   1.279   2.583   7.948
   99POPC   PO4 1611   0.816   2.185   8.032
   99POPC   GL1 1612   0.908   2.351   7.635
   99POPC   GL2 1613   0.809   2.705   7.654
   99POPC   C1A 1614   0.832   2.411   7.181
   99POPC   D2A 1615   1.089   2.403   6.797
   99POPC   C3A 1616   1.015   2.354   6.356
   99POPC   C4A 1617   0.872   2.573   5.985
   99POPC   C1B 1618   1.150   2.798   7.351
   99POPC   C2B 1619   1.288   2.867   6.928
   99POPC   C3B 1620   1.069   2.842   6.530
   99POPC   C4B 1621   1.262   2.851   6.146
  100POPC   NC3 1622   1.953   3.979   8.136
  100POPC   PO4 1623   2.303   4.337   7.898
  100POPC   GL1 1624   1.908   4.395   7.678
  100POPC   GL2 1625   1.646   4.123   7.712
  100POPC   C1A 1626   1.681   4.426   7.283
  100POPC   D2A 1627   1.754   4.675   6.916
  100POPC   C3A 1628   1.773   4.425   6.537
  100POPC   C4A 1629   2.094   4.360   6.207
  100POPC   C1B 1630   1.915   3.982   7.379
  100POPC   C2B 1631   1.884   4.003   6.938
  100POPC   C3B 1632   2.043   3.946   6.525
  100POPC   C4B 1633   1.721   4.014   6.232
  101POPC   NC3 1634   8.144   2.691   8.131
  101POPC   PO4 1635   8.190   3.225   7.797
  101POPC   GL1 1636   7.971   2.843   7.640
  101POPC   GL2 1637   8.098   2.468   7.679
  101POPC   C1A 1638   7.857   2.986   7.215
  101POPC   D2A 1639   8.038   3.160   6.839
  101POPC   C3A 1640   7.859   3.048   6.437
  101POPC   C4A 1641   8.074   2.979   6.033
  101POPC   C1B 1642   8.008   2.511   7.248
  101POPC   C2B 1643   8.134   2.646   6.866
  101POPC   C3B 1644   7.985   2.573   6.477
  101POPC   C4B 1645   8.279   2.529   6.195
  102POPC   NC3 1646   1.224   0.337   8.005
  102POPC   PO4 1647   0.578   0.521   8.037
  102POPC   GL1 1648   0.775   0.279   7.687
  102POPC   GL2 1649   1.081   0.411   7.525
  102POPC   C1A 1650   0.833   0.004   7.322
  102POPC   D2A 1651   1.071   0.159   6.953
  102POPC   C3A 1652   0.910  10.457   6.580
  102POPC   C4A 1653   0.774   0.150   6.211
  102POPC   C1B 1654   1.417   0.598   7.281
  102POPC   C2B 1655   1.501   0.546   6.843
  102POPC   C3B 1656   1.289   0.364   6.474
  102POPC   C4B 1657   1.205   0.334   6.020
  103POPC   NC3 1658  10.375   4.968   8.124
  103POPC   PO4 1659   9.753   4.839   8.246
  103POPC   GL1 1660   9.955   4.732   7.855
  103POPC   GL2 1661  10.039   5.033   7.736
  103POPC   C1A 1662   9.947   4.679   7.391
  103POPC   D2A 1663   9.949   4.968   7.020
  103POPC   C3A 1664   9.826   4.780   6.622
  103POPC   C4A 1665   9.893   5.033   6.250
  103POPC   C1B 1666  10.394   4.920   7.462
  103POPC   C2B 1667  10.455   4.867   7.009
  103POPC   C3B 1668  10.297   4.974   6.612
  103POPC   C4B 1669  10.460   5.108   6.232
  104POPC   NC3 1670  10.181   7.082   7.960
  104POPC   PO4 1671   0.296   6.824   8.168
  104POPC   GL1 1672  10.500   6.683   7.786
  104POPC   GL2 1673  10.176   6.827   7.537
  104POPC   C1A 1674   0.117   6.745   7.343
  104POPC   D2A 1675  10.299   6.849   7.046
  104POPC   C3A 1676  10.334   6.891   6.646
  104POPC   C4A 1677  10.103   6.817   6.370
  104POPC   C1B 1678  10.232   7.276   7.324
  104POPC   C2B 1679  10.277   7.512   6.933
  104POPC   C3B 1680  10.377   7.415   6.514
  104POPC   C4B 1681  10.110   7.365   6.177
  105POPC   NC3 1682   8.230   5.965   8.052
  105POPC   PO4 1683   8.331   6.586   8.167
  105POPC   GL1 1684   8.253   6.561   7.710
  105POPC   GL2 1685   7.991   6.307   7.688
  105POPC   C1A 1686   8.262   6.544   7.245
  105POPC   D2A 1687   8.217   6.245   6.906
  105POPC   C3A 1688   8.127   6.401   6.505
  105POPC   C4A 1689   8.278   6.143   6.199
  105POPC   C1B 1690   7.746   6.494   7.336
  105POPC   C2B 1691   7.757   6.513   6.863
  105POPC   C3B 1692   7.640   6.255   6.485
  105POPC   C4B 1693   7.785   6.108   6.088
  106POPC   NC3 1694   1.738   1.831   8.131
  106POPC   PO4 1695   1.757   2.524   8.012
  106POPC   GL1 1696   1.801   2.247   7.658
  106POPC   GL2 1697   1.922   1.871   7.651
  106POPC   C1A 1698   1.858   2.098   7.193
  106POPC   D2A 1699   2.091   2.108   6.799
  106POPC   C3A 1700   1.893   2.148   6.386
  106POPC   C4A 1701   1.826   2.218   5.953
  106POPC   C1B 1702   1.756   1.602   7.296
  106POPC   C2B 1703   1.690   1.710   6.865
  106POPC   C3B 1704   1.886   1.634   6.480
  106POPC   C4B 1705   2.222   1.749   6.204
  107POPC   NC3 1706   9.547   6.284   8.235
  107POPC   PO4 1707   8.969   6.244   8.019
  107POPC   GL1 1708   9.298   6.272   7.710
  107POPC   GL2 1709   9.396   6.602   7.792
  107POPC   C1A 1710   9.269   6.251   7.232
  107POPC   D2A 1711   9.107   6.205   6.767
  107POPC   C3A 1712   9.107   6.566   6.455
  107POPC   C4A 1713   9.381   6.572   6.077
  107POPC   C1B 1714   9.484   6.691   7.348
  107POPC   C2B 1715   9.485   6.548   6.892
  107POPC   C3B 1716   9.563   6.803   6.542
  107POPC   C4B 1717   9.685   6.951   6.169
  108POPC   NC3 1718   2.196   2.584   8.146
  108POPC   PO4 1719   2.852   2.358   8.076
  108POPC   GL1 1720   2.887   2.537   7.652
  108POPC   GL2 1721   2.535   2.622   7.630
  108POPC   C1A 1722   2.785   2.399   7.241
  108POPC   D2A 1723   2.484   2.445   6.965
  108POPC   C3A 1724   2.592   2.669   6.650
  108POPC   C4A 1725   2.825   2.488   6.357
  108POPC   C1B 1726   2.411   2.892   7.251
  108POPC   C2B 1727   2.274   3.055   6.867
  108POPC   C3B 1728   2.313   3.051   6.423
  108POPC   C4B 1729   2.693   2.969   6.210
  109POPC   NC3 1730   6.625  10.407   7.975
  109POPC   PO4 1731   6.647   9.701   7.936
  109POPC   GL1 1732   6.542   9.866   7.582
  109POPC   GL2 1733   6.787  10.091   7.616
  109POPC   C1A 1734   6.300  10.021   7.240
  109POPC   D2A 1735   6.438  10.028   6.819
  109POPC   C3A 1736   6.246   9.824   6.447
  109POPC   C4A 1737   6.265   9.776   5.938
  109POPC   C1B 1738   6.666  10.391   7.294
  109POPC   C2B 1739   6.492   0.039   6.893
  109POPC   C3B 1740   6.306  10.380   6.498
  109POPC   C4B 1741   6.546  10.147   6.184
  110POPC   NC3 1742   2.085   5.535   7.950
  110POPC   PO4 1743   1.691   5.972   8.246
  110POPC   GL1 1744   1.613   5.770   7.804
  110POPC   GL2 1745   1.908   5.866   7.616
  110POPC   C1A 1746   1.581   5.638   7.326
  110POPC   D2A 1747   1.756   5.840   6.918
  110POPC   C3A 1748   1.573   5.717   6.510
  110POPC   C4A 1749   1.612   5.574   6.075
  110POPC   C1B 1750   2.072   5.596   7.266
  110POPC   C2B 1751   2.151   5.460   6.862
  110POPC   C3B 1752   1.988   5.454   6.461
  110POPC   C4B 1753   2.119   5.467   6.065
  111POPC   NC3 1754   0.784   3.451   7.988
  111POPC   PO4 1755   0.161   3.102   8.006
  111POPC   GL1 1756   0.459   3.167   7.709
  111POPC   GL2 1757   0.375   3.535   7.685
  111POPC   C1A 1758   0.710   3.313   7.350
  111POPC   D2A 1759   0.634   3.595   6.991
  111POPC   C3A 1760   0.720   3.374   6.616
  111POPC   C4A 1761   0.572   3.380   6.166
  111POPC   C1B 1762   0.210   3.428   7.282
  111POPC   C2B 1763   0.061   3.607   6.895
  111POPC   C3B 1764   0.266   3.588   6.514
  111POPC   C4B 1765   0.334   3.842   6.136
  112POPC   NC3 1766   6.458   2.652   8.029
  112POPC   PO4 1767   6.920   3.047   7.994
  112POPC   GL1 1768   6.699   2.893   7.619
  112POPC   GL2 1769   6.700   2.536   7.606
  112POPC   C1A 1770   6.392   3.043   7.298
  112POPC   D2A 1771   6.372   3.121   6.828
  112POPC   C3A 1772   6.711   3.124   6.497
  112POPC   C4A 1773   6.629   3.074   6.037
  112POPC   C1B 1774   6.568   2.575   7.176
  112POPC   C2B 1775   6.668   2.689   6.758
  112POPC   C3B 1776   6.361   2.720   6.446
  112POPC   C4B 1777   6.062   2.362   6.350
  113POPC   NC3 1778  10.076   8.957   8.081
  113POPC   PO4 1779  10.127   8.272   7.993
  113POPC   GL1 1780   9.979   8.460   7.616
  113POPC   GL2 1781   9.944   8.825   7.601
  113POPC   C1A 1782  10.079   8.328   7.201
  113POPC   D2A 1783   9.800   8.442   6.890
  113POPC   C3A 1784   9.906   8.354   6.517
  113POPC   C4A 1785   9.942   8.693   6.267
  113POPC   C1B 1786  10.164   8.830   7.202
  113POPC   C2B 1787  10.259   8.684   6.776
  113POPC   C3B 1788  10.362   8.936   6.410
  113POPC   C4B 1789  10.499   9.253   6.154
  114POPC   NC3 1790  10.174   3.101   8.039
  114POPC   PO4 1791  10.021   3.831   8.011
  114POPC   GL1 1792   9.980   3.536   7.703
  114POPC   GL2 1793  10.347   3.438   7.675
  114POPC   C1A 1794   9.705   3.429   7.322
  114POPC   D2A 1795   9.715   3.062   7.037
  114POPC   C3A 1796   9.905   3.005   6.608
  114POPC   C4A 1797   9.963   3.258   6.224
  114POPC   C1B 1798  10.198   3.437   7.243
  114POPC   C2B 1799  10.014   3.445   6.851
  114POPC   C3B 1800  10.087   3.676   6.474
  114POPC   C4B 1801  10.380   3.626   6.163
  115POPC   NC3 1802   7.343   0.469   8.189
  115POPC   PO4 1803   6.690   0.342   8.120
  115POPC   GL1 1804   6.849   0.313   7.670
  115POPC   GL2 1805   7.207   0.487   7.683
  115POPC   C1A 1806   7.038   0.245   7.264
  115POPC   D2A 1807   7.203   0.403   6.883
  115POPC   C3A 1808   7.083   0.196   6.532
  115POPC   C4A 1809   6.684   0.140   6.299
  115POPC   C1B 1810   7.362   0.677   7.301
  115POPC   C2B 1811   7.288   0.902   6.882
  115POPC   C3B 1812   7.272   0.699   6.461
  115POPC   C4B 1813   7.504   0.360   6.278
  116POPC   NC3 1814   9.233  10.190   8.218
  116POPC   PO4 1815   9.248   0.393   8.197
  116POPC   GL1 1816   9.411   0.038   7.860
  116POPC   GL2 1817   9.478  10.161   7.793
  116POPC   C1A 1818   9.297  10.418   7.404
  116POPC   D2A 1819   9.194  10.080   7.097
  116POPC   C3A 1820   9.157  10.214   6.647
  116POPC   C4A 1821   9.372  10.278   6.280
  116POPC   C1B 1822   9.639   9.981   7.420
  116POPC   C2B 1823   9.753   9.913   6.981
  116POPC   C3B 1824   9.569   9.882   6.561
  116POPC   C4B 1825   9.754   9.942   6.151
  117POPC   NC3 1826   7.510   1.195   7.976
  117POPC   PO4 1827   8.182   1.476   7.995
  117POPC   GL1 1828   8.065   1.301   7.577
  117POPC   GL2 1829   7.806   1.024   7.577
  117POPC   C1A 1830   8.260   0.995   7.285
  117POPC   D2A 1831   8.360   0.919   6.844
  117POPC   C3A 1832   8.065   1.127   6.562
  117POPC   C4A 1833   8.016   1.522   6.357
  117POPC   C1B 1834   7.553   1.144   7.274
  117POPC   C2B 1835   7.627   1.304   6.870
  117POPC   C3B 1836   7.551   1.144   6.502
  117POPC   C4B 1837   7.691   1.052   6.124
  118POPC   NC3 1838   9.376   9.205   8.023
  118POPC   PO4 1839   9.063   9.786   8.047
  118POPC   GL1 1840   9.333   9.653   7.694
  118POPC   GL2 1841   9.678   9.487   7.660
  118POPC   C1A 1842   9.377   9.580   7.248
  118POPC   D2A 1843   9.501   9.458   6.852
  118POPC   C3A 1844   9.154   9.466   6.541
  118POPC   C4A 1845   9.131   9.835   6.267
  118POPC   C1B 1846   9.745   9.190   7.290
  118POPC   C2B 1847   9.790   8.991   6.857
  118POPC   C3B 1848   9.597   9.132   6.472
  118POPC   C4B 1849   9.531   9.482   6.183
  119POPC   NC3 1850   0.404   5.478   8.143
  119POPC   PO4 1851   0.727   6.057   8.048
  119POPC   GL1 1852   0.657   5.735   7.750
  119POPC   GL2 1853   0.289   5.712   7.701
  119POPC   C1A 1854   0.622   5.764   7.309
  119POPC   D2A 1855   0.809   5.889   6.929
  119POPC   C3A 1856   0.611   5.789   6.542
  119POPC   C4A 1857   0.611   5.888   6.120
  119POPC   C1B 1858   0.169   5.546   7.311
  119POPC   C2B 1859   0.305   5.669   6.930
  119POPC   C3B 1860   0.096   5.736   6.596
  119POPC   C4B 1861   0.183   5.582   6.209
  120POPC   NC3 1862   4.259   1.546   8.300
  120POPC   PO4 1863   4.419   2.162   8.144
  120POPC   GL1 1864   4.367   1.904   7.739
  120POPC   GL2 1865   4.408   1.517   7.788
  120POPC   C1A 1866   4.065   2.032   7.376
  120POPC   D2A 1867   4.119   2.243   6.937
  120POPC   C3A 1868   4.078   2.085   6.510
  120POPC   C4A 1869   4.222   2.047   6.063
  120POPC   C1B 1870   4.149   1.534   7.403
  120POPC   C2B 1871   4.014   1.714   6.992
  120POPC   C3B 1872   4.018   1.584   6.577
  120POPC   C4B 1873   3.883   1.676   6.164
  121POPC   NC3 1874   2.163   9.583   8.116
  121POPC   PO4 1875   1.507   9.741   8.138
  121POPC   GL1 1876   1.732   9.729   7.675
  121POPC   GL2 1877   2.071   9.605   7.640
  121POPC   C1A 1878   1.889   9.634   7.184
  121POPC   D2A 1879   2.075   9.623   6.765
  121POPC   C3A 1880   1.892   9.469   6.411
  121POPC   C4A 1881   1.635   9.182   6.189
  121POPC   C1B 1882   2.145   9.248   7.414
  121POPC   C2B 1883   2.061   9.138   6.984
  121POPC   C3B 1884   2.294   9.177   6.596
  121POPC   C4B 1885   2.140   9.087   6.183
  122POPC   NC3 1886   8.711   1.565   8.040
  122POPC   PO4 1887   8.463   2.180   8.249
  122POPC   GL1 1888   8.522   2.007   7.823
  122POPC   GL2 1889   8.897   2.008   7.764
  122POPC   C1A 1890   8.376   1.769   7.422
  122POPC   D2A 1891   8.331   1.480   7.046
  122POPC   C3A 1892   8.377   1.743   6.677
  122POPC   C4A 1893   8.399   1.934   6.272
  122POPC   C1B 1894   8.740   2.136   7.364
  122POPC   C2B 1895   8.742   1.966   6.952
  122POPC   C3B 1896   8.829   2.092   6.508
  122POPC   C4B 1897   8.712   2.300   6.092
  123POPC   NC3 1898   8.621   9.859   7.966
  123POPC   PO4 1899   8.820  10.385   8.315
  123POPC   GL1 1900   8.914  10.377   7.832
  123POPC   GL2 1901   8.985  10.060   7.627
  123POPC   C1A 1902   8.776  10.464   7.377
  123POPC   D2A 1903   8.491   0.043   7.019
  123POPC   C3A 1904   8.706   0.053   6.627
  123POPC   C4A 1905   8.910   0.052   6.245
  123POPC   C1B 1906   8.670   9.975   7.285
  123POPC   C2B 1907   8.718  10.097   6.862
  123POPC   C3B 1908   8.686  10.072   6.410
  123POPC   C4B 1909   8.338   9.888   6.169
  124POPC   NC3 1910   1.895   3.197   7.955
  124POPC   PO4 1911   1.557   3.719   8.167
  124POPC   GL1 1912   1.782   3.624   7.737
  124POPC   GL2 1913   1.641   3.302   7.544
  124POPC   C1A 1914   2.044   3.498   7.344
  124POPC   D2A 1915   2.229   3.587   6.947
  124POPC   C3A 1916   2.027   3.424   6.602
  124POPC   C4A 1917   1.936   3.555   6.196
  124POPC   C1B 1918   1.835   3.046   7.193
  124POPC   C2B 1919   1.758   2.976   6.739
  124POPC   C3B 1920   1.652   3.147   6.343
  124POPC   C4B 1921   1.906   3.110   5.962
  125POPC   NC3 1922   4.872   2.047   8.038
  125POPC   PO4 1923   5.296   2.398   7.725
  125POPC   GL1 1924   5.223   1.978   7.626
  125POPC   GL2 1925   4.859   2.030   7.528
  125POPC   C1A 1926   5.187   1.670   7.332
  125POPC   D2A 1927   5.036   1.980   7.039
  125POPC   C3A 1928   5.105   1.916   6.619
  125POPC   C4A 1929   5.062   1.837   6.211
  125POPC   C1B 1930   4.540   2.050   7.186
  125POPC   C2B 1931   4.480   1.826   6.789
  125POPC   C3B 1932   4.590   1.941   6.381
  125POPC   C4B 1933   4.819   2.301   6.207
  126POPC   NC3 1934   2.818   9.307   8.228
  126POPC   PO4 1935   2.483   9.852   8.328
  126POPC   GL1 1936   2.581   9.670   7.864
  126POPC   GL2 1937   2.832   9.430   7.747
  126POPC   C1A 1938   2.517   9.703   7.404
  126POPC   D2A 1939   2.482   9.446   7.034
  126POPC   C3A 1940   2.672   9.551   6.658
  126POPC   C4A 1941   2.433   9.566   6.289
  126POPC   C1B 1942   2.971   9.449   7.341
  126POPC   C2B 1943   2.955   9.204   6.979
  126POPC   C3B 1944   3.091   9.241   6.567
  126POPC   C4B 1945   2.875   9.319   6.203
  127POPC   NC3 1946   7.436   2.037   8.027
  127POPC   PO4 1947   6.811   2.334   8.092
  127POPC   GL1 1948   7.058   2.172   7.714
  127POPC   GL2 1949   7.030   1.816   7.746
  127POPC   C1A 1950   7.428   2.096   7.372
  127POPC   D2A 1951   7.683   2.198   6.961
  127POPC   C3A 1952   7.553   2.254   6.507
  127POPC   C4A 1953   7.458   2.247   6.016
  127POPC   C1B 1954   6.981   1.874   7.281
  127POPC   C2B 1955   7.252   1.890   6.918
  127POPC   C3B 1956   7.151   1.950   6.466
  127POPC   C4B 1957   6.890   1.720   6.241
  128POPC   NC3 1958   3.559   0.170   7.978
  128POPC   PO4 1959   3.163   0.691   8.082
  128POPC   GL1 1960   3.107   0.364   7.689
  128POPC   GL2 1961   3.424   0.257   7.520
  128POPC   C1A 1962   3.071   0.207   7.197
  128POPC   D2A 1963   3.415   0.226   6.849
  128POPC   C3A 1964   3.231   0.277   6.420
  128POPC   C4A 1965   3.039   0.182   6.007
  128POPC   C1B 1966   3.447   0.587   7.242
  128POPC   C2B 1967   3.493   0.852   6.895
  128POPC   C3B 1968   3.575   0.673   6.540
  128POPC   C4B 1969   3.419   0.722   6.181
  129POPC   NC3 1970   8.065   1.002   8.010
  129POPC   PO4 1971   8.662   0.765   8.039
  129POPC   GL1 1972   8.608   1.090   7.730
  129POPC   GL2 1973   8.851   0.894   7.556
  129POPC   C1A 1974   8.712   1.391   7.385
  129POPC   D2A 1975   8.841   1.458   6.928
  129POPC   C3A 1976   8.554   1.299   6.581
  129POPC   C4A 1977   8.483   0.916   6.321
  129POPC   C1B 1978   8.786   0.951   7.135
  129POPC   C2B 1979   8.898   0.985   6.718
  129POPC   C3B 1980   8.958   1.085   6.284
  129POPC   C4B 1981   9.201   0.979   5.927
  130POPC   NC3 1982   8.295   7.989   8.253
  130POPC   PO4 1983   7.660   7.980   8.158
  130POPC   GL1 1984   7.779   8.057   7.735
  130POPC   GL2 1985   8.140   7.917   7.702
  130POPC   C1A 1986   7.598   8.291   7.346
  130POPC   D2A 1987   7.651   8.055   6.932
  130POPC   C3A 1988   7.437   8.111   6.524
  130POPC   C4A 1989   7.418   8.472   6.263
  130POPC   C1B 1990   8.265   7.868   7.251
  130POPC   C2B 1991   8.074   7.754   6.850
  130POPC   C3B 1992   7.849   7.727   6.467
  130POPC   C4B 1993   8.173   7.869   6.245
  131POPC   NC3 1994   7.271   7.773   8.050
  131POPC   PO4 1995   7.243   8.425   8.188
  131POPC   GL1 1996   7.285   8.199   7.775
  131POPC   GL2 1997   6.917   8.168   7.850
  131POPC   C1A 1998   7.423   7.838   7.404
  131POPC   D2A 1999   7.226   7.765   6.964
  131POPC   C3A 2000   7.334   7.612   6.527
  131POPC   C4A 2001   7.437   7.667   6.076
  131POPC   C1B 2002   6.948   7.962   7.435
  131POPC   C2B 2003   6.746   7.927   7.039
  131POPC   C3B 2004   6.885   7.969   6.614
  131POPC   C4B 2005   6.966   7.816   6.206
  132POPC   NC3 2006   0.150   0.660   8.089
  132POPC   PO4 2007  10.416   0.102   7.892
  132POPC   GL1 2008   0.267   0.300   7.628
  132POPC   GL2 2009   0.367   0.658   7.614
  132POPC   C1A 2010   0.479   0.381   7.206
  132POPC   D2A 2011   0.455   0.783   6.960
  132POPC   C3A 2012   0.391   0.675   6.537
  132POPC   C4A 2013   0.381   0.492   6.175
  132POPC   C1B 2014   0.747   0.779   7.391
  132POPC   C2B 2015   0.968   0.668   7.018
  132POPC   C3B 2016   0.836   0.493   6.644
  132POPC   C4B 2017   0.871   0.667   6.249
  133POPC   NC3 2018   4.206   8.076   8.074
  133POPC   PO4 2019   3.805   7.646   8.088
  133POPC   GL1 2020   3.866   7.887   7.700
  133POPC   GL2 2021   4.208   7.799   7.652
  133POPC   C1A 2022   3.917   7.934   7.222
  133POPC   D2A 2023   3.903   8.134   6.778
  133POPC   C3A 2024   3.975   7.896   6.358
  133POPC   C4A 2025   3.671   7.659   6.060
  133POPC   C1B 2026   4.396   8.092   7.372
  133POPC   C2B 2027   4.382   8.002   6.957
  133POPC   C3B 2028   4.479   7.979   6.548
  133POPC   C4B 2029   4.488   8.030   6.132
  134POPC   NC3 2030   8.581   8.599   8.032
  134POPC   PO4 2031   9.143   8.104   8.056
  134POPC   GL1 2032   9.028   8.363   7.744
  134POPC   GL2 2033   8.754   8.532   7.587
  134POPC   C1A 2034   9.130   8.416   7.311
  134POPC   D2A 2035   8.868   8.701   7.083
  134POPC   C3A 2036   8.755   8.575   6.671
  134POPC   C4A 2037   9.023   8.422   6.350
  134POPC   C1B 2038   8.424   8.707   7.376
  134POPC   C2B 2039   8.362   8.783   6.948
  134POPC   C3B 2040   8.256   8.707   6.538
  134POPC   C4B 2041   8.538   8.680   6.193
  135POPC   NC3 2042   0.429  10.483   8.015
  135POPC   PO4 2043   0.147   9.857   8.189
  135POPC   GL1 2044   0.333  10.026   7.744
  135POPC   GL2 2045   0.703  10.137   7.702
  135POPC   C1A 2046   0.324  10.360   7.379
  135POPC   D2A 2047   0.143   0.038   6.997
  135POPC   C3A 2048   0.379   0.124   6.596
  135POPC   C4A 2049   0.292  10.478   6.166
  135POPC   C1B 2050   0.594   9.962   7.267
  135POPC   C2B 2051   0.534  10.194   6.882
  135POPC   C3B 2052   0.499  10.084   6.447
  135POPC   C4B 2053   0.713  10.165   6.079
  136POPC   NC3 2054   9.791   1.094   8.132
  136POPC   PO4 2055   9.973   1.608   8.272
  136POPC   GL1 2056   9.939   1.457   7.823
  136POPC   GL2 2057  10.240   1.350   7.656
  136POPC   C1A 2058   9.830   1.545   7.381
  136POPC   D2A 2059   9.949   1.342   6.986
  136POPC   C3A 2060   9.814   1.543   6.628
  136POPC   C4A 2061  10.030   1.704   6.307
  136POPC   C1B 2062  10.194   1.054   7.324
  136POPC   C2B 2063  10.194   0.889   6.915
  136POPC   C3B 2064  10.239   1.162   6.577
  136POPC   C4B 2065  10.148   1.058   6.187
  137POPC   NC3 2066   0.587   6.483   7.979
  137POPC   PO4 2067   0.081   6.009   8.129
  137POPC   GL1 2068   0.180   6.205   7.701
  137POPC   GL2 2069   0.520   6.196   7.585
  137POPC   C1A 2070   0.206   6.076   7.235
  137POPC   D2A 2071   0.420   6.183   6.871
  137POPC   C3A 2072   0.272   6.174   6.465
  137POPC   C4A 2073   0.164   6.142   6.053
  137POPC   C1B 2074   0.781   6.267   7.258
  137POPC   C2B 2075   0.854   6.469   6.886
  137POPC   C3B 2076   0.782   6.291   6.511
  137POPC   C4B 2077   0.602   6.410   6.168
  138POPC   NC3 2078   9.134   0.795   7.979
  138POPC   PO4 2079   9.175   1.490   8.115
  138POPC   GL1 2080   9.109   1.310   7.727
  138POPC   GL2 2081   9.441   1.170   7.716
  138POPC   C1A 2082   9.188   1.260   7.274
  138POPC   D2A 2083   9.447   1.291   6.930
  138POPC   C3A 2084   9.343   1.336   6.506
  138POPC   C4A 2085   9.543   1.572   6.167
  138POPC   C1B 2086   9.686   1.055   7.353
  138POPC   C2B 2087   9.691   0.843   6.969
  138POPC   C3B 2088   9.769   1.015   6.568
  138POPC   C4B 2089   9.648   1.070   6.138
  139POPC   NC3 2090   2.149   0.009   7.908
  139POPC   PO4 2091   2.338   0.757   8.016
  139POPC   GL1 2092   2.106   0.520   7.723
  139POPC   GL2 2093   1.714   0.504   7.705
  139POPC   C1A 2094   2.192   0.613   7.323
  139POPC   D2A 2095   2.029   0.482   6.967
  139POPC   C3A 2096   1.943   0.739   6.646
  139POPC   C4A 2097   2.043   0.577   6.280
  139POPC   C1B 2098   1.786   0.253   7.371
  139POPC   C2B 2099   1.692   0.083   6.976
  139POPC   C3B 2100   1.828   0.209   6.572
  139POPC   C4B 2101   1.684   0.250   6.163
  140POPC   NC3 2102   5.312   9.553   8.226
  140POPC   PO4 2103   4.832   9.083   8.052
  140POPC   GL1 2104   4.852   9.238   7.687
  140POPC   GL2 2105   5.016   9.504   7.691
  140POPC   C1A 2106   4.941   9.093   7.302
  140POPC   D2A 2107   4.717   9.138   6.972
  140POPC   C3A 2108   4.880   9.157   6.608
  140POPC   C4A 2109   4.740   8.931   6.278
  140POPC   C1B 2110   4.840   9.594   7.274
  140POPC   C2B 2111   4.739   9.689   6.823
  140POPC   C3B 2112   4.822   9.628   6.411
  140POPC   C4B 2113   4.929   9.558   5.982
  141POPC   NC3 2114   9.563   1.824   8.202
  141POPC   PO4 2115   9.229   2.356   8.128
  141POPC   GL1 2116   9.425   2.072   7.779
  141POPC   GL2 2117   9.456   1.704   7.721
  141POPC   C1A 2118   9.566   2.033   7.331
  141POPC   D2A 2119   9.851   1.928   6.989
  141POPC   C3A 2120   9.755   2.107   6.587
  141POPC   C4A 2121   9.627   2.092   6.172
  141POPC   C1B 2122   9.134   1.761   7.382
  141POPC   C2B 2123   9.258   1.785   6.942
  141POPC   C3B 2124   9.293   1.862   6.503
  141POPC   C4B 2125   9.145   1.902   6.064
  142POPC   NC3 2126  10.206   2.005   8.306
  142POPC   PO4 2127  10.254   2.643   8.039
  142POPC   GL1 2128  10.112   2.713   7.626
  142POPC   GL2 2129  10.009   3.048   7.549
  142POPC   C1A 2130  10.079   2.729   7.154
  142POPC   D2A 2131   9.785   2.547   6.893
  142POPC   C3A 2132  10.077   2.523   6.578
  142POPC   C4A 2133  10.076   2.358   6.181
  142POPC   C1B 2134  10.440   3.004   7.365
  142POPC   C2B 2135  10.449   3.113   6.935
  142POPC   C3B 2136  10.368   3.242   6.535
  142POPC   C4B 2137  10.312   2.883   6.296
  143POPC   NC3 2138   4.507   9.515   8.065
  143POPC   PO4 2139   3.916   9.187   8.004
  143POPC   GL1 2140   4.238   9.222   7.736
  143POPC   GL2 2141   4.135   9.565   7.672
  143POPC   C1A 2142   4.448   9.286   7.383
  143POPC   D2A 2143   4.349   9.475   7.031
  143POPC   C3A 2144   4.406   9.319   6.606
  143POPC   C4A 2145   4.433   9.425   6.168
  143POPC   C1B 2146   3.921   9.368   7.291
  143POPC   C2B 2147   3.905   9.409   6.818
  143POPC   C3B 2148   3.941   9.373   6.405
  143POPC   C4B 2149   4.003   9.687   6.179
  144POPC   NC3 2150   4.927   8.610   8.120
  144POPC   PO4 2151   5.499   8.725   7.985
  144POPC   GL1 2152   5.151   8.737   7.649
  144POPC   GL2 2153   4.778   8.733   7.649
  144POPC   C1A 2154   5.235   8.699   7.209
  144POPC   D2A 2155   5.327   8.993   6.905
  144POPC   C3A 2156   5.261   8.852   6.502
  144POPC   C4A 2157   5.151   8.528   6.264
  144POPC   C1B 2158   4.783   8.481   7.255
  144POPC   C2B 2159   4.828   8.658   6.823
  144POPC   C3B 2160   4.677   8.454   6.448
  144POPC   C4B 2161   4.530   8.528   6.036
  145POPC   NC3 2162   8.679   4.127   8.236
  145POPC   PO4 2163   8.317   4.623   8.025
  145POPC   GL1 2164   8.438   4.409   7.630
  145POPC   GL2 2165   8.786   4.363   7.443
  145POPC   C1A 2166   8.317   4.189   7.258
  145POPC   D2A 2167   8.302   4.281   6.837
  145POPC   C3A 2168   8.200   4.031   6.463
  145POPC   C4A 2169   8.028   4.164   6.057
  145POPC   C1B 2170   8.787   4.059   7.112
  145POPC   C2B 2171   8.672   3.933   6.695
  145POPC   C3B 2172   8.666   4.021   6.246
  145POPC   C4B 2173   8.822   4.402   6.039
  146POPC   NC3 2174   7.144   2.680   8.118
  146POPC   PO4 2175   7.753   2.371   8.079
  146POPC   GL1 2176   7.521   2.484   7.689
  146POPC   GL2 2177   7.190   2.671   7.616
  146POPC   C1A 2178   7.507   2.594   7.237
  146POPC   D2A 2179   7.629   2.728   6.831
  146POPC   C3A 2180   7.330   2.898   6.557
  146POPC   C4A 2181   7.496   2.688   6.251
  146POPC   C1B 2182   7.032   2.393   7.258
  146POPC   C2B 2183   6.895   2.241   6.864
  146POPC   C3B 2184   7.076   2.443   6.514
  146POPC   C4B 2185   6.886   2.698   6.256
  147POPC   NC3 2186   4.888  10.413   7.895
  147POPC   PO4 2187   4.903   9.791   8.189
  147POPC   GL1 2188   5.158   9.954   7.848
  147POPC   GL2 2189   4.904  10.023   7.579
  147POPC   C1A 2190   5.297   9.830   7.381
  147POPC   D2A 2191   5.079   9.989   7.025
  147POPC   C3A 2192   5.217   9.905   6.589
  147POPC   C4A 2193   5.013  10.043   6.194
  147POPC   C1B 2194   4.750  10.330   7.273
  147POPC   C2B 2195   4.524  10.294   6.927
  147POPC   C3B 2196   4.686  10.168   6.568
  147POPC   C4B 2197   4.643  10.416   6.210
  148POPC   NC3 2198   8.666   0.314   8.204
  148POPC   PO4 2199   8.004   0.058   8.046
  148POPC   GL1 2200   8.365   0.361   7.787
  148POPC   GL2 2201   8.734   0.375   7.701
  148POPC   C1A 2202   8.371   0.476   7.313
  148POPC   D2A 2203   8.176   0.463   6.873
  148POPC   C3A 2204   8.389   0.448   6.506
  148POPC   C4A 2205   8.393   0.157   6.209
  148POPC   C1B 2206   8.876   0.450   7.275
  148POPC   C2B 2207   8.718   0.507   6.887
  148POPC   C3B 2208   8.895   0.525   6.488
  148POPC   C4B 2209   8.886   0.591   6.074
  149POPC   NC3 2210   4.225   8.821   8.057
  149POPC   PO4 2211   4.604   8.290   8.086
  149POPC   GL1 2212   4.333   8.491   7.674
  149POPC   GL2 2213   4.027   8.744   7.586
  149POPC   C1A 2214   4.406   8.796   7.276
  149POPC   D2A 2215   4.173   8.988   6.940
  149POPC   C3A 2216   4.228   8.862   6.485
  149POPC   C4A 2217   4.265   8.970   6.049
  149POPC   C1B 2218   4.041   8.446   7.221
  149POPC   C2B 2219   4.296   8.479   6.831
  149POPC   C3B 2220   4.173   8.367   6.395
  149POPC   C4B 2221   4.027   8.539   6.014
  150POPC   NC3 2222   9.793  10.268   4.156
  150POPC   PO4 2223   9.181  10.186   3.701
  150POPC   GL1 2224   9.263   9.951   4.182
  150POPC   GL2 2225   9.482  10.031   4.447
  150POPC   C1A 2226   9.050  10.117   4.656
  150POPC   D2A 2227   9.020  10.372   5.070
  150POPC   C3A 2228   9.212  10.222   5.456
  150POPC   C4A 2229   9.082  10.271   5.861
  150POPC   C1B 2230   9.715  10.192   4.799
  150POPC   C2B 2231   9.838  10.052   5.191
  150POPC   C3B 2232   9.875  10.348   5.538
  150POPC   C4B 2233   9.594  10.324   5.836
  151POPC   NC3 2234   6.387   9.815   3.900
  151POPC   PO4 2235   6.826  10.108   3.658
  151POPC   GL1 2236   6.660  10.164   4.116
  151POPC   GL2 2237   6.381  10.317   4.172
  151POPC   C1A 2238   6.465   9.950   4.526
  151POPC   D2A 2239   6.283  10.006   4.944
  151POPC   C3A 2240   6.563   9.937   5.272
  151POPC   C4A 2241   6.659   9.974   5.697
  151POPC   C1B 2242   6.245  10.413   4.600
  151POPC   C2B 2243   6.224   0.065   5.024
  151POPC   C3B 2244   6.322  10.366   5.375
  151POPC   C4B 2245   6.290  10.323   5.791
  152POPC   NC3 2246   0.791   9.608   4.059
  152POPC   PO4 2247   1.304   9.328   3.638
  152POPC   GL1 2248   1.275   9.415   4.126
  152POPC   GL2 2249   1.577   9.632   4.215
  152POPC   C1A 2250   1.073   9.273   4.571
  152POPC   D2A 2251   1.010   9.055   5.017
  152POPC   C3A 2252   0.804   9.164   5.434
  152POPC   C4A 2253   0.990   9.377   5.790
  152POPC   C1B 2254   1.471   9.690   4.637
  152POPC   C2B 2255   1.384   9.408   4.953
  152POPC   C3B 2256   1.263   9.384   5.356
  152POPC   C4B 2257   1.481   9.478   5.730
  153POPC   NC3 2258   1.510  10.272   3.935
  153POPC   PO4 2259   0.883  10.028   3.876
  153POPC   GL1 2260   1.057  10.255   4.200
  153POPC   GL2 2261   1.192   9.943   4.275
  153POPC   C1A 2262   1.227  10.310   4.625
  153POPC   D2A 2263   0.894  10.288   4.916
  153POPC   C3A 2264   0.873  10.377   5.350
  153POPC   C4A 2265   1.051  10.387   5.761
  153POPC   C1B 2266   0.974   9.831   4.657
  153POPC   C2B 2267   1.119   9.845   5.067
  153POPC   C3B 2268   1.144   9.878   5.498
  153POPC   C4B 2269   1.494  10.077   5.670
  154POPC   NC3 2270   1.127   1.476   3.975
  154POPC   PO4 2271   1.622   0.935   3.849
  154POPC   GL1 2272   1.535   1.124   4.259
  154POPC   GL2 2273   1.202   1.118   4.347
  154POPC   C1A 2274   1.559   1.377   4.680
  154POPC   D2A 2275   1.352   1.455   5.099
  154POPC   C3A 2276   1.564   1.484   5.523
  154POPC   C4A 2277   1.544   1.243   5.921
  154POPC   C1B 2278   1.046   1.456   4.641
  154POPC   C2B 2279   0.826   1.484   5.037
  154POPC   C3B 2280   0.783   1.213   5.389
  154POPC   C4B 2281   1.052   1.246   5.714
  155POPC   NC3 2282   8.795   7.781   3.884
  155POPC   PO4 2283   8.255   8.297   3.796
  155POPC   GL1 2284   8.253   8.168   4.264
  155POPC   GL2 2285   8.575   7.954   4.308
  155POPC   C1A 2286   8.278   8.068   4.705
  155POPC   D2A 2287   8.566   8.124   5.029
  155POPC   C3A 2288   8.524   8.003   5.454
  155POPC   C4A 2289   8.212   8.018   5.774
  155POPC   C1B 2290   8.829   7.848   4.660
  155POPC   C2B 2291   8.825   7.692   5.088
  155POPC   C3B 2292   9.025   7.847   5.479
  155POPC   C4B 2293   8.828   7.830   5.898
  156POPC   NC3 2294   2.759   1.130   3.944
  156POPC   PO4 2295   3.126   1.572   3.588
  156POPC   GL1 2296   3.134   1.382   4.131
  156POPC   GL2 2297   2.789   1.420   4.330
  156POPC   C1A 2298   3.153   1.397   4.657
  156POPC   D2A 2299   3.086   1.075   5.021
  156POPC   C3A 2300   3.079   1.207   5.457
  156POPC   C4A 2301   2.891   1.045   5.858
  156POPC   C1B 2302   2.586   1.226   4.666
  156POPC   C2B 2303   2.601   1.397   5.096
  156POPC   C3B 2304   2.586   1.302   5.522
  156POPC   C4B 2305   2.328   0.989   5.641
  157POPC   NC3 2306   0.587   3.232   3.951
  157POPC   PO4 2307  10.438   3.380   3.821
  157POPC   GL1 2308   0.152   3.435   4.233
  157POPC   GL2 2309   0.373   3.159   4.377
  157POPC   C1A 2310   0.076   3.541   4.673
  157POPC   D2A 2311   0.277   3.472   5.064
  157POPC   C3A 2312   0.133   3.457   5.466
  157POPC   C4A 2313   0.339   3.155   5.731
  157POPC   C1B 2314   0.606   3.399   4.650
  157POPC   C2B 2315   0.804   3.415   5.026
  157POPC   C3B 2316   0.743   3.337   5.445
  157POPC   C4B 2317   0.546   3.636   5.724
  158POPC   NC3 2318   8.798   5.371   3.834
  158POPC   PO4 2319   8.848   6.034   3.933
  158POPC   GL1 2320   8.834   5.767   4.316
  158POPC   GL2 2321   8.508   5.720   4.291
  158POPC   C1A 2322   8.949   5.542   4.724
  158POPC   D2A 2323   8.771   5.489   5.121
  158POPC   C3A 2324   8.878   5.534   5.523
  158POPC   C4A 2325   8.551   5.398   5.780
  158POPC   C1B 2326   8.471   5.698   4.730
  158POPC   C2B 2327   8.280   5.679   5.112
  158POPC   C3B 2328   8.442   5.821   5.462
  158POPC   C4B 2329   8.542   5.888   5.869
  159POPC   NC3 2330   7.894   4.944   3.813
  159POPC   PO4 2331   8.417   4.838   3.917
  159POPC   GL1 2332   8.220   4.828   4.319
  159POPC   GL2 2333   7.860   4.771   4.310
  159POPC   C1A 2334   8.221   4.877   4.794
  159POPC   D2A 2335   8.109   4.694   5.202
  159POPC   C3A 2336   7.853   4.831   5.579
  159POPC   C4A 2337   7.948   4.680   5.997
  159POPC   C1B 2338   7.743   5.023   4.705
  159POPC   C2B 2339   7.818   5.160   5.170
  159POPC   C3B 2340   7.590   5.259   5.587
  159POPC   C4B 2341   7.704   5.325   6.031
  160POPC   NC3 2342   2.164  10.303   4.067
  160POPC   PO4 2343   1.650   0.226   3.944
  160POPC   GL1 2344   1.759  10.466   4.339
  160POPC   GL2 2345   1.676  10.119   4.414
  160POPC   C1A 2346   2.044  10.437   4.724
  160POPC   D2A 2347   2.242  10.404   5.138
  160POPC   C3A 2348   2.025   0.057   5.531
  160POPC   C4A 2349   2.128   0.060   5.977
  160POPC   C1B 2350   1.657  10.128   4.876
  160POPC   C2B 2351   1.873  10.080   5.288
  160POPC   C3B 2352   1.985  10.075   5.740
  160POPC   C4B 2353   1.760  10.259   6.109
  161POPC   NC3 2354   1.888   4.498   4.044
  161POPC   PO4 2355   1.845   3.830   3.862
  161POPC   GL1 2356   2.049   4.018   4.233
  161POPC   GL2 2357   1.794   4.103   4.434
  161POPC   C1A 2358   2.197   4.002   4.706
  161POPC   D2A 2359   1.949   4.106   5.084
  161POPC   C3A 2360   2.168   4.001   5.493
  161POPC   C4A 2361   2.207   3.935   5.959
  161POPC   C1B 2362   1.767   4.484   4.686
  161POPC   C2B 2363   1.764   4.666   5.084
  161POPC   C3B 2364   1.762   4.429   5.442
  161POPC   C4B 2365   1.779   4.176   5.776
  162POPC   NC3 2366   7.033   0.576   4.019
  162POPC   PO4 2367   7.627   0.451   3.890
  162POPC   GL1 2368   7.502   0.617   4.252
  162POPC   GL2 2369   7.355   0.280   4.303
  162POPC   C1A 2370   7.542   0.549   4.692
  162POPC   D2A 2371   7.449   0.427   5.128
  162POPC   C3A 2372   7.361   0.732   5.463
  162POPC   C4A 2373   7.386   0.710   5.923
  162POPC   C1B 2374   7.094   0.292   4.685
  162POPC   C2B 2375   6.969   0.272   5.114
  162POPC   C3B 2376   7.074   0.300   5.576
  162POPC   C4B 2377   7.056   0.350   6.036
  163POPC   NC3 2378   7.902   0.095   3.899
  163POPC   PO4 2379   8.544   0.081   3.741
  163POPC   GL1 2380   8.271   0.241   4.188
  163POPC   GL2 2381   8.039   0.559   4.176
  163POPC   C1A 2382   7.910   0.178   4.533
  163POPC   D2A 2383   7.730  10.441   4.900
  163POPC   C3A 2384   7.815   0.078   5.338
  163POPC   C4A 2385   7.579   0.307   5.655
  163POPC   C1B 2386   8.041   0.666   4.603
  163POPC   C2B 2387   7.954   0.446   4.988
  163POPC   C3B 2388   7.856   0.640   5.367
  163POPC   C4B 2389   7.882   0.716   5.780
  164POPC   NC3 2390   8.804  10.246   4.011
  164POPC   PO4 2391   8.703   9.603   3.880
  164POPC   GL1 2392   8.820   9.796   4.297
  164POPC   GL2 2393   8.604  10.057   4.429
  164POPC   C1A 2394   8.721   9.687   4.749
  164POPC   D2A 2395   8.817   9.929   5.098
  164POPC   C3A 2396   8.975   9.783   5.488
  164POPC   C4A 2397   8.805   9.861   5.876
  164POPC   C1B 2398   8.622  10.401   4.730
  164POPC   C2B 2399   8.516  10.446   5.165
  164POPC   C3B 2400   8.672  10.240   5.523
  164POPC   C4B 2401   8.570  10.276   5.957
  165POPC   NC3 2402   2.254   2.671   3.900
  165POPC   PO4 2403   1.604   2.716   3.778
  165POPC   GL1 2404   1.640   2.717   4.236
  165POPC   GL2 2405   1.988   2.764   4.322
  165POPC   C1A 2406   1.566   2.765   4.699
  165POPC   D2A 2407   1.794   2.749   5.126
  165POPC   C3A 2408   1.534   2.858   5.381
  165POPC   C4A 2409   1.557   2.799   5.740
  165POPC   C1B 2410   2.075   2.656   4.739
  165POPC   C2B 2411   2.321   2.478   5.049
  165POPC   C3B 2412   2.165   2.358   5.437
  165POPC   C4B 2413   2.029   2.626   5.754
  166POPC   NC3 2414   6.626   8.368   3.726
  166POPC   PO4 2415   6.148   8.834   3.853
  166POPC   GL1 2416   6.159   8.756   4.369
  166POPC   GL2 2417   6.522   8.767   4.541
  166POPC   C1A 2418   6.254   8.412   4.727
  166POPC   D2A 2419   6.503   8.528   5.106
  166POPC   C3A 2420   6.323   8.497   5.537
  166POPC   C4A 2421   6.181   8.176   5.835
  166POPC   C1B 2422   6.213   8.920   4.856
  166POPC   C2B 2423   6.169   9.005   5.286
  166POPC   C3B 2424   6.507   8.974   5.556
  166POPC   C4B 2425   6.591   9.002   5.970
  167POPC   NC3 2426  10.211   7.237   3.969
  167POPC   PO4 2427   9.805   6.795   3.833
  167POPC   GL1 2428   9.824   7.042   4.274
  167POPC   GL2 2429  10.158   7.172   4.452
  167POPC   C1A 2430   9.801   7.020   4.754
  167POPC   D2A 2431   9.960   6.868   5.132
  167POPC   C3A 2432  10.021   7.093   5.484
  167POPC   C4A 2433  10.084   6.979   5.873
  167POPC   C1B 2434  10.236   7.388   4.855
  167POPC   C2B 2435  10.440   7.193   5.228
  167POPC   C3B 2436   0.041   6.950   5.654
  167POPC   C4B 2437  10.499   7.059   6.150
  168POPC   NC3 2438   8.329   1.559   4.236
  168POPC   PO4 2439   8.178   1.010   3.802
  168POPC   GL1 2440   8.201   1.058   4.232
  168POPC   GL2 2441   7.841   1.033   4.305
  168POPC   C1A 2442   8.370   1.055   4.666
  168POPC   D2A 2443   8.146   0.914   5.054
  168POPC   C3A 2444   8.281   0.978   5.500
  168POPC   C4A 2445   8.169   1.136   5.931
  168POPC   C1B 2446   7.889   1.216   4.702
  168POPC   C2B 2447   7.854   1.315   5.135
  168POPC   C3B 2448   7.785   1.149   5.541
  168POPC   C4B 2449   7.706   1.462   5.848
  169POPC   NC3 2450   4.871   8.461   4.008
  169POPC   PO4 2451   4.805   9.186   3.899
  169POPC   GL1 2452   4.859   8.953   4.280
  169POPC   GL2 2453   4.575   8.746   4.319
  169POPC   C1A 2454   4.781   9.002   4.735
  169POPC   D2A 2455   4.608   8.968   5.140
  169POPC   C3A 2456   4.785   8.814   5.466
  169POPC   C4A 2457   4.946   8.712   5.842
  169POPC   C1B 2458   4.801   8.491   4.648
  169POPC   C2B 2459   4.917   8.531   5.081
  169POPC   C3B 2460   4.882   8.320   5.501
  169POPC   C4B 2461   4.930   8.201   5.936
  170POPC   NC3 2462   7.779   6.506   3.901
  170POPC   PO4 2463   7.545   7.029   4.073
  170POPC   GL1 2464   7.825   6.736   4.386
  170POPC   GL2 2465   8.024   6.430   4.338
  170POPC   C1A 2466   7.954   6.540   4.831
  170POPC   D2A 2467   7.830   6.306   5.214
  170POPC   C3A 2468   7.817   6.551   5.614
  170POPC   C4A 2469   8.022   6.555   6.011
  170POPC   C1B 2470   8.210   6.136   4.624
  170POPC   C2B 2471   8.353   6.198   5.027
  170POPC   C3B 2472   8.292   6.413   5.385
  170POPC   C4B 2473   8.095   6.121   5.696
  171POPC   NC3 2474   5.667   2.254   3.973
  171POPC   PO4 2475   5.356   1.673   3.831
  171POPC   GL1 2476   5.538   1.732   4.242
  171POPC   GL2 2477   5.867   1.861   4.266
  171POPC   C1A 2478   5.686   1.594   4.671
  171POPC   D2A 2479   5.869   1.680   5.058
  171POPC   C3A 2480   5.569   1.746   5.364
  171POPC   C4A 2481   5.745   1.622   5.744
  171POPC   C1B 2482   5.655   2.096   4.638
  171POPC   C2B 2483   5.744   2.177   5.093
  171POPC   C3B 2484   5.810   2.154   5.560
  171POPC   C4B 2485   5.690   2.369   5.961
  172POPC   NC3 2486   1.459   3.798   4.130
  172POPC   PO4 2487   0.931   3.456   3.746
  172POPC   GL1 2488   0.944   3.547   4.200
  172POPC   GL2 2489   0.976   3.200   4.344
  172POPC   C1A 2490   1.035   3.716   4.644
  172POPC   D2A 2491   1.257   3.700   5.067
  172POPC   C3A 2492   0.978   3.777   5.434
  172POPC   C4A 2493   1.029   3.585   5.856
  172POPC   C1B 2494   1.279   3.245   4.703
  172POPC   C2B 2495   1.222   3.169   5.124
  172POPC   C3B 2496   1.355   3.370   5.480
  172POPC   C4B 2497   1.415   3.252   5.885
  173POPC   NC3 2498   0.773   2.228   3.887
  173POPC   PO4 2499   0.719   2.814   4.083
  173POPC   GL1 2500   0.615   2.495   4.327
  173POPC   GL2 2501   0.293   2.632   4.412
  173POPC   C1A 2502   0.699   2.371   4.741
  173POPC   D2A 2503   0.485   2.482   5.116
  173POPC   C3A 2504   0.645   2.634   5.533
  173POPC   C4A 2505   0.403   2.463   5.831
  173POPC   C1B 2506   0.495   2.876   4.771
  173POPC   C2B 2507   0.453   2.990   5.206
  173POPC   C3B 2508   0.167   2.727   5.454
  173POPC   C4B 2509   0.011   2.794   5.856
  174POPC   NC3 2510   1.822   7.192   4.077
  174POPC   PO4 2511   2.494   7.267   3.875
  174POPC   GL1 2512   2.250   7.097   4.296
  174POPC   GL2 2513   1.985   7.332   4.517
  174POPC   C1A 2514   2.170   6.949   4.761
  174POPC   D2A 2515   2.090   7.222   5.145
  174POPC   C3A 2516   2.141   6.941   5.496
  174POPC   C4A 2517   2.019   6.829   5.910
  174POPC   C1B 2518   1.687   7.139   4.804
  174POPC   C2B 2519   1.675   6.949   5.212
  174POPC   C3B 2520   1.688   7.131   5.618
  174POPC   C4B 2521   1.653   7.432   5.954
  175POPC   NC3 2522   7.232   7.361   4.004
  175POPC   PO4 2523   6.794   7.952   3.878
  175POPC   GL1 2524   7.026   8.000   4.328
  175POPC   GL2 2525   7.387   7.979   4.385
  175POPC   C1A 2526   7.083   7.803   4.761
  175POPC   D2A 2527   7.258   7.755   5.202
  175POPC   C3A 2528   7.077   7.720   5.637
  175POPC   C4A 2529   7.039   7.374   5.946
  175POPC   C1B 2530   7.340   8.265   4.734
  175POPC   C2B 2531   7.392   8.407   5.147
  175POPC   C3B 2532   7.241   8.197   5.494
  175POPC   C4B 2533   7.258   8.122   5.919
  176POPC   NC3 2534   1.685   2.261   3.705
  176POPC   PO4 2535   1.575   1.630   4.053
  176POPC   GL1 2536   1.431   1.902   4.347
  176POPC   GL2 2537   1.051   1.896   4.361
  176POPC   C1A 2538   1.465   1.870   4.778
  176POPC   D2A 2539   1.381   1.978   5.181
  176POPC   C3A 2540   1.094   1.740   5.459
  176POPC   C4A 2541   1.235   1.649   5.913
  176POPC   C1B 2542   0.980   1.935   4.837
  176POPC   C2B 2543   0.927   2.214   5.175
  176POPC   C3B 2544   0.753   2.149   5.566
  176POPC   C4B 2545   0.987   2.087   5.911
  177POPC   NC3 2546   5.051   0.616   3.796
  177POPC   PO4 2547   4.423   0.566   3.970
  177POPC   GL1 2548   4.612   0.597   4.374
  177POPC   GL2 2549   4.901   0.386   4.249
  177POPC   C1A 2550   4.673   0.730   4.833
  177POPC   D2A 2551   4.617   0.473   5.167
  177POPC   C3A 2552   4.749   0.595   5.566
  177POPC   C4A 2553   4.740   0.228   5.818
  177POPC   C1B 2554   4.904   0.307   4.687
  177POPC   C2B 2555   5.106   0.472   5.044
  177POPC   C3B 2556   5.142   0.301   5.450
  177POPC   C4B 2557   5.321   0.362   5.849
  178POPC   NC3 2558   3.490   1.835   3.799
  178POPC   PO4 2559   2.956   1.816   4.053
  178POPC   GL1 2560   3.254   1.857   4.372
  178POPC   GL2 2561   3.573   2.000   4.287
  178POPC   C1A 2562   3.170   1.869   4.845
  178POPC   D2A 2563   3.415   1.933   5.195
  178POPC   C3A 2564   3.217   1.691   5.474
  178POPC   C4A 2565   2.942   1.593   5.813
  178POPC   C1B 2566   3.475   2.219   4.686
  178POPC   C2B 2567   3.622   2.399   5.057
  178POPC   C3B 2568   3.739   2.284   5.453
  178POPC   C4B 2569   3.470   2.063   5.708
  179POPC   NC3 2570   6.561   2.264   3.940
  179POPC   PO4 2571   6.907   1.700   4.000
  179POPC   GL1 2572   6.742   1.891   4.347
  179POPC   GL2 2573   6.382   1.817   4.327
  179POPC   C1A 2574   6.630   1.972   4.777
  179POPC   D2A 2575   6.778   1.885   5.183
  179POPC   C3A 2576   6.626   2.136   5.521
  179POPC   C4A 2577   6.627   1.839   5.827
  179POPC   C1B 2578   6.136   1.957   4.718
  179POPC   C2B 2579   6.243   2.052   5.169
  179POPC   C3B 2580   6.197   1.811   5.546
  179POPC   C4B 2581   6.226   1.504   5.915
  180POPC   NC3 2582   8.995   0.144   3.686
  180POPC   PO4 2583   9.354  10.420   4.145
  180POPC   GL1 2584   8.980   0.050   4.383
  180POPC   GL2 2585   8.771   0.254   4.188
  180POPC   C1A 2586   8.932   0.318   4.762
  180POPC   D2A 2587   9.160   0.370   5.137
  180POPC   C3A 2588   8.954   0.191   5.465
  180POPC   C4A 2589   8.690   0.225   5.784
  180POPC   C1B 2590   8.548   0.540   4.524
  180POPC   C2B 2591   8.470   0.451   4.999
  180POPC   C3B 2592   8.319   0.419   5.458
  180POPC   C4B 2593   8.367   0.597   5.902
  181POPC   NC3 2594  10.315   0.594   4.010
  181POPC   PO4 2595   9.720   0.528   3.722
  181POPC   GL1 2596   9.866   0.515   4.259
  181POPC   GL2 2597  10.197   0.344   4.412
  181POPC   C1A 2598   9.792   0.223   4.637
  181POPC   D2A 2599   9.660   0.420   5.000
  181POPC   C3A 2600   9.896   0.430   5.386
  181POPC   C4A 2601  10.008   0.285   5.807
  181POPC   C1B 2602  10.156   0.491   4.830
  181POPC   C2B 2603  10.167   0.767   5.132
  181POPC   C3B 2604  10.374   0.676   5.497
  181POPC   C4B 2605  10.380   0.677   5.946
  182POPC   NC3 2606   8.394   2.495   3.889
  182POPC   PO4 2607   8.967   2.940   3.838
  182POPC   GL1 2608   8.881   2.784   4.244
  182POPC   GL2 2609   8.569   2.965   4.319
  182POPC   C1A 2610   9.043   2.734   4.676
  182POPC   D2A 2611   8.961   2.919   5.073
  182POPC   C3A 2612   9.001   2.626   5.399
  182POPC   C4A 2613   8.907   2.665   5.813
  182POPC   C1B 2614   8.552   2.575   4.592
  182POPC   C2B 2615   8.638   2.498   5.034
  182POPC   C3B 2616   8.518   2.801   5.346
  182POPC   C4B 2617   8.385   2.689   5.732
  183POPC   NC3 2618   4.703  10.239   3.852
  183POPC   PO4 2619   5.279   0.084   3.805
  183POPC   GL1 2620   5.245  10.472   4.215
  183POPC   GL2 2621   5.073  10.175   4.179
  183POPC   C1A 2622   5.318   0.018   4.648
  183POPC   D2A 2623   5.075  10.438   5.028
  183POPC   C3A 2624   5.267  10.318   5.416
  183POPC   C4A 2625   5.120  10.382   5.826
  183POPC   C1B 2626   4.819  10.274   4.565
  183POPC   C2B 2627   4.764  10.034   4.959
  183POPC   C3B 2628   4.968   9.887   5.333
  183POPC   C4B 2629   4.772   9.968   5.741
  184POPC   NC3 2630   9.462   0.705   4.049
  184POPC   PO4 2631  10.015   1.061   4.067
  184POPC   GL1 2632   9.737   1.061   4.390
  184POPC   GL2 2633   9.369   1.048   4.389
  184POPC   C1A 2634   9.795   0.893   4.787
  184POPC   D2A 2635   9.652   0.870   5.206
  184POPC   C3A 2636   9.804   1.104   5.514
  184POPC   C4A 2637   9.509   1.349   5.717
  184POPC   C1B 2638   9.398   1.249   4.785
  184POPC   C2B 2639   9.378   1.318   5.220
  184POPC   C3B 2640   9.056   1.233   5.517
  184POPC   C4B 2641   9.021   1.449   5.902
  185POPC   NC3 2642   2.371   8.719   3.966
  185POPC   PO4 2643   2.866   8.247   3.783
  185POPC   GL1 2644   2.731   8.447   4.241
  185POPC   GL2 2645   2.356   8.492   4.406
  185POPC   C1A 2646   2.754   8.611   4.703
  185POPC   D2A 2647   2.970   8.738   5.088
  185POPC   C3A 2648   2.765   9.066   5.366
  185POPC   C4A 2649   2.856   8.910   5.789
  185POPC   C1B 2650   2.193   8.394   4.790
  185POPC   C2B 2651   2.411   8.590   5.104
  185POPC   C3B 2652   2.637   8.582   5.474
  185POPC   C4B 2653   2.555   8.398   5.881
  186POPC   NC3 2654   7.286  10.166   3.815
  186POPC   PO4 2655   6.866   0.144   4.077
  186POPC   GL1 2656   7.096  10.335   4.302
  186POPC   GL2 2657   7.097   9.957   4.247
  186POPC   C1A 2658   6.887  10.203   4.655
  186POPC   D2A 2659   6.676  10.359   4.987
  186POPC   C3A 2660   6.858  10.352   5.396
  186POPC   C4A 2661   6.790  10.444   5.825
  186POPC   C1B 2662   7.255   9.849   4.656
  186POPC   C2B 2663   7.194  10.064   5.041
  186POPC   C3B 2664   7.072   9.882   5.412
  186POPC   C4B 2665   7.187  10.118   5.752
  187POPC   NC3 2666   7.172   9.200   3.829
  187POPC   PO4 2667   7.501   9.778   4.025
  187POPC   GL1 2668   7.352   9.400   4.300
  187POPC   GL2 2669   7.024   9.206   4.301
  187POPC   C1A 2670   7.217   9.322   4.752
  187POPC   D2A 2671   7.314   9.579   5.087
  187POPC   C3A 2672   7.285   9.376   5.434
  187POPC   C4A 2673   7.262   9.582   5.786
  187POPC   C1B 2674   6.847   9.589   4.509
  187POPC   C2B 2675   6.829   9.636   4.966
  187POPC   C3B 2676   6.830   9.256   5.268
  187POPC   C4B 2677   7.013   9.047   5.688
  188POPC   NC3 2678   9.158   8.921   3.961
  188POPC   PO4 2679   9.685   8.568   3.822
  188POPC   GL1 2680   9.721   8.793   4.202
  188POPC   GL2 2681   9.428   8.656   4.327
  188POPC   C1A 2682   9.741   8.829   4.672
  188POPC   D2A 2683   9.634   8.856   5.101
  188POPC   C3A 2684   9.926   8.805   5.437
  188POPC   C4A 2685   9.769   8.888   5.836
  188POPC   C1B 2686   9.216   8.801   4.738
  188POPC   C2B 2687   9.161   8.682   5.161
  188POPC   C3B 2688   9.272   8.746   5.598
  188POPC   C4B 2689   8.960   8.659   5.905
  189POPC   NC3 2690   3.724  10.056   3.807
  189POPC   PO4 2691   3.063   9.784   3.848
  189POPC   GL1 2692   3.123   9.911   4.269
  189POPC   GL2 2693   3.427  10.039   4.226
  189POPC   C1A 2694   2.949   9.909   4.682
  189POPC   D2A 2695   3.088  10.074   5.075
  189POPC   C3A 2696   3.040   9.885   5.478
  189POPC   C4A 2697   3.234   9.822   5.873
  189POPC   C1B 2698   3.398  10.169   4.648
  189POPC   C2B 2699   3.602  10.133   5.036
  189POPC   C3B 2700   3.534  10.167   5.464
  189POPC   C4B 2701   3.834  10.492   5.682
  190POPC   NC3 2702   8.284   9.399   3.884
  190POPC   PO4 2703   8.372  10.045   3.965
  190POPC   GL1 2704   8.374   9.601   4.317
  190POPC   GL2 2705   8.712   9.305   4.273
  190POPC   C1A 2706   8.420   9.258   4.653
  190POPC   D2A 2707   8.607   9.210   5.067
  190POPC   C3A 2708   8.579   9.540   5.304
  190POPC   C4A 2709   8.622   9.434   5.722
  190POPC   C1B 2710   8.931   9.232   4.664
  190POPC   C2B 2711   9.076   9.426   5.064
  190POPC   C3B 2712   9.039   9.274   5.482
  190POPC   C4B 2713   9.091   9.454   5.919
  191POPC   NC3 2714   2.453   0.541   3.769
  191POPC   PO4 2715   3.103   0.862   3.744
  191POPC   GL1 2716   2.810   0.579   4.101
  191POPC   GL2 2717   2.841   0.288   4.279
  191POPC   C1A 2718   2.705   0.630   4.627
  191POPC   D2A 2719   2.602   0.871   5.032
  191POPC   C3A 2720   2.756   0.819   5.406
  191POPC   C4A 2721   2.658   0.586   5.756
  191POPC   C1B 2722   2.501   0.176   4.603
  191POPC   C2B 2723   2.435   0.374   4.998
  191POPC   C3B 2724   2.471   0.272   5.415
  191POPC   C4B 2725   2.592   0.072   5.772
  192POPC   NC3 2726   8.778   6.505   3.874
  192POPC   PO4 2727   8.157   6.765   3.969
  192POPC   GL1 2728   8.484   6.622   4.282
  192POPC   GL2 2729   8.523   6.262   4.254
  192POPC   C1A 2730   8.475   6.609   4.736
  192POPC   D2A 2731   8.768   6.532   5.090
  192POPC   C3A 2732   8.747   6.732   5.520
  192POPC   C4A 2733   8.907   6.674   5.961
  192POPC   C1B 2734   8.742   6.143   4.654
  192POPC   C2B 2735   8.808   5.991   5.079
  192POPC   C3B 2736   8.775   6.196   5.480
  192POPC   C4B 2737   8.521   6.382   5.821
  193POPC   NC3 2738   9.687   8.080   3.848
  193POPC   PO4 2739   9.016   8.175   3.983
  193POPC   GL1 2740   9.207   8.206   4.355
  193POPC   GL2 2741   9.538   8.108   4.333
  193POPC   C1A 2742   9.451   8.358   4.759
  193POPC   D2A 2743   9.592   8.104   5.097
  193POPC   C3A 2744   9.426   8.232   5.507
  193POPC   C4A 2745   9.176   8.191   5.894
  193POPC   C1B 2746   9.345   7.865   4.693
  193POPC   C2B 2747   9.335   7.659   5.097
  193POPC   C3B 2748   9.560   7.708   5.502
  193POPC   C4B 2749   9.870   7.679   5.860
  194POPC   NC3 2750   1.220   2.922   3.954
  194POPC   PO4 2751   1.203   2.265   3.734
  194POPC   GL1 2752   1.242   2.368   4.191
  194POPC   GL2 2753   1.121   2.664   4.358
  194POPC   C1A 2754   1.249   2.321   4.677
  194POPC   D2A 2755   1.357   2.484   5.079
  194POPC   C3A 2756   1.187   2.447   5.538
  194POPC   C4A 2757   1.361   2.411   5.965
  194POPC   C1B 2758   1.015   2.806   4.746
  194POPC   C2B 2759   0.938   2.755   5.157
  194POPC   C3B 2760   1.066   2.936   5.563
  194POPC   C4B 2761   0.842   3.071   5.869
  195POPC   NC3 2762   6.607   1.029   3.473
  195POPC   PO4 2763   7.184   1.073   3.887
  195POPC   GL1 2764   7.021   1.023   4.250
  195POPC   GL2 2765   7.041   1.326   4.386
  195POPC   C1A 2766   6.934   0.795   4.628
  195POPC   D2A 2767   7.068   0.841   5.032
  195POPC   C3A 2768   6.846   0.706   5.364
  195POPC   C4A 2769   6.907   0.780   5.752
  195POPC   C1B 2770   7.402   1.050   4.578
  195POPC   C2B 2771   7.562   0.942   5.000
  195POPC   C3B 2772   7.356   1.222   5.288
  195POPC   C4B 2773   7.302   1.171   5.728
  196POPC   NC3 2774   1.895   1.313   3.943
  196POPC   PO4 2775   2.448   1.575   3.983
  196POPC   GL1 2776   2.207   1.430   4.344
  196POPC   GL2 2777   2.067   1.075   4.339
  196POPC   C1A 2778   2.084   1.329   4.777
  196POPC   D2A 2779   2.150   1.094   5.127
  196POPC   C3A 2780   2.104   1.403   5.420
  196POPC   C4A 2781   2.081   1.400   5.849
  196POPC   C1B 2782   1.771   0.928   4.671
  196POPC   C2B 2783   1.645   0.979   5.095
  196POPC   C3B 2784   1.799   1.004   5.530
  196POPC   C4B 2785   1.936   0.942   5.971
  197POPC   NC3 2786   3.417   9.325   4.008
  197POPC   PO4 2787   4.092   9.148   4.152
  197POPC   GL1 2788   3.740   9.186   4.391
  197POPC   GL2 2789   3.665   9.577   4.360
  197POPC   C1A 2790   3.686   9.236   4.830
  197POPC   D2A 2791   3.708   9.214   5.279
  197POPC   C3A 2792   3.890   9.583   5.412
  197POPC   C4A 2793   3.718   9.768   5.764
  197POPC   C1B 2794   3.414   9.667   4.706
  197POPC   C2B 2795   3.428   9.671   5.136
  197POPC   C3B 2796   3.364   9.506   5.499
  197POPC   C4B 2797   3.030   9.376   5.729
  198POPC   NC3 2798   8.388  10.255   3.428
  198POPC   PO4 2799   7.780  10.192   3.721
  198POPC   GL1 2800   7.927  10.223   4.207
  198POPC   GL2 2801   7.602  10.301   4.275
  198POPC   C1A 2802   8.163  10.232   4.605
  198POPC   D2A 2803   8.304   9.957   4.960
  198POPC   C3A 2804   8.147  10.098   5.375
  198POPC   C4A 2805   8.165  10.430   5.698
  198POPC   C1B 2806   7.725   9.999   4.609
  198POPC   C2B 2807   7.744   9.902   5.042
  198POPC   C3B 2808   7.585  10.048   5.414
  198POPC   C4B 2809   7.799  10.034   5.784
  199POPC   NC3 2810   4.916   1.874   3.766
  199POPC   PO4 2811   4.507   2.274   3.932
  199POPC   GL1 2812   4.730   1.963   4.253
  199POPC   GL2 2813   5.017   1.707   4.253
  199POPC   C1A 2814   4.687   1.701   4.654
  199POPC   D2A 2815   4.907   1.666   5.071
  199POPC   C3A 2816   4.681   1.682   5.480
  199POPC   C4A 2817   4.681   1.933   5.860
  199POPC   C1B 2818   5.208   1.818   4.646
  199POPC   C2B 2819   5.230   2.059   5.035
  199POPC   C3B 2820   4.962   2.110   5.417
  199POPC   C4B 2821   5.173   2.154   5.827
  200POPC   NC3 2822   2.565   2.034   4.122
  200POPC   PO4 2823   2.165   2.284   3.660
  200POPC   GL1 2824   1.954   2.261   4.115
  200POPC   GL2 2825   2.012   1.921   4.228
  200POPC   C1A 2826   1.749   2.291   4.543
  200POPC   D2A 2827   1.842   2.236   5.011
  200POPC   C3A 2828   1.671   2.328   5.446
  200POPC   C4A 2829   1.457   2.019   5.676
  200POPC   C1B 2830   1.943   1.810   4.661
  200POPC   C2B 2831   1.830   1.711   5.114
  200POPC   C3B 2832   1.939   1.865   5.566
  200POPC   C4B 2833   1.739   1.727   5.993
  201POPC   NC3 2834   3.033   3.534   4.064
  201POPC   PO4 2835   2.472   3.202   3.881
  201POPC   GL1 2836   2.339   3.290   4.286
  201POPC   GL2 2837   2.702   3.334   4.424
  201POPC   C1A 2838   2.292   3.475   4.698
  201POPC   D2A 2839   2.604   3.366   5.027
  201POPC   C3A 2840   2.532   3.324   5.448
  201POPC   C4A 2841   2.822   3.266   5.810
  201POPC   C1B 2842   2.715   3.748   4.719
  201POPC   C2B 2843   2.560   3.860   5.186
  201POPC   C3B 2844   2.623   3.778   5.688
  201POPC   C4B 2845   2.867   3.691   6.105
  202POPC   NC3 2846   5.233   9.383   3.872
  202POPC   PO4 2847   4.713   9.780   3.985
  202POPC   GL1 2848   4.917   9.716   4.379
  202POPC   GL2 2849   5.086   9.409   4.357
  202POPC   C1A 2850   5.013   9.611   4.824
  202POPC   D2A 2851   4.698   9.464   5.078
  202POPC   C3A 2852   4.740   9.438   5.510
  202POPC   C4A 2853   4.676   9.146   5.823
  202POPC   C1B 2854   5.269   9.176   4.702
  202POPC   C2B 2855   5.122   9.036   5.134
  202POPC   C3B 2856   5.153   9.119   5.602
  202POPC   C4B 2857   5.171   9.119   6.071
  203POPC   NC3 2858   9.154   2.495   3.901
  203POPC   PO4 2859   9.545   1.930   3.909
  203POPC   GL1 2860   9.490   2.305   4.253
  203POPC   GL2 2861   9.393   2.684   4.300
  203POPC   C1A 2862   9.274   2.257   4.660
  203POPC   D2A 2863   9.234   2.232   5.136
  203POPC   C3A 2864   9.670   2.291   5.318
  203POPC   C4A 2865   9.763   2.357   5.759
  203POPC   C1B 2866   9.581   2.637   4.693
  203POPC   C2B 2867   9.416   2.707   5.083
  203POPC   C3B 2868   9.498   2.713   5.506
  203POPC   C4B 2869   9.401   2.721   5.906
  204POPC   NC3 2870   2.234   5.129   4.041
  204POPC   PO4 2871   1.601   4.928   3.971
  204POPC   GL1 2872   1.725   5.179   4.308
  204POPC   GL2 2873   1.938   4.890   4.390
  204POPC   C1A 2874   1.694   5.450   4.726
  204POPC   D2A 2875   1.881   5.439   5.151
  204POPC   C3A 2876   1.634   5.418   5.539
  204POPC   C4A 2877   1.799   5.147   5.878
  204POPC   C1B 2878   2.050   5.064   4.785
  204POPC   C2B 2879   2.166   4.968   5.197
  204POPC   C3B 2880   2.055   4.836   5.552
  204POPC   C4B 2881   2.182   4.471   5.713
  205POPC   NC3 2882   2.221   5.785   3.640
  205POPC   PO4 2883   1.629   5.765   3.886
  205POPC   GL1 2884   1.975   5.586   4.115
  205POPC   GL2 2885   2.161   5.882   4.157
  205POPC   C1A 2886   2.166   5.534   4.553
  205POPC   D2A 2887   2.143   5.792   4.913
  205POPC   C3A 2888   2.275   5.751   5.370
  205POPC   C4A 2889   2.165   5.352   5.580
  205POPC   C1B 2890   1.818   5.914   4.490
  205POPC   C2B 2891   1.694   6.013   4.891
  205POPC   C3B 2892   1.792   5.930   5.322
  205POPC   C4B 2893   1.919   5.804   5.737
  206POPC   NC3 2894   5.839   0.727   4.038
  206POPC   PO4 2895   6.018   0.096   3.986
  206POPC   GL1 2896   5.801   0.027   4.343
  206POPC   GL2 2897   5.617   0.318   4.296
  206POPC   C1A 2898   5.795   0.100   4.776
  206POPC   D2A 2899   5.522   0.187   5.099
  206POPC   C3A 2900   5.673   0.166   5.480
  206POPC   C4A 2901   6.087   0.255   5.625
  206POPC   C1B 2902   5.545   0.527   4.687
  206POPC   C2B 2903   5.531   0.766   5.052
  206POPC   C3B 2904   5.398   0.753   5.462
  206POPC   C4B 2905   5.734   0.615   5.703
  207POPC   NC3 2906   6.681   1.304   3.958
  207POPC   PO4 2907   6.622   0.717   3.849
  207POPC   GL1 2908   6.523   1.004   4.302
  207POPC   GL2 2909   6.203   1.043   4.458
  207POPC   C1A 2910   6.628   1.200   4.700
  207POPC   D2A 2911   6.552   1.029   5.105
  207POPC   C3A 2912   6.843   1.211   5.424
  207POPC   C4A 2913   6.880   1.405   5.835
  207POPC   C1B 2914   6.171   1.438   4.663
  207POPC   C2B 2915   6.366   1.554   5.055
  207POPC   C3B 2916   6.303   1.319   5.443
  207POPC   C4B 2917   6.487   1.080   5.777
  208POPC   NC3 2918   6.996   3.083   3.566
  208POPC   PO4 2919   6.758   2.688   3.978
  208POPC   GL1 2920   7.105   2.643   4.293
  208POPC   GL2 2921   7.187   2.269   4.300
  208POPC   C1A 2922   7.226   2.922   4.668
  208POPC   D2A 2923   7.214   3.123   5.104
  208POPC   C3A 2924   7.193   3.092   5.581
  208POPC   C4A 2925   7.160   3.107   6.074
  208POPC   C1B 2926   7.372   2.438   4.691
  208POPC   C2B 2927   7.282   2.611   5.070
  208POPC   C3B 2928   7.413   2.647   5.477
  208POPC   C4B 2929   7.193   2.646   5.852
  209POPC   NC3 2930   9.854   3.778   3.627
  209POPC   PO4 2931  10.376   4.075   3.882
  209POPC   GL1 2932  10.191   4.158   4.254
  209POPC   GL2 2933  10.308   4.433   4.374
  209POPC   C1A 2934   9.929   4.195   4.616
  209POPC   D2A 2935   9.711   4.341   4.985
  209POPC   C3A 2936   9.914   4.074   5.256
  209POPC   C4A 2937   9.986   4.072   5.652
  209POPC   C1B 2938  10.442   4.080   4.682
  209POPC   C2B 2939  10.403   3.923   5.093
  209POPC   C3B 2940  10.405   4.248   5.385
  209POPC   C4B 2941  10.362   4.410   5.776
  210POPC   NC3 2942   7.826   3.225   4.106
  210POPC   PO4 2943   8.260   3.634   3.976
  210POPC   GL1 2944   8.120   3.537   4.411
  210POPC   GL2 2945   8.124   3.167   4.532
  210POPC   C1A 2946   8.193   3.540   4.878
  210POPC   D2A 2947   8.147   3.174   5.190
  210POPC   C3A 2948   8.109   3.333   5.643
  210POPC   C4A 2949   7.988   3.664   5.948
  210POPC   C1B 2950   7.757   3.285   4.822
  210POPC   C2B 2951   7.650   3.349   5.274
  210POPC   C3B 2952   7.579   3.447   5.714
  210POPC   C4B 2953   7.605   3.388   6.169
  211POPC   NC3 2954   0.272   8.914   4.021
  211POPC   PO4 2955   0.546   8.347   3.945
  211POPC   GL1 2956   0.548   8.539   4.316
  211POPC   GL2 2957   0.199   8.597   4.413
  211POPC   C1A 2958   0.510   8.340   4.710
  211POPC   D2A 2959   0.446   8.088   5.041
  211POPC   C3A 2960   0.420   8.355   5.384
  211POPC   C4A 2961   0.496   8.577   5.748
  211POPC   C1B 2962   0.456   8.932   4.641
  211POPC   C2B 2963   0.463   9.104   5.028
  211POPC   C3B 2964   0.366   8.893   5.380
  211POPC   C4B 2965   0.162   8.973   5.761
  212POPC   NC3 2966   2.292   6.866   3.747
  212POPC   PO4 2967   1.684   6.759   3.972
  212POPC   GL1 2968   1.772   6.810   4.400
  212POPC   GL2 2969   2.059   6.608   4.363
  212POPC   C1A 2970   1.755   6.628   4.805
  212POPC   D2A 2971   1.687   6.420   5.172
  212POPC   C3A 2972   1.768   6.572   5.555
  212POPC   C4A 2973   1.855   6.345   5.952
  212POPC   C1B 2974   2.127   6.277   4.684
  212POPC   C2B 2975   2.176   6.240   5.131
  212POPC   C3B 2976   2.148   6.225   5.560
  212POPC   C4B 2977   2.364   6.422   5.891
  213POPC   NC3 2978  10.138   4.481   3.866
  213POPC   PO4 2979   9.985   5.141   3.707
  213POPC   GL1 2980   9.975   4.890   4.129
  213POPC   GL2 2981  10.301   4.924   4.224
  213POPC   C1A 2982   9.956   4.708   4.594
  213POPC   D2A 2983  10.204   4.491   4.962
  213POPC   C3A 2984  10.013   4.567   5.385
  213POPC   C4A 2985   9.876   4.528   5.832
  213POPC   C1B 2986  10.287   5.090   4.665
  213POPC   C2B 2987  10.121   4.995   5.071
  213POPC   C3B 2988   9.974   5.062   5.497
  213POPC   C4B 2989  10.178   4.927   5.846
  214POPC   NC3 2990   3.350   2.558   3.792
  214POPC   PO4 2991   3.202   3.126   4.144
  214POPC   GL1 2992   3.504   2.779   4.261
  214POPC   GL2 2993   3.326   2.475   4.292
  214POPC   C1A 2994   3.785   2.722   4.653
  214POPC   D2A 2995   3.861   2.850   5.105
  214POPC   C3A 2996   3.664   2.787   5.534
  214POPC   C4A 2997   3.591   2.644   5.968
  214POPC   C1B 2998   3.294   2.697   4.721
  214POPC   C2B 2999   3.268   2.749   5.166
  214POPC   C3B 3000   3.186   2.593   5.590
  214POPC   C4B 3001   3.116   2.845   5.953
  215POPC   NC3 3002   1.409   8.886   3.749
  215POPC   PO4 3003   2.124   9.114   3.773
  215POPC   GL1 3004   1.961   8.939   4.191
  215POPC   GL2 3005   1.815   8.618   4.252
  215POPC   C1A 3006   2.020   8.852   4.656
  215POPC   D2A 3007   1.858   8.699   5.052
  215POPC   C3A 3008   2.068   8.751   5.434
  215POPC   C4A 3009   2.306   8.824   5.782
  215POPC   C1B 3010   1.660   8.432   4.645
  215POPC   C2B 3011   1.655   8.190   5.017
  215POPC   C3B 3012   1.891   8.233   5.373
  215POPC   C4B 3013   2.052   8.359   5.767
  216POPC   NC3 3014   0.440   9.428   3.684
  216POPC   PO4 3015  10.367   9.027   3.798
  216POPC   GL1 3016  10.430   9.168   4.270
  216POPC   GL2 3017   0.280   9.365   4.297
  216POPC   C1A 3018   0.022   9.247   4.733
  216POPC   D2A 3019   0.194   9.565   5.023
  216POPC   C3A 3020   0.302   9.397   5.433
  216POPC   C4A 3021   0.021   9.552   5.739
  216POPC   C1B 3022   0.570   9.472   4.679
  216POPC   C2B 3023   0.715   9.549   5.140
  216POPC   C3B 3024   0.669   9.726   5.634
  216POPC   C4B 3025   0.754   9.672   6.140
  217POPC   NC3 3026   4.153   7.927   3.879
  217POPC   PO4 3027   3.653   8.300   3.916
  217POPC   GL1 3028   3.805   8.033   4.286
  217POPC   GL2 3029   4.175   7.942   4.392
  217POPC   C1A 3030   3.799   7.807   4.705
  217POPC   D2A 3031   3.790   8.025   5.112
  217POPC   C3A 3032   3.883   7.807   5.515
  217POPC   C4A 3033   4.163   7.738   5.871
  217POPC   C1B 3034   4.322   8.077   4.831
  217POPC   C2B 3035   4.306   7.977   5.275
  217POPC   C3B 3036   4.629   7.876   5.603
  217POPC   C4B 3037   4.845   7.685   5.962
  218POPC   NC3 3038   0.608   7.088   4.028
  218POPC   PO4 3039   0.048   7.135   3.664
  218POPC   GL1 3040   0.145   7.151   4.203
  218POPC   GL2 3041   0.402   7.447   4.328
  218POPC   C1A 3042   0.171   7.171   4.687
  218POPC   D2A 3043   0.418   7.324   5.058
  218POPC   C3A 3044   0.335   7.346   5.513
  218POPC   C4A 3045   0.306   7.406   5.963
  218POPC   C1B 3046   0.697   7.202   4.646
  218POPC   C2B 3047   0.865   7.032   5.023
  218POPC   C3B 3048   0.827   7.269   5.377
  218POPC   C4B 3049   0.735   7.153   5.784
  219POPC   NC3 3050   0.793   0.688   4.199
  219POPC   PO4 3051   0.253   0.248   3.920
  219POPC   GL1 3052   0.421   0.375   4.280
  219POPC   GL2 3053   0.201   0.607   4.329
  219POPC   C1A 3054   0.527   0.527   4.754
  219POPC   D2A 3055   0.762   0.385   5.103
  219POPC   C3A 3056   0.798   0.669   5.431
  219POPC   C4A 3057   0.741   0.451   5.798
  219POPC   C1B 3058   0.113   0.279   4.656
  219POPC   C2B 3059   0.094   0.385   5.069
  219POPC   C3B 3060   0.351   0.377   5.412
  219POPC   C4B 3061   0.183   0.331   5.762
  220POPC   NC3 3062   6.434   2.819   4.277
  220POPC   PO4 3063   6.108   2.298   4.056
  220POPC   GL1 3064   6.351   2.317   4.425
  220POPC   GL2 3065   6.675   2.388   4.406
  220POPC   C1A 3066   6.388   2.427   4.849
  220POPC   D2A 3067   6.416   2.633   5.236
  220POPC   C3A 3068   6.224   2.461   5.585
  220POPC   C4A 3069   6.172   2.699   5.971
  220POPC   C1B 3070   6.886   2.412   4.725
  220POPC   C2B 3071   6.840   2.379   5.119
  220POPC   C3B 3072   6.896   2.665   5.423
  220POPC   C4B 3073   6.683   2.632   5.787
  221POPC   NC3 3074   1.720   8.184   4.011
  221POPC   PO4 3075   1.531   7.519   3.977
  221POPC   GL1 3076   1.971   7.744   4.201
  221POPC   GL2 3077   1.985   8.092   4.423
  221POPC   C1A 3078   2.257   7.729   4.632
  221POPC   D2A 3079   2.208   7.941   5.018
  221POPC   C3A 3080   2.147   7.697   5.385
  221POPC   C4A 3081   2.127   7.437   5.744
  221POPC   C1B 3082   1.740   7.820   4.655
  221POPC   C2B 3083   1.758   7.597   5.029
  221POPC   C3B 3084   1.642   7.631   5.452
  221POPC   C4B 3085   1.821   7.893   5.755
  222POPC   NC3 3086   1.079   7.818   3.838
  222POPC   PO4 3087   1.373   8.485   3.974
  222POPC   GL1 3088   1.294   8.254   4.331
  222POPC   GL2 3089   1.377   7.916   4.248
  222POPC   C1A 3090   1.149   8.247   4.765
  222POPC   D2A 3091   0.941   8.196   5.162
  222POPC   C3A 3092   1.259   8.260   5.473
  222POPC   C4A 3093   1.529   8.297   5.853
  222POPC   C1B 3094   1.235   7.771   4.591
  222POPC   C2B 3095   1.297   7.810   5.013
  222POPC   C3B 3096   1.126   7.773   5.385
  222POPC   C4B 3097   1.294   7.853   5.764
  223POPC   NC3 3098   0.175   7.930   3.873
  223POPC   PO4 3099   0.722   7.865   3.546
  223POPC   GL1 3100   0.641   7.870   4.104
  223POPC   GL2 3101   0.340   8.017   4.339
  223POPC   C1A 3102   0.740   7.878   4.596
  223POPC   D2A 3103   0.817   7.628   4.978
  223POPC   C3A 3104   0.621   7.763   5.374
  223POPC   C4A 3105   0.754   8.104   5.676
  223POPC   C1B 3106   0.218   7.745   4.726
  223POPC   C2B 3107   0.095   7.698   5.181
  223POPC   C3B 3108   0.178   7.816   5.627
  223POPC   C4B 3109   0.148   8.216   5.829
  224POPC   NC3 3110  10.193   3.689   4.061
  224POPC   PO4 3111   9.764   3.320   3.658
  224POPC   GL1 3112   9.896   3.224   4.132
  224POPC   GL2 3113  10.222   3.127   4.210
  224POPC   C1A 3114   9.982   3.369   4.613
  224POPC   D2A 3115  10.218   3.428   5.041
  224POPC   C3A 3116  10.059   3.574   5.471
  224POPC   C4A 3117   9.925   3.663   5.929
  224POPC   C1B 3118  10.451   3.033   4.571
  224POPC   C2B 3119  10.490   2.982   4.999
  224POPC   C3B 3120  10.319   3.072   5.400
  224POPC   C4B 3121  10.293   3.253   5.826
  225POPC   NC3 3122   1.829   0.627   4.110
  225POPC   PO4 3123   2.307   0.976   3.864
  225POPC   GL1 3124   2.323   0.642   4.265
  225POPC   GL2 3125   2.057   0.381   4.462
  225POPC   C1A 3126   2.239   0.772   4.703
  225POPC   D2A 3127   1.965   0.572   4.980
  225POPC   C3A 3128   2.114   0.623   5.365
  225POPC   C4A 3129   2.155   0.517   5.783
  225POPC   C1B 3130   1.642   0.276   4.705
  225POPC   C2B 3131   1.720   0.117   5.111
  225POPC   C3B 3132   1.636   0.459   5.363
  225POPC   C4B 3133   1.633   0.579   5.765
  226POPC   NC3 3134   7.323   1.531   3.958
  226POPC   PO4 3135   7.912   1.492   4.085
  226POPC   GL1 3136   7.583   1.519   4.402
  226POPC   GL2 3137   7.288   1.771   4.397
  226POPC   C1A 3138   7.505   1.555   4.834
  226POPC   D2A 3139   7.696   1.795   5.172
  226POPC   C3A 3140   7.398   1.715   5.489
  226POPC   C4A 3141   7.217   1.812   5.865
  226POPC   C1B 3142   7.139   1.963   4.757
  226POPC   C2B 3143   7.268   2.104   5.147
  226POPC   C3B 3144   7.129   2.219   5.571
  226POPC   C4B 3145   6.944   2.220   6.022
  227POPC   NC3 3146   7.942   7.966   3.913
  227POPC   PO4 3147   8.404   7.534   3.992
  227POPC   GL1 3148   8.154   7.666   4.334
  227POPC   GL2 3149   7.876   7.892   4.416
  227POPC   C1A 3150   8.079   7.583   4.769
  227POPC   D2A 3151   8.167   7.805   5.153
  227POPC   C3A 3152   8.119   7.571   5.548
  227POPC   C4A 3153   7.914   7.562   5.940
  227POPC   C1B 3154   7.634   7.833   4.801
  227POPC   C2B 3155   7.695   7.988   5.207
  227POPC   C3B 3156   7.657   7.904   5.647
  227POPC   C4B 3157   7.739   8.066   6.079
  228POPC   NC3 3158   4.339   2.684   3.865
  228POPC   PO4 3159   3.792   2.270   3.851
  228POPC   GL1 3160   3.898   2.392   4.266
  228POPC   GL2 3161   4.239   2.505   4.339
  228POPC   C1A 3162   3.969   2.255   4.699
  228POPC   D2A 3163   4.145   2.384   5.097
  228POPC   C3A 3164   4.146   2.608   5.470
  228POPC   C4A 3165   4.037   2.455   5.849
  228POPC   C1B 3166   4.300   2.708   4.751
  228POPC   C2B 3167   4.360   2.948   5.141
  228POPC   C3B 3168   4.292   3.084   5.577
  228POPC   C4B 3169   4.508   2.931   5.975
  229POPC   NC3 3170   9.668   5.358   3.964
  229POPC   PO4 3171   9.137   5.087   3.649
  229POPC   GL1 3172   9.236   4.942   4.167
  229POPC   GL2 3173   9.524   5.039   4.312
  229POPC   C1A 3174   9.152   5.058   4.643
  229POPC   D2A 3175   9.289   5.277   5.029
  229POPC   C3A 3176   9.181   5.090   5.437
  229POPC   C4A 3177   9.147   5.239   5.848
  229POPC   C1B 3178   9.680   5.122   4.721
  229POPC   C2B 3179   9.629   4.870   5.098
  229POPC   C3B 3180   9.543   4.734   5.508
  229POPC   C4B 3181   9.513   4.850   5.958
  230POPC   NC3 3182   7.946   7.187   3.922
  230POPC   PO4 3183   7.525   7.712   3.911
  230POPC   GL1 3184   7.645   7.459   4.325
  230POPC   GL2 3185   7.943   7.225   4.412
  230POPC   C1A 3186   7.618   7.319   4.783
  230POPC   D2A 3187   7.761   7.471   5.199
  230POPC   C3A 3188   7.539   7.399   5.617
  230POPC   C4A 3189   7.559   7.167   6.035
  230POPC   C1B 3190   8.102   7.024   4.784
  230POPC   C2B 3191   8.044   6.899   5.263
  230POPC   C3B 3192   7.975   7.062   5.727
  230POPC   C4B 3193   8.066   7.149   6.200
  231POPC   NC3 3194  10.458   6.346   3.926
  231POPC   PO4 3195   9.964   6.065   4.091
  231POPC   GL1 3196  10.213   6.316   4.368
  231POPC   GL2 3197  10.223   6.680   4.283
  231POPC   C1A 3198  10.356   6.307   4.786
  231POPC   D2A 3199  10.083   6.310   5.117
  231POPC   C3A 3200  10.222   6.070   5.461
  231POPC   C4A 3201  10.198   6.164   5.850
  231POPC   C1B 3202  10.319   6.802   4.743
  231POPC   C2B 3203  10.426   6.683   5.178
  231POPC   C3B 3204  10.137   6.584   5.563
  231POPC   C4B 3205   9.911   6.521   6.015
  232POPC   NC3 3206   5.655  10.326   3.882
  232POPC   PO4 3207   5.935   9.729   3.907
  232POPC   GL1 3208   5.915  10.020   4.247
  232POPC   GL2 3209   5.556  10.069   4.294
  232POPC   C1A 3210   5.818  10.093   4.711
  232POPC   D2A 3211   5.849  10.227   5.140
  232POPC   C3A 3212   6.046   9.963   5.460
  232POPC   C4A 3213   5.780  10.225   5.702
  232POPC   C1B 3214   5.261  10.024   4.619
  232POPC   C2B 3215   5.377   9.998   5.016
  232POPC   C3B 3216   5.534   9.893   5.394
  232POPC   C4B 3217   5.276   9.902   5.760
  233POPC   NC3 3218   0.625  10.419   3.888
  233POPC   PO4 3219   0.346   9.795   3.929
  233POPC   GL1 3220   0.512  10.051   4.263
  233POPC   GL2 3221   0.298  10.357   4.294
  233POPC   C1A 3222   0.493  10.013   4.718
  233POPC   D2A 3223   0.552  10.012   5.164
  233POPC   C3A 3224   0.240   9.892   5.431
  233POPC   C4A 3225   0.271  10.066   5.811
  233POPC   C1B 3226   0.574   0.015   4.594
  233POPC   C2B 3227   0.423  10.499   5.005
  233POPC   C3B 3228   0.279  10.391   5.400
  233POPC   C4B 3229   0.548  10.489   5.731
  234POPC   NC3 3230   0.009  10.153   3.919
  234POPC   PO4 3231  10.026   0.136   3.990
  234POPC   GL1 3232  10.264  10.357   4.322
  234POPC   GL2 3233  10.088  10.059   4.502
  234POPC   C1A 3234  10.258  10.440   4.760
  234POPC   D2A 3235  10.037   0.043   5.088
  234POPC   C3A 3236  10.319   0.146   5.424
  234POPC   C4A 3237  10.414  10.424   5.792
  234POPC   C1B 3238  10.491   9.954   4.605
  234POPC   C2B 3239   0.066  10.100   5.003
  234POPC   C3B 3240  10.311  10.140   5.360
  234POPC   C4B 3241  10.167   9.993   5.766
  235POPC   NC3 3242   3.403   0.633   4.045
  235POPC   PO4 3243   3.471  10.443   3.885
  235POPC   GL1 3244   3.603   0.165   4.255
  235POPC   GL2 3245   3.290   0.060   4.354
  235POPC   C1A 3246   3.662   0.093   4.729
  235POPC   D2A 3247   3.299   0.042   5.074
  235POPC   C3A 3248   3.394   0.160   5.523
  235POPC   C4A 3249   3.544   0.308   5.938
  235POPC   C1B 3250   3.216   0.370   4.670
  235POPC   C2B 3251   2.984   0.485   5.027
  235POPC   C3B 3252   2.967   0.373   5.421
  235POPC   C4B 3253   3.165   0.598   5.746
  236POPC   NC3 3254   9.706   6.349   3.829
  236POPC   PO4 3255   9.161   6.589   4.115
  236POPC   GL1 3256   9.624   6.533   4.286
  236POPC   GL2 3257   9.611   6.179   4.443
  236POPC   C1A 3258   9.872   6.535   4.668
  236POPC   D2A 3259   9.552   6.628   4.954
  236POPC   C3A 3260   9.664   6.497   5.342
  236POPC   C4A 3261   9.658   6.757   5.664
  236POPC   C1B 3262   9.638   6.140   4.922
  236POPC   C2B 3263   9.232   6.281   5.172
  236POPC   C3B 3264   9.224   6.423   5.592
  236POPC   C4B 3265   9.580   6.215   5.772
  237POPC   NC3 3266   1.197   4.608   3.945
  237POPC   PO4 3267   0.872   5.194   3.891
  237POPC   GL1 3268   1.155   4.982   4.294
  237POPC   GL2 3269   1.437   4.706   4.382
  237POPC   C1A 3270   1.082   4.799   4.755
  237POPC   D2A 3271   0.963   5.062   5.117
  237POPC   C3A 3272   1.049   4.961   5.561
  237POPC   C4A 3273   1.316   5.074   5.934
  237POPC   C1B 3274   1.545   4.969   4.721
  237POPC   C2B 3275   1.478   5.124   5.126
  237POPC   C3B 3276   1.548   4.894   5.505
  237POPC   C4B 3277   1.337   4.540   5.720
  238POPC   NC3 3278   8.620   8.388   4.051
  238POPC   PO4 3279   8.432   8.985   4.004
  238POPC   GL1 3280   8.554   8.801   4.367
  238POPC   GL2 3281   8.909   8.690   4.350
  238POPC   C1A 3282   8.676   8.810   4.780
  238POPC   D2A 3283   8.651   8.602   5.134
  238POPC   C3A 3284   8.744   8.853   5.459
  238POPC   C4A 3285   8.465   8.961   5.754
  238POPC   C1B 3286   8.907   8.369   4.709
  238POPC   C2B 3287   9.070   8.177   5.086
  238POPC   C3B 3288   8.908   8.346   5.491
  238POPC   C4B 3289   8.502   8.452   5.716
  239POPC   NC3 3290   7.309   8.134   3.925
  239POPC   PO4 3291   6.987   8.751   3.836
  239POPC   GL1 3292   7.009   8.676   4.266
  239POPC   GL2 3293   7.295   8.511   4.307
  239POPC   C1A 3294   7.029   8.848   4.678
  239POPC   D2A 3295   7.213   8.915   5.086
  239POPC   C3A 3296   6.962   8.645   5.357
  239POPC   C4A 3297   6.779   8.566   5.760
  239POPC   C1B 3298   7.541   8.747   4.652
  239POPC   C2B 3299   7.739   8.755   5.073
  239POPC   C3B 3300   7.531   8.858   5.489
  239POPC   C4B 3301   7.271   8.618   5.775
  240POPC   NC3 3302   4.287   0.968   3.769
  240POPC   PO4 3303   3.846   1.533   3.811
  240POPC   GL1 3304   3.997   1.228   4.125
  240POPC   GL2 3305   4.287   1.115   4.246
  240POPC   C1A 3306   3.958   1.285   4.591
  240POPC   D2A 3307   4.153   1.272   5.023
  240POPC   C3A 3308   4.066   1.127   5.445
  240POPC   C4A 3309   3.961   1.262   5.845
  240POPC   C1B 3310   4.256   0.892   4.619
  240POPC   C2B 3311   4.185   0.755   5.029
  240POPC   C3B 3312   4.234   0.650   5.426
  240POPC   C4B 3313   4.344   0.787   5.802
  241POPC   NC3 3314   9.984   9.302   3.951
  241POPC   PO4 3315  10.105   9.967   4.015
  241POPC   GL1 3316   9.817   9.711   4.222
  241POPC   GL2 3317  10.147   9.576   4.364
  241POPC   C1A 3318   9.768   9.696   4.673
  241POPC   D2A 3319  10.170   9.668   4.933
  241POPC   C3A 3320  10.139   9.636   5.391
  241POPC   C4A 3321   9.860   9.597   5.781
  241POPC   C1B 3322  10.007   9.249   4.620
  241POPC   C2B 3323  10.106   9.053   5.000
  241POPC   C3B 3324  10.361   9.153   5.323
  241POPC   C4B 3325  10.189   9.181   5.714
  242POPC   NC3 3326   6.371   7.792   3.976
  242POPC   PO4 3327   6.277   8.393   4.050
  242POPC   GL1 3328   6.628   8.319   4.265
  242POPC   GL2 3329   6.517   8.041   4.410
  242POPC   C1A 3330   6.830   8.369   4.668
  242POPC   D2A 3331   6.947   8.188   5.068
  242POPC   C3A 3332   6.701   8.165   5.419
  242POPC   C4A 3333   6.726   8.065   5.830
  242POPC   C1B 3334   6.524   7.996   4.862
  242POPC   C2B 3335   6.546   7.726   5.212
  242POPC   C3B 3336   6.393   7.743   5.628
  242POPC   C4B 3337   6.526   7.607   6.039
  243POPC   NC3 3338   8.645   0.764   3.863
  243POPC   PO4 3339   8.668   1.450   3.939
  243POPC   GL1 3340   8.745   1.164   4.261
  243POPC   GL2 3341   8.997   1.386   4.362
  243POPC   C1A 3342   8.878   0.983   4.679
  243POPC   D2A 3343   8.646   0.919   5.085
  243POPC   C3A 3344   8.757   0.729   5.489
  243POPC   C4A 3345   8.690   0.993   5.850
  243POPC   C1B 3346   8.736   1.485   4.753
  243POPC   C2B 3347   8.709   1.415   5.200
  243POPC   C3B 3348   8.575   1.424   5.627
  243POPC   C4B 3349   8.556   1.428   6.103
  244POPC   NC3 3350   2.439   9.455   3.846
  244POPC   PO4 3351   2.507   9.057   4.247
  244POPC   GL1 3352   2.553   9.482   4.363
  244POPC   GL2 3353   2.865   9.475   4.202
  244POPC   C1A 3354   2.475   9.499   4.789
  244POPC   D2A 3355   2.350   9.122   5.044
  244POPC   C3A 3356   2.275   9.227   5.461
  244POPC   C4A 3357   2.503   9.279   5.853
  244POPC   C1B 3358   2.967   9.413   4.655
  244POPC   C2B 3359   2.888   9.578   5.091
  244POPC   C3B 3360   2.624   9.601   5.459
  244POPC   C4B 3361   2.718   9.736   5.901
  245POPC   NC3 3362   5.790   8.605   4.021
  245POPC   PO4 3363   5.285   8.267   4.067
  245POPC   GL1 3364   5.295   8.668   4.295
  245POPC   GL2 3365   5.600   8.842   4.429
  245POPC   C1A 3366   5.266   8.683   4.752
  245POPC   D2A 3367   5.440   8.479   5.099
  245POPC   C3A 3368   5.303   8.655   5.457
  245POPC   C4A 3369   5.444   8.698   5.872
  245POPC   C1B 3370   5.794   8.633   4.734
  245POPC   C2B 3371   5.960   8.550   5.137
  245POPC   C3B 3372   5.808   8.495   5.533
  245POPC   C4B 3373   5.982   8.707   5.874
  246POPC   NC3 3374   9.449   3.051   3.865
  246POPC   PO4 3375   9.722   3.695   4.062
  246POPC   GL1 3376   9.389   3.570   4.288
  246POPC   GL2 3377   9.440   3.205   4.361
  246POPC   C1A 3378   9.418   3.620   4.711
  246POPC   D2A 3379   9.723   3.658   5.021
  246POPC   C3A 3380   9.541   3.675   5.425
  246POPC   C4A 3381   9.537   3.371   5.766
  246POPC   C1B 3382   9.560   3.137   4.804
  246POPC   C2B 3383   9.556   3.188   5.246
  246POPC   C3B 3384   9.190   3.098   5.506
  246POPC   C4B 3385   9.077   3.147   5.916
  247POPC   NC3 3386   0.204   1.434   3.887
  247POPC   PO4 3387   0.753   1.771   3.912
  247POPC   GL1 3388   0.548   1.620   4.244
  247POPC   GL2 3389   0.231   1.813   4.246
  247POPC   C1A 3390   0.563   1.741   4.655
  247POPC   D2A 3391   0.522   1.950   5.067
  247POPC   C3A 3392   0.563   1.700   5.428
  247POPC   C4A 3393   0.742   1.657   5.826
  247POPC   C1B 3394   0.225   2.129   4.580
  247POPC   C2B 3395   0.062   2.119   5.005
  247POPC   C3B 3396   0.208   2.196   5.424
  247POPC   C4B 3397   0.319   1.963   5.792
  248POPC   NC3 3398   9.613   0.082   3.788
  248POPC   PO4 3399   9.063   0.552   3.885
  248POPC   GL1 3400   9.086   0.607   4.362
  248POPC   GL2 3401   9.364   0.373   4.419
  248POPC   C1A 3402   9.300   0.717   4.774
  248POPC   D2A 3403   9.140   0.882   5.144
  248POPC   C3A 3404   9.277   0.688   5.526
  248POPC   C4A 3405   9.657   0.678   5.764
  248POPC   C1B 3406   9.354   0.051   4.762
  248POPC   C2B 3407   9.524  10.477   5.170
  248POPC   C3B 3408   9.472   0.209   5.537
  248POPC   C4B 3409   9.232   0.252   5.897
  249POPC   NC3 3410   8.573   3.307   3.849
  249POPC   PO4 3411   8.836   3.942   3.773
  249POPC   GL1 3412   8.790   3.664   4.163
  249POPC   GL2 3413   8.949   3.317   4.209
  249POPC   C1A 3414   8.599   3.469   4.557
  249POPC   D2A 3415   8.632   3.297   4.994
  249POPC   C3A 3416   8.460   3.558   5.319
  249POPC   C4A 3417   8.457   3.717   5.727
  249POPC   C1B 3418   9.048   3.261   4.672
  249POPC   C2B 3419   9.148   3.422   5.097
  249POPC   C3B 3420   8.937   3.532   5.501
  249POPC   C4B 3421   8.623   3.213   5.680
  250POPC   NC3 3422  10.217   5.719   3.875
  250POPC   PO4 3423   0.321   5.580   3.951
  250POPC   GL1 3424   0.138   5.592   4.366
  250POPC   GL2 3425  10.367   5.821   4.350
  250POPC   C1A 3426  10.481   5.545   4.798
  250POPC   D2A 3427   0.001   5.315   5.190
  250POPC   C3A 3428  10.245   5.508   5.491
  250POPC   C4A 3429  10.468   5.746   5.783
  250POPC   C1B 3430  10.098   5.888   4.682
  250POPC   C2B 3431  10.087   5.795   5.074
  250POPC   C3B 3432   9.754   5.897   5.366
  250POPC   C4B 3433   9.876   5.772   5.770
  251POPC   NC3 3434   9.130   9.714   3.757
  251POPC   PO4 3435   9.518   9.206   3.936
  251POPC   GL1 3436   9.236   9.424   4.198
  251POPC   GL2 3437   9.332   9.155   4.398
  251POPC   C1A 3438   9.221   9.642   4.607
  251POPC   D2A 3439   9.349   9.882   4.999
  251POPC   C3A 3440   9.476   9.707   5.395
  251POPC   C4A 3441   9.388   9.847   5.812
  251POPC   C1B 3442   9.485   9.253   4.781
  251POPC   C2B 3443   9.741   9.402   5.067
  251POPC   C3B 3444   9.784   9.271   5.408
  251POPC   C4B 3445   9.492   9.269   5.694
  252POPC   NC3 3446   3.088   5.534   4.045
  252POPC   PO4 3447   2.454   5.512   3.915
  252POPC   GL1 3448   2.614   5.586   4.285
  252POPC   GL2 3449   2.595   5.920   4.417
  252POPC   C1A 3450   2.652   5.492   4.723
  252POPC   D2A 3451   2.417   5.377   5.072
  252POPC   C3A 3452   2.651   5.304   5.477
  252POPC   C4A 3453   2.597   5.356   5.939
  252POPC   C1B 3454   2.600   5.987   4.876
  252POPC   C2B 3455   2.765   5.746   5.218
  252POPC   C3B 3456   2.777   5.771   5.662
  252POPC   C4B 3457   2.816   6.150   5.939
  253POPC   NC3 3458   2.067   3.437   3.826
  253POPC   PO4 3459   1.403   3.347   4.075
  253POPC   GL1 3460   1.785   3.233   4.221
  253POPC   GL2 3461   1.886   3.548   4.315
  253POPC   C1A 3462   1.901   3.149   4.650
  253POPC   D2A 3463   1.703   3.255   5.054
  253POPC   C3A 3464   1.892   3.214   5.461
  253POPC   C4A 3465   2.131   3.504   5.695
  253POPC   C1B 3466   1.816   3.662   4.746
  253POPC   C2B 3467   2.072   3.606   5.135
  253POPC   C3B 3468   1.749   3.713   5.394
  253POPC   C4B 3469   1.656   3.684   5.795
  254POPC   NC3 3470   0.304   4.180   3.807
  254POPC   PO4 3471   0.923   4.204   3.839
  254POPC   GL1 3472   0.582   4.306   4.199
  254POPC   GL2 3473   0.233   4.160   4.289
  254POPC   C1A 3474   0.507   4.389   4.642
  254POPC   D2A 3475   0.262   4.315   5.013
  254POPC   C3A 3476   0.370   4.456   5.415
  254POPC   C4A 3477   0.371   4.256   5.795
  254POPC   C1B 3478   0.467   3.886   4.555
  254POPC   C2B 3479   0.572   3.882   4.993
  254POPC   C3B 3480   0.331   3.938   5.385
  254POPC   C4B 3481  10.484   3.886   5.732
  255POPC   NC3 3482   5.057   1.311   3.931
  255POPC   PO4 3483   4.721   0.887   3.597
  255POPC   GL1 3484   4.726   0.971   4.054
  255POPC   GL2 3485   5.005   0.890   4.232
  255POPC   C1A 3486   4.712   1.156   4.514
  255POPC   D2A 3487   4.649   1.254   4.930
  255POPC   C3A 3488   4.557   1.009   5.288
  255POPC   C4A 3489   4.505   1.238   5.689
  255POPC   C1B 3490   5.133   0.817   4.642
  255POPC   C2B 3491   5.075   0.998   5.060
  255POPC   C3B 3492   4.970   1.260   5.393
  255POPC   C4B 3493   4.986   1.037   5.766
  256POPC   NC3 3494   8.073   8.768   3.809
  256POPC   PO4 3495   7.707   8.302   4.087
  256POPC   GL1 3496   7.829   8.416   4.415
  256POPC   GL2 3497   8.034   8.684   4.315
  256POPC   C1A 3498   7.840   8.302   4.822
  256POPC   D2A 3499   8.096   8.344   5.180
  256POPC   C3A 3500   7.786   8.383   5.500
  256POPC   C4A 3501   7.744   8.531   5.881
  256POPC   C1B 3502   8.205   8.639   4.735
  256POPC   C2B 3503   8.222   8.879   5.135
  256POPC   C3B 3504   8.035   8.817   5.561
  256POPC   C4B 3505   8.061   8.880   6.051
  257POPC   NC3 3506   2.798   4.408   3.638
  257POPC   PO4 3507   2.341   4.681   4.031
  257POPC   GL1 3508   2.243   4.463   4.426
  257POPC   GL2 3509   2.510   4.226   4.358
  257POPC   C1A 3510   2.224   4.514   4.892
  257POPC   D2A 3511   2.541   4.542   5.208
  257POPC   C3A 3512   2.625   4.279   5.553
  257POPC   C4A 3513   2.578   4.404   5.989
  257POPC   C1B 3514   2.643   4.248   4.789
  257POPC   C2B 3515   2.969   4.171   5.077
  257POPC   C3B 3516   3.139   4.239   5.492
  257POPC   C4B 3517   3.006   4.149   5.911
  258POPC   NC3 3518   5.747   1.368   3.811
  258POPC   PO4 3519   5.406   0.887   3.955
  258POPC   GL1 3520   5.431   1.217   4.261
  258POPC   GL2 3521   5.780   1.275   4.295
  258POPC   C1A 3522   5.272   1.305   4.691
  258POPC   D2A 3523   5.538   1.283   5.091
  258POPC   C3A 3524   5.437   1.258   5.554
  258POPC   C4A 3525   5.353   1.376   5.997
  258POPC   C1B 3526   5.736   1.035   4.657
  258POPC   C2B 3527   6.018   1.006   5.002
  258POPC   C3B 3528   5.870   1.022   5.415
  258POPC   C4B 3529   5.832   1.112   5.850
  259POPC   NC3 3530   9.254   5.892   4.084
  259POPC   PO4 3531   9.785   5.750   3.726
  259POPC   GL1 3532   9.699   5.699   4.311
  259POPC   GL2 3533   9.379   5.574   4.469
  259POPC   C1A 3534   9.680   5.639   4.825
  259POPC   D2A 3535   9.782   5.394   5.161
  259POPC   C3A 3536   9.531   5.453   5.503
  259POPC   C4A 3537   9.676   5.303   5.861
  259POPC   C1B 3538   9.237   5.927   4.738
  259POPC   C2B 3539   9.266   5.772   5.160
  259POPC   C3B 3540   9.234   5.893   5.576
  259POPC   C4B 3541   9.403   5.736   5.963
  260POPC   NC3 3542   6.119   9.289   3.903
  260POPC   PO4 3543   5.517   9.039   3.980
  260POPC   GL1 3544   5.733   9.302   4.275
  260POPC   GL2 3545   5.563   9.575   4.237
  260POPC   C1A 3546   5.804   9.200   4.746
  260POPC   D2A 3547   5.629   8.962   5.098
  260POPC   C3A 3548   5.704   9.008   5.544
  260POPC   C4A 3549   5.673   9.122   6.004
  260POPC   C1B 3550   5.523   9.612   4.694
  260POPC   C2B 3551   5.425   9.452   5.153
  260POPC   C3B 3552   5.491   9.465   5.647
  260POPC   C4B 3553   5.769   9.749   5.848
  261POPC   NC3 3554   9.366   6.961   3.911
  261POPC   PO4 3555   9.655   7.569   3.782
  261POPC   GL1 3556   9.549   7.596   4.218
  261POPC   GL2 3557   9.361   7.311   4.302
  261POPC   C1A 3558   9.665   7.478   4.651
  261POPC   D2A 3559   9.781   7.424   5.074
  261POPC   C3A 3560   9.546   7.200   5.363
  261POPC   C4A 3561   9.620   7.251   5.787
  261POPC   C1B 3562   9.141   7.393   4.683
  261POPC   C2B 3563   9.288   7.093   4.939
  261POPC   C3B 3564   9.201   6.815   5.266
  261POPC   C4B 3565   9.202   6.944   5.669
  262POPC   NC3 3566   2.701   1.808   3.667
  262POPC   PO4 3567   2.915   2.444   3.952
  262POPC   GL1 3568   2.884   2.250   4.439
  262POPC   GL2 3569   2.785   1.877   4.529
  262POPC   C1A 3570   2.736   2.174   4.911
  262POPC   D2A 3571   3.033   2.280   5.210
  262POPC   C3A 3572   2.967   2.115   5.630
  262POPC   C4A 3573   2.793   2.065   6.023
  262POPC   C1B 3574   2.439   1.729   4.719
  262POPC   C2B 3575   2.279   1.946   5.064
  262POPC   C3B 3576   2.509   1.991   5.423
  262POPC   C4B 3577   2.458   1.739   5.755
  263POPC   NC3 3578   4.136   1.948   3.893
  263POPC   PO4 3579   4.653   1.539   3.934
  263POPC   GL1 3580   4.314   1.636   4.292
  263POPC   GL2 3581   4.239   1.995   4.365
  263POPC   C1A 3582   4.155   1.721   4.764
  263POPC   D2A 3583   3.906   1.935   5.084
  263POPC   C3A 3584   3.872   1.779   5.503
  263POPC   C4A 3585   4.230   1.667   5.732
  263POPC   C1B 3586   4.465   2.162   4.714
  263POPC   C2B 3587   4.459   1.978   5.120
  263POPC   C3B 3588   4.327   2.127   5.525
  263POPC   C4B 3589   4.547   2.441   5.782
  264POPC   NC3 3590   3.051  10.246   3.871
  264POPC   PO4 3591   2.487   0.110   3.947
  264POPC   GL1 3592   2.701  10.299   4.256
  264POPC   GL2 3593   2.607   9.954   4.143
  264POPC   C1A 3594   2.924  10.410   4.677
  264POPC   D2A 3595   2.770  10.493   5.100
  264POPC   C3A 3596   2.980  10.377   5.488
  264POPC   C4A 3597   2.915  10.200   5.892
  264POPC   C1B 3598   2.451   9.992   4.603
  264POPC   C2B 3599   2.569   9.992   5.064
  264POPC   C3B 3600   2.519  10.116   5.519
  264POPC   C4B 3601   2.412  10.125   5.984
  265POPC   NC3 3602   4.137   0.258   3.786
  265POPC   PO4 3603   3.798   0.842   3.851
  265POPC   GL1 3604   3.958   0.679   4.248
  265POPC   GL2 3605   4.101   0.324   4.294
  265POPC   C1A 3606   3.806   0.609   4.688
  265POPC   D2A 3607   3.568   0.469   5.069
  265POPC   C3A 3608   3.784   0.463   5.462
  265POPC   C4A 3609   3.825   0.768   5.789
  265POPC   C1B 3610   4.283   0.385   4.692
  265POPC   C2B 3611   4.076   0.248   5.039
  265POPC   C3B 3612   4.241   0.125   5.395
  265POPC   C4B 3613   4.217   0.305   5.786
  266POPC   NC3 3614   1.307   7.008   3.870
  266POPC   PO4 3615   0.919   7.426   4.060
  266POPC   GL1 3616   1.081   7.091   4.312
  266POPC   GL2 3617   1.408   7.241   4.374
  266POPC   C1A 3618   1.295   6.840   4.635
  266POPC   D2A 3619   1.263   6.692   5.062
  266POPC   C3A 3620   1.235   6.889   5.501
  266POPC   C4A 3621   1.340   7.002   5.970
  266POPC   C1B 3622   1.206   7.317   4.783
  266POPC   C2B 3623   1.318   7.311   5.211
  266POPC   C3B 3624   1.219   7.372   5.662
  266POPC   C4B 3625   0.842   7.624   5.810
  267POPC   NC3 3626   7.555   2.300   3.838
  267POPC   PO4 3627   7.995   2.825   3.946
  267POPC   GL1 3628   7.951   2.445   4.162
  267POPC   GL2 3629   7.636   2.538   4.283
  267POPC   C1A 3630   8.017   2.396   4.593
  267POPC   D2A 3631   8.160   2.669   4.949
  267POPC   C3A 3632   8.068   2.521   5.377
  267POPC   C4A 3633   7.871   2.522   5.822
  267POPC   C1B 3634   7.731   2.803   4.655
  267POPC   C2B 3635   7.717   2.859   5.106
  267POPC   C3B 3636   7.827   2.938   5.522
  267POPC   C4B 3637   7.604   2.967   5.865
  268POPC   NC3 3638   1.723   9.302   3.864
  268POPC   PO4 3639   1.877   9.966   3.967
  268POPC   GL1 3640   2.090   9.783   4.289
  268POPC   GL2 3641   2.069   9.442   4.214
  268POPC   C1A 3642   1.998   9.722   4.734
  268POPC   D2A 3643   2.171   9.655   5.160
  268POPC   C3A 3644   1.923   9.605   5.514
  268POPC   C4A 3645   2.080   9.564   5.927
  268POPC   C1B 3646   1.777   9.286   4.531
  268POPC   C2B 3647   1.862   9.245   4.958
  268POPC   C3B 3648   1.723   9.139   5.342
  268POPC   C4B 3649   1.871   9.127   5.745
  269POPC   NC3 3650   9.167   1.646   3.881
  269POPC   PO4 3651   8.764   2.232   3.976
  269POPC   GL1 3652   8.884   2.166   4.362
  269POPC   GL2 3653   8.757   1.835   4.346
  269POPC   C1A 3654   8.841   2.077   4.821
  269POPC   D2A 3655   8.645   1.967   5.192
  269POPC   C3A 3656   8.712   2.212   5.550
  269POPC   C4A 3657   8.679   1.866   5.849
  269POPC   C1B 3658   8.413   2.082   4.579
  269POPC   C2B 3659   8.216   2.146   4.981
  269POPC   C3B 3660   8.150   2.026   5.391
  269POPC   C4B 3661   8.266   2.182   5.792
  270POPC   NC3 3662   2.852   2.897   3.933
  270POPC   PO4 3663   2.399   2.436   4.262
  270POPC   GL1 3664   2.544   2.813   4.336
  270POPC   GL2 3665   2.902   2.788   4.408
  270POPC   C1A 3666   2.448   2.997   4.710
  270POPC   D2A 3667   2.191   3.074   5.057
  270POPC   C3A 3668   2.287   2.872   5.407
  270POPC   C4A 3669   2.378   2.995   5.825
  270POPC   C1B 3670   2.800   2.648   4.787
  270POPC   C2B 3671   2.736   2.769   5.173
  270POPC   C3B 3672   2.649   2.502   5.485
  270POPC   C4B 3673   2.708   2.551   5.878
  271POPC   NC3 3674  10.078   8.697   3.640
  271POPC   PO4 3675  10.127   8.040   3.698
  271POPC   GL1 3676  10.076   8.366   4.073
  271POPC   GL2 3677  10.233   8.681   4.151
  271POPC   C1A 3678   9.922   8.392   4.514
  271POPC   D2A 3679  10.038   8.519   4.967
  271POPC   C3A 3680   9.962   8.319   5.356
  271POPC   C4A 3681   9.861   8.394   5.766
  271POPC   C1B 3682  10.272   8.789   4.593
  271POPC   C2B 3683   0.030   8.753   4.993
  271POPC   C3B 3684  10.415   8.649   5.442
  271POPC   C4B 3685  10.258   8.697   5.871
  272POPC   NC3 3686   8.873   4.756   3.897
  272POPC   PO4 3687   9.199   5.421   4.056
  272POPC   GL1 3688   8.821   5.259   4.319
  272POPC   GL2 3689   8.738   4.928   4.331
  272POPC   C1A 3690   8.628   5.168   4.739
  272POPC   D2A 3691   8.857   4.994   5.061
  272POPC   C3A 3692   8.655   5.048   5.412
  272POPC   C4A 3693   8.787   4.887   5.776
  272POPC   C1B 3694   8.793   4.666   4.677
  272POPC   C2B 3695   8.595   4.566   5.031
  272POPC   C3B 3696   8.568   4.533   5.421
  272POPC   C4B 3697   8.329   4.728   5.682
  273POPC   NC3 3698  10.135   3.058   3.699
  273POPC   PO4 3699   9.672   2.640   3.880
  273POPC   GL1 3700   9.913   2.706   4.290
  273POPC   GL2 3701  10.260   2.601   4.304
  273POPC   C1A 3702  10.016   2.869   4.742
  273POPC   D2A 3703   9.898   2.826   5.180
  273POPC   C3A 3704   9.876   3.027   5.608
  273POPC   C4A 3705   9.914   2.812   5.981
  273POPC   C1B 3706  10.399   2.520   4.724
  273POPC   C2B 3707  10.295   2.527   5.149
  273POPC   C3B 3708  10.170   2.578   5.555
  273POPC   C4B 3709  10.410   2.305   5.816
  274POPC   NC3 3710   0.411   0.639   3.748
  274POPC   PO4 3711   0.819   1.090   3.993
  274POPC   GL1 3712   0.693   1.157   4.421
  274POPC   GL2 3713   0.408   1.072   4.319
  274POPC   C1A 3714   0.552   1.061   4.862
  274POPC   D2A 3715   0.339   0.818   5.189
  274POPC   C3A 3716   0.339   0.834   5.651
  274POPC   C4A 3717   0.674   0.943   5.868
  274POPC   C1B 3718   0.209   1.379   4.603
  274POPC   C2B 3719   0.315   1.493   5.020
  274POPC   C3B 3720   0.282   1.283   5.409
  274POPC   C4B 3721   0.352   1.354   5.822
  275POPC   NC3 3722   4.345   9.602   3.759
  275POPC   PO4 3723   4.255  10.305   3.720
  275POPC   GL1 3724   4.240  10.281   4.163
  275POPC   GL2 3725   3.900  10.243   4.255
  275POPC   C1A 3726   4.291  10.389   4.609
  275POPC   D2A 3727   4.561   0.016   4.963
  275POPC   C3A 3728   4.675  10.344   5.387
  275POPC   C4A 3729   4.406  10.313   5.772
  275POPC   C1B 3730   3.927  10.029   4.653
  275POPC   C2B 3731   4.119  10.203   5.069
  275POPC   C3B 3732   4.039  10.078   5.504
  275POPC   C4B 3733   3.976  10.131   5.986
  276POPC   NC3 3734   6.558   8.772   4.046
  276POPC   PO4 3735   6.578   9.397   3.939
  276POPC   GL1 3736   6.520   9.214   4.312
  276POPC   GL2 3737   6.220   9.261   4.427
  276POPC   C1A 3738   6.623   9.211   4.767
  276POPC   D2A 3739   6.334   9.450   5.039
  276POPC   C3A 3740   6.426   9.502   5.476
  276POPC   C4A 3741   6.730   9.473   5.764
  276POPC   C1B 3742   6.047   9.638   4.615
  276POPC   C2B 3743   5.878   9.698   5.045
  276POPC   C3B 3744   5.930   9.457   5.419
  276POPC   C4B 3745   6.131   9.239   5.796
  277POPC   NC3 3746   1.372   5.347   3.935
  277POPC   PO4 3747   1.081   5.962   3.984
  277POPC   GL1 3748   1.068   5.584   4.261
  277POPC   GL2 3749   1.420   5.623   4.340
  277POPC   C1A 3750   1.117   5.333   4.668
  277POPC   D2A 3751   0.898   5.553   4.998
  277POPC   C3A 3752   1.027   5.464   5.425
  277POPC   C4A 3753   0.881   5.777   5.703
  277POPC   C1B 3754   1.271   5.814   4.689
  277POPC   C2B 3755   1.387   5.657   5.095
  277POPC   C3B 3756   1.314   5.868   5.459
  277POPC   C4B 3757   1.467   6.010   5.811
  278POPC   NC3 3758   1.161   3.841   3.697
  278POPC   PO4 3759   1.476   4.269   4.081
  278POPC   GL1 3760   1.274   4.187   4.415
  278POPC   GL2 3761   1.019   4.422   4.411
  278POPC   C1A 3762   1.445   4.108   4.812
  278POPC   D2A 3763   1.340   4.350   5.162
  278POPC   C3A 3764   1.376   4.070   5.494
  278POPC   C4A 3765   1.296   4.015   5.931
  278POPC   C1B 3766   0.946   4.213   4.813
  278POPC   C2B 3767   0.818   4.267   5.231
  278POPC   C3B 3768   0.889   4.272   5.658
  278POPC   C4B 3769   0.780   4.021   5.994
  279POPC   NC3 3770   9.950   1.523   4.064
  279POPC   PO4 3771  10.403   1.958   3.853
  279POPC   GL1 3772  10.251   2.070   4.245
  279POPC   GL2 3773   9.895   1.992   4.282
  279POPC   C1A 3774  10.288   1.835   4.632
  279POPC   D2A 3775  10.309   1.623   5.024
  279POPC   C3A 3776   0.029   1.728   5.363
  279POPC   C4A 3777  10.429   1.652   5.742
  279POPC   C1B 3778   9.945   2.252   4.641
  279POPC   C2B 3779  10.059   2.080   5.040
  279POPC   C3B 3780  10.156   2.074   5.450
  279POPC   C4B 3781  10.039   1.947   5.866
  280POPC   NC3 3782   9.255   4.025   3.980
  280POPC   PO4 3783   9.788   4.229   3.670
  280POPC   GL1 3784   9.696   4.226   4.144
  280POPC   GL2 3785   9.535   4.515   4.221
  280POPC   C1A 3786   9.437   4.123   4.587
  280POPC   D2A 3787   9.295   4.015   5.029
  280POPC   C3A 3788   9.441   4.188   5.431
  280POPC   C4A 3789   9.510   3.969   5.849
  280POPC   C1B 3790   9.441   4.638   4.653
  280POPC   C2B 3791   9.189   4.580   5.037
  280POPC   C3B 3792   9.065   4.566   5.474
  280POPC   C4B 3793   9.278   4.427   5.851
  281POPC   NC3 3794   2.619   7.831   3.793
  281POPC   PO4 3795   2.159   8.291   3.992
  281POPC   GL1 3796   2.466   8.007   4.250
  281POPC   GL2 3797   2.544   7.623   4.242
  281POPC   C1A 3798   2.615   8.115   4.679
  281POPC   D2A 3799   2.739   8.189   5.129
  281POPC   C3A 3800   2.399   8.150   5.445
  281POPC   C4A 3801   2.347   7.928   5.842
  281POPC   C1B 3802   2.835   7.673   4.596
  281POPC   C2B 3803   2.681   7.681   4.993
  281POPC   C3B 3804   2.657   7.722   5.416
  281POPC   C4B 3805   2.725   7.590   5.824
  282POPC   NC3 3806   0.699   6.217   3.943
  282POPC   PO4 3807   0.268   6.664   4.068
  282POPC   GL1 3808   0.480   6.482   4.371
  282POPC   GL2 3809   0.705   6.735   4.375
  282POPC   C1A 3810   0.361   6.520   4.803
  282POPC   D2A 3811   0.253   6.238   5.129
  282POPC   C3A 3812   0.105   6.379   5.531
  282POPC   C4A 3813   0.379   6.542   5.750
  282POPC   C1B 3814   0.874   6.582   4.733
  282POPC   C2B 3815   0.783   6.493   5.132
  282POPC   C3B 3816   0.740   6.754   5.463
  282POPC   C4B 3817   0.908   6.692   5.874
  283POPC   NC3 3818  10.059   7.597   3.572
  283POPC   PO4 3819  10.436   7.606   4.108
  283POPC   GL1 3820  10.064   7.650   4.348
  283POPC   GL2 3821   9.988   7.895   4.205
  283POPC   C1A 3822   9.900   7.909   4.708
  283POPC   D2A 3823  10.091   7.909   5.093
  283POPC   C3A 3824  10.128   7.589   5.396
  283POPC   C4A 3825  10.348   7.421   5.731
  283POPC   C1B 3826  10.335   8.109   4.484
  283POPC   C2B 3827  10.479   8.237   4.889
  283POPC   C3B 3828  10.455   8.165   5.331
  283POPC   C4B 3829  10.204   8.006   5.678
  284POPC   NC3 3830   8.431   7.101   4.143
  284POPC   PO4 3831   8.927   6.945   3.747
  284POPC   GL1 3832   8.928   7.065   4.198
  284POPC   GL2 3833   8.814   7.427   4.296
  284POPC   C1A 3834   8.855   6.961   4.650
  284POPC   D2A 3835   8.767   7.060   5.095
  284POPC   C3A 3836   9.044   7.309   5.349
  284POPC   C4A 3837   9.167   7.458   5.757
  284POPC   C1B 3838   8.568   7.405   4.720
  284POPC   C2B 3839   8.328   7.316   5.124
  284POPC   C3B 3840   8.435   7.159   5.505
  284POPC   C4B 3841   8.638   7.519   5.560
  285POPC   NC3 3842   6.452   0.290   3.923
  285POPC   PO4 3843   6.140   1.061   3.934
  285POPC   GL1 3844   6.254   0.595   4.251
  285POPC   GL2 3845   6.623   0.516   4.333
  285POPC   C1A 3846   6.094   0.511   4.690
  285POPC   D2A 3847   5.971   0.500   5.150
  285POPC   C3A 3848   6.268   0.713   5.448
  285POPC   C4A 3849   6.190   0.698   5.880
  285POPC   C1B 3850   6.577   0.301   4.685
  285POPC   C2B 3851   6.504   0.488   5.050
  285POPC   C3B 3852   6.567   0.290   5.435
  285POPC   C4B 3853   6.587   0.397   5.834
  286POPC   NC3 3854   4.495   9.368   4.200
  286POPC   PO4 3855   3.897   9.604   3.880
  286POPC   GL1 3856   4.155   9.761   4.233
  286POPC   GL2 3857   4.132   9.507   4.530
  286POPC   C1A 3858   4.428   9.899   4.593
  286POPC   D2A 3859   4.262   9.721   4.981
  286POPC   C3A 3860   4.450   9.841   5.350
  286POPC   C4A 3861   4.303   9.699   5.748
  286POPC   C1B 3862   4.238   9.146   4.797
  286POPC   C2B 3863   4.123   8.967   5.173
  286POPC   C3B 3864   4.247   9.216   5.529
  286POPC   C4B 3865   3.954   9.317   5.857
  287POPC   NC3 3866   8.436   4.056   3.960
  287POPC   PO4 3867   9.003   4.385   4.146
  287POPC   GL1 3868   8.586   4.445   4.241
  287POPC   GL2 3869   8.656   4.103   4.408
  287POPC   C1A 3870   8.326   4.413   4.611
  287POPC   D2A 3871   8.457   4.089   4.905
  287POPC   C3A 3872   8.368   4.067   5.347
  287POPC   C4A 3873   8.449   4.211   5.786
  287POPC   C1B 3874   8.950   3.842   4.630
  287POPC   C2B 3875   8.830   3.791   5.045
  287POPC   C3B 3876   8.879   4.082   5.369
  287POPC   C4B 3877   8.979   4.002   5.770
  288POPC   NC3 3878   8.235   1.486   3.726
  288POPC   PO4 3879   7.829   1.959   3.748
  288POPC   GL1 3880   7.707   1.985   4.204
  288POPC   GL2 3881   7.992   1.932   4.348
  288POPC   C1A 3882   7.644   2.034   4.684
  288POPC   D2A 3883   7.733   2.334   5.035
  288POPC   C3A 3884   7.655   2.214   5.462
  288POPC   C4A 3885   7.778   1.948   5.741
  288POPC   C1B 3886   8.017   1.717   4.763
  288POPC   C2B 3887   8.258   1.613   5.096
  288POPC   C3B 3888   8.103   1.539   5.512
  288POPC   C4B 3889   8.171   1.683   5.903
  289POPC   NC3 3890   9.954   2.085   3.768
  289POPC   PO4 3891   9.599   1.393   3.805
  289POPC   GL1 3892   9.491   1.527   4.263
  289POPC   GL2 3893   9.301   1.836   4.335
  289POPC   C1A 3894   9.706   1.653   4.642
  289POPC   D2A 3895   9.594   1.951   4.911
  289POPC   C3A 3896   9.552   1.799   5.304
  289POPC   C4A 3897   9.562   1.854   5.731
  289POPC   C1B 3898   9.187   1.719   4.698
  289POPC   C2B 3899   9.094   1.723   5.103
  289POPC   C3B 3900   9.084   1.852   5.523
  289POPC   C4B 3901   9.241   2.263   5.692
  290POPC   NC3 3902   3.287   8.446   3.676
  290POPC   PO4 3903   3.031   7.801   4.005
  290POPC   GL1 3904   3.332   7.812   4.363
  290POPC   GL2 3905   3.337   7.486   4.366
  290POPC   C1A 3906   3.426   8.143   4.725
  290POPC   D2A 3907   3.270   8.232   5.155
  290POPC   C3A 3908   3.497   8.134   5.556
  290POPC   C4A 3909   3.793   8.121   5.921
  290POPC   C1B 3910   3.296   7.658   4.829
  290POPC   C2B 3911   3.416   7.709   5.249
  290POPC   C3B 3912   3.166   7.757   5.609
  290POPC   C4B 3913   2.888   8.089   5.676
  291POPC   NC3 3914   0.395   5.131   3.926
  291POPC   PO4 3915   0.102   4.561   3.975
  291POPC   GL1 3916   0.262   4.712   4.307
  291POPC   GL2 3917   0.254   5.088   4.417
  291POPC   C1A 3918   0.096   4.682   4.696
  291POPC   D2A 3919   0.141   4.841   5.062
  291POPC   C3A 3920  10.484   4.818   5.452
  291POPC   C4A 3921   0.095   5.178   5.718
  291POPC   C1B 3922   0.614   4.900   4.605
  291POPC   C2B 3923   0.625   4.710   5.014
  291POPC   C3B 3924   0.535   4.927   5.406
  291POPC   C4B 3925   0.644   4.735   5.779
  292POPC   NC3 3926   0.934   8.563   3.767
  292POPC   PO4 3927   0.658   9.158   3.980
  292POPC   GL1 3928   0.972   8.876   4.208
  292POPC   GL2 3929   1.359   8.921   4.268
  292POPC   C1A 3930   0.944   8.703   4.642
  292POPC   D2A 3931   0.708   8.646   5.056
  292POPC   C3A 3932   0.930   8.661   5.451
  292POPC   C4A 3933   0.876   8.887   5.847
  292POPC   C1B 3934   1.444   8.903   4.723
  292POPC   C2B 3935   1.351   8.621   5.083
  292POPC   C3B 3936   1.559   8.665   5.488
  292POPC   C4B 3937   1.366   8.987   5.706
  293POPC   NC3 3938   7.951   9.816   3.937
  293POPC   PO4 3939   7.890   9.198   3.737
  293POPC   GL1 3940   7.945   9.190   4.211
  293POPC   GL2 3941   7.866   9.519   4.334
  293POPC   C1A 3942   7.954   9.087   4.685
  293POPC   D2A 3943   8.129   9.413   5.025
  293POPC   C3A 3944   8.181   9.295   5.461
  293POPC   C4A 3945   8.187   9.690   5.710
  293POPC   C1B 3946   7.682   9.502   4.724
  293POPC   C2B 3947   7.673   9.253   5.111
  293POPC   C3B 3948   7.747   9.542   5.465
  293POPC   C4B 3949   7.807   9.284   5.827
  294POPC   NC3 3950   3.482   1.197   3.795
  294POPC   PO4 3951   3.119   0.895   4.280
  294POPC   GL1 3952   3.525   1.092   4.320
  294POPC   GL2 3953   3.594   1.479   4.266
  294POPC   C1A 3954   3.547   1.077   4.763
  294POPC   D2A 3955   3.730   0.950   5.113
  294POPC   C3A 3956   3.448   0.851   5.417
  294POPC   C4A 3957   3.396   1.053   5.820
  294POPC   C1B 3958   3.615   1.655   4.682
  294POPC   C2B 3959   3.674   1.477   5.071
  294POPC   C3B 3960   3.601   1.342   5.462
  294POPC   C4B 3961   3.519   1.540   5.851
  295POPC   NC3 3962   3.219   8.208   4.102
  295POPC   PO4 3963   3.422   8.843   3.904
  295POPC   GL1 3964   3.511   8.614   4.301
  295POPC   GL2 3965   3.212   8.545   4.486
  295POPC   C1A 3966   3.654   8.734   4.690
  295POPC   D2A 3967   3.506   8.802   5.056
  295POPC   C3A 3968   3.527   8.606   5.405
  295POPC   C4A 3969   3.135   8.520   5.575
  295POPC   C1B 3970   3.218   8.978   4.645
  295POPC   C2B 3971   3.213   9.201   5.054
  295POPC   C3B 3972   3.251   9.016   5.449
  295POPC   C4B 3973   3.497   9.096   5.764
  296POPC   NC3 3974   2.939   7.349   4.038
  296POPC   PO4 3975   3.431   6.996   4.094
  296POPC   GL1 3976   3.102   7.031   4.424
  296POPC   GL2 3977   2.745   6.989   4.331
  296POPC   C1A 3978   3.034   7.224   4.835
  296POPC   D2A 3979   3.015   7.385   5.285
  296POPC   C3A 3980   3.021   7.189   5.737
  296POPC   C4A 3981   2.888   7.188   6.204
  296POPC   C1B 3982   2.554   7.266   4.651
  296POPC   C2B 3983   2.581   7.184   5.081
  296POPC   C3B 3984   2.552   7.233   5.509
  296POPC   C4B 3985   2.469   7.097   5.930
  297POPC   NC3 3986   1.487   6.256   3.966
  297POPC   PO4 3987   0.917   6.736   3.871
  297POPC   GL1 3988   1.146   6.526   4.235
  297POPC   GL2 3989   0.947   6.240   4.382
  297POPC   C1A 3990   1.355   6.336   4.648
  297POPC   D2A 3991   1.212   6.173   5.057
  297POPC   C3A 3992   1.278   6.379   5.467
  297POPC   C4A 3993   1.388   6.516   5.874
  297POPC   C1B 3994   0.778   6.067   4.776
  297POPC   C2B 3995   0.752   5.995   5.244
  297POPC   C3B 3996   0.818   6.265   5.617
  297POPC   C4B 3997   1.025   6.192   6.017
  298POPC   NC3 3998   0.756   5.648   3.836
  298POPC   PO4 3999   0.317   6.185   3.680
  298POPC   GL1 4000   0.290   6.047   4.162
  298POPC   GL2 4001   0.606   5.852   4.298
  298POPC   C1A 4002   0.262   6.033   4.622
  298POPC   D2A 4003   0.407   5.753   4.947
  298POPC   C3A 4004   0.171   5.786   5.320
  298POPC   C4A 4005   0.402   5.996   5.638
  298POPC   C1B 4006   0.614   5.453   4.556
  298POPC   C2B 4007   0.477   5.242   4.957
  298POPC   C3B 4008   0.525   5.431   5.365
  298POPC   C4B 4009   0.442   5.525   5.784
  299POPC   NC3 4010   1.405   0.551   3.691
  299POPC   PO4 4011   0.818   0.344   3.899
  299POPC   GL1 4012   1.136   0.296   4.228
  299POPC   GL2 4013   1.321   0.617   4.192
  299POPC   C1A 4014   1.037   0.280   4.682
  299POPC   D2A 4015   1.220   0.144   5.069
  299POPC   C3A 4016   1.174   0.309   5.492
  299POPC   C4A 4017   1.531   0.080   5.715
  299POPC   C1B 4018   1.325   0.699   4.630
  299POPC   C2B 4019   1.222   0.656   5.063
  299POPC   C3B 4020   1.290   0.859   5.447
  299POPC   C4B 4021   1.163   0.779   5.833
  300POPC   NC3 4022   3.897   8.743   4.003
  300POPC   PO4 4023   4.444   8.259   4.005
  300POPC   GL1 4024   4.144   8.435   4.317
  300POPC   GL2 4025   4.095   8.762   4.479
  300POPC   C1A 4026   3.917   8.319   4.688
  300POPC   D2A 4027   3.922   8.515   5.089
  300POPC   C3A 4028   3.966   8.343   5.483
  300POPC   C4A 4029   4.282   8.217   5.720
  300POPC   C1B 4030   4.349   8.620   4.820
  300POPC   C2B 4031   4.433   8.478   5.246
  300POPC   C3B 4032   4.314   8.710   5.598
  300POPC   C4B 4033   3.905   8.849   5.638
  301POPC   NC3 4034   9.847   0.973   3.656
  301POPC   PO4 4035   0.070   0.972   3.873
  301POPC   GL1 4036  10.419   1.076   4.331
  301POPC   GL2 4037  10.223   0.835   4.468
  301POPC   C1A 4038  10.142   1.295   4.674
  301POPC   D2A 4039   9.862   1.363   5.053
  301POPC   C3A 4040   9.980   1.593   5.457
  301POPC   C4A 4041   9.984   1.433   5.884
  301POPC   C1B 4042   0.055   0.823   4.754
  301POPC   C2B 4043  10.487   1.130   5.010
  301POPC   C3B 4044  10.287   1.215   5.362
  301POPC   C4B 4045  10.400   1.139   5.756
  302W        W 4046  10.393   3.563   8.973
  303W        W 4047   3.391   7.456   2.217
  304W        W 4048   7.998   2.766   1.831
  305W        W 4049   6.081   0.497   0.256
  306W        W 4050   9.193   2.116   8.647
  307W        W 4051   9.846   3.080   8.674
  308W        W 4052   8.198   5.511   9.725
  309W        W 4053   2.284   3.568   0.844
  310W        W 4054   9.979   3.180   1.010
  311W        W 4055   0.252   7.405  10.557
  312W        W 4056   5.253   1.853   2.189
  313W        W 4057   9.744   7.175   9.569
  314W        W 4058   9.862   7.988   8.939
  315W        W 4059   8.436   5.667   0.082
  316W        W 4060   8.977   0.969   3.227
  317W        W 4061   5.233   6.455   1.653
  318W        W 4062   8.015   6.171   1.448
  319W        W 4063   5.655  10.453  11.889
  320W        W 4064   6.526  10.327   1.452
  321W        W 4065   1.851   5.706  11.740
  322W        W 4066   3.493   6.667  11.482
  323W        W 4067   6.431   8.067   0.325
  324W        W 4068   8.980   7.669   9.864
  325W        W 4069   0.976   1.862   9.800
  326W        W 4070  10.308   1.804   9.116
  327W        W 4071   4.635   0.759  10.131
  328W        W 4072  10.003   8.590  10.919
  329W        W 4073   9.758   2.280   0.769
  330W        W 4074   1.939   6.943   2.807
  331W        W 4075   1.371   7.001   1.769
  332W        W 4076   9.558   2.112  11.779
  333W        W 4077   6.344   3.137   9.997
  334W        W 4078   2.188   2.824   2.502
  335W        W 4079   0.412   1.029   9.405
  336W        W 4080   8.700   2.227   2.196
  337W        W 4081   8.905   8.819  10.589
  338W        W 4082   4.960   0.454   1.503
  339W        W 4083   2.743   9.474  11.139
  340W        W 4084   3.502   7.382   2.981
  341W        W 4085   9.089   0.957   2.713
  342W        W 4086   1.362   2.555   0.088
  343W        W 4087   2.373   4.696   2.668
  344W        W 4088   6.724   0.129   3.522
  345W        W 4089  10.469   4.203   9.646
  346W        W 4090   7.001  10.305   1.716
  347W        W 4091   7.411   3.682   9.876
  348W        W 4092   1.648   6.799  10.293
  349W        W 4093  10.322   5.075   2.024
  350W        W 4094   8.436   5.607   0.612
  351W        W 4095   3.552   6.897  11.019
  352W        W 4096   6.974   4.096   1.883
  353W        W 4097   4.696   4.157  10.398
  354W        W 4098   8.522   7.609   9.091
  355W        W 4099   5.148  10.112  10.714
  356W        W 4100   8.547   7.672   9.609
  357W        W 4101   6.474   9.111   2.052
  358W        W 4102   2.255   1.318   1.722
  359W        W 4103   7.552   4.656   9.467
  360W        W 4104   0.885   0.767   0.281
  361W        W 4105   4.814   8.455   9.717
  362W        W 4106   5.309   4.780   0.318
  363W        W 4107   8.407   3.180   1.915
  364W        W 4108   0.420   0.777   1.404
  365W        W 4109   8.916   8.149   0.198
  366W        W 4110   5.175   3.030  11.394
  367W        W 4111   9.379   2.710   3.477
  368W        W 4112   2.146   1.724   3.151
  369W        W 4113   4.852   0.929   1.754
  370W        W 4114   8.445   0.261   1.734
  371W        W 4115   8.984   9.117  10.171
  372W        W 4116   9.240   1.375   1.135
  373W        W 4117   8.055   6.037   2.908
  374W        W 4118   6.144   3.715   0.676
  375W        W 4119   4.918   7.944   0.242
  376W        W 4120   8.723   9.763  10.947
  377W        W 4121   0.955   8.647   9.472
  378W        W 4122   5.686   9.457  10.220
  379W        W 4123   1.044   7.124   2.565
  380W        W 4124   1.935   0.961   1.809
  381W        W 4125   4.581   9.903   9.796
  382W        W 4126   6.708   9.698  11.719
  383W        W 4127   0.960   4.653   2.995
  384W        W 4128   7.131   3.555  10.483
  385W        W 4129   8.124   7.327   1.651
  386W        W 4130   4.771   2.183   2.898
  387W        W 4131   9.657   9.848   0.723
  388W        W 4132   8.475   9.620   3.194
  389W        W 4133   6.680   4.589   9.155
  390W        W 4134   7.012   9.459  10.223
  391W        W 4135   0.761   7.762   0.027
  392W        W 4136   5.439   7.585  10.482
  393W        W 4137   7.483   6.263  11.811
  394W        W 4138   1.634   0.572   1.758
  395W        W 4139   7.838   1.359   2.932
  396W        W 4140   0.932   3.761   8.784
  397W        W 4141   3.521   2.394  11.383
  398W        W 4142   4.063   9.627   9.782
  399W        W 4143   3.096   5.271   2.788
  400W        W 4144   7.197   4.351   3.327
  401W        W 4145   9.392   8.085   2.556
  402W        W 4146   7.690   1.435   9.501
  403W        W 4147   2.291   5.493   8.593
  404W        W 4148   8.159   3.756   2.920
  405W        W 4149   9.804   8.551   1.550
  406W        W 4150   7.597   4.585   3.127
  407W        W 4151   0.759  10.316   0.653
  408W        W 4152   2.627   2.767   2.238
  409W        W 4153   8.116   9.289   9.309
  410W        W 4154   1.749   4.494   8.678
  411W        W 4155   0.398   4.369   9.927
  412W        W 4156   7.892  10.268  10.559
  413W        W 4157   1.173   9.165  11.192
  414W        W 4158   7.041   8.191  11.958
  415W        W 4159   1.266   3.595   9.611
  416W        W 4160   6.358   9.771  11.323
  417W        W 4161   3.654   0.450   0.484
  418W        W 4162   9.245   7.203   2.904
  419W        W 4163   6.712   9.401  11.242
  420W        W 4164   8.068   1.243  10.129
  421W        W 4165   7.859   0.440   0.005
  422W        W 4166   7.724   2.691   8.839
  423W        W 4167  10.164   3.453   3.367
  424W        W 4168   1.036   0.010   1.773
  425W        W 4169   4.202   2.506  11.776
  426W        W 4170   4.769   4.123   2.221
  427W        W 4171   5.331   6.098   3.364
  428W        W 4172   7.485   8.563   3.670
  429W        W 4173   2.117   0.892   3.339
  430W        W 4174   4.260   0.811   1.872
  431W        W 4175  10.095   6.839  11.789
  432W        W 4176   2.002   9.099   1.234
  433W        W 4177   7.527   7.680   2.734
  434W        W 4178   1.797   2.097   0.401
  435W        W 4179   9.920   2.817  10.058
  436W        W 4180   0.242   4.640   9.533
  437W        W 4181   4.453   3.165   3.649
  438W        W 4182   6.513   5.015  11.580
  439W        W 4183   7.951   1.657   3.323
  440W        W 4184   1.852   0.670   8.855
  441W        W 4185   4.980   6.695   0.312
  442W        W 4186   3.726   3.731   1.960
  443W        W 4187   4.109   8.527  10.934
  444W        W 4188   1.312   0.499   2.842
  445W        W 4189   4.557   1.705   1.935
  446W        W 4190   8.201   5.785   9.245
  447W        W 4191   6.912   9.906   0.366
  448W        W 4192   3.461   0.832   0.792
  449W        W 4193   9.548   5.586   2.171
  450W        W 4194   6.626   9.963   3.051
  451W        W 4195   9.234   4.445   3.685
  452W        W 4196   5.091   5.249  11.399
  453W        W 4197   6.656   9.511   2.848
  454W        W 4198  10.466  10.391   2.384
  455W        W 4199   8.395   0.229  11.319
  456W        W 4200   2.863   1.311   8.791
  457W        W 4201   6.092   3.786  11.195
  458W        W 4202   0.748   8.617   1.762
  459W        W 4203   2.193   7.225   1.260
  460W        W 4204   9.529   9.577   2.375
  461W        W 4205   6.689   4.092  11.841
  462W        W 4206   6.939   4.148   9.294
  463W        W 4207   3.249   2.328   2.888
  464W        W 4208   8.169   3.752   0.313
  465W        W 4209   1.773   2.255  11.877
  466W        W 4210   8.096   1.145   3.316
  467W        W 4211   1.478  10.309  11.909
  468W        W 4212   5.497   6.631   9.426
  469W        W 4213   2.069   0.781   0.936
  470W        W 4214   5.957   8.162   0.509
  471W        W 4215  10.388   2.032   1.546
  472W        W 4216   6.628   4.081   9.692
  473W        W 4217   9.042   0.287   9.144
  474W        W 4218   8.044   4.676   2.916
  475W        W 4219   5.148   2.491   1.699
  476W        W 4220   3.082   8.270   2.562
  477W        W 4221   7.410   8.927  11.723
  478W        W 4222   2.876   0.335  11.790
  479W        W 4223  10.316   0.214   1.641
  480W        W 4224   1.952   0.881   0.448
  481W        W 4225   9.270   8.356   3.552
  482W        W 4226   9.833   6.423   9.033
  483W        W 4227   6.038   9.174  11.934
  484W        W 4228   9.389   6.626  10.852
  485W        W 4229   7.535   8.857   9.289
  486W        W 4230   2.390   4.238   9.867
  487W        W 4231   5.497   3.294   1.268
  488W        W 4232   4.500   9.966  11.311
  489W        W 4233   5.223   3.748   1.179
  490W        W 4234   5.034   0.738   9.787
  491W        W 4235   5.108   0.789   9.283
  492W        W 4236   1.301   5.004   3.536
  493W        W 4237   8.125   4.173  10.034
  494W        W 4238   2.920   2.392   3.283
  495W        W 4239   8.539   8.438  11.466
  496W        W 4240   9.767   2.368  10.292
  497W        W 4241   2.370   6.289   8.803
  498W        W 4242   5.964   6.296   9.482
  499W        W 4243   6.129   3.743   1.189
  500W        W 4244   2.813   7.410   0.980
  501W        W 4245   9.325   5.139  10.489
  502W        W 4246   6.850   2.122   1.662
  503W        W 4247   7.219   5.347   2.102
  504W        W 4248   6.103   6.030   2.539
  505W        W 4249   3.244   1.362   2.486
  506W        W 4250   0.054   3.869   0.865
  507W        W 4251   0.170   1.278   2.263
  508W        W 4252  10.133   3.945   8.664
  509W        W 4253   7.368   5.919   8.139
  510W        W 4254   2.788   5.863   9.470
  511W        W 4255  10.156   4.227  10.056
  512W        W 4256   2.158   5.220   2.933
  513W        W 4257   3.827   2.792  11.526
  514W        W 4258   8.312   6.488   0.038
  515W        W 4259   6.865   0.113  10.807
  516W        W 4260   6.648   4.557   1.912
  517W        W 4261   5.634   6.526   3.259
  518W        W 4262   6.150   3.728   2.832
  519W        W 4263   7.699   3.569   2.892
  520W        W 4264   6.552   5.950   1.810
  521W        W 4265   4.617   5.457   2.411
  522W        W 4266   2.933   3.397   0.310
  523W        W 4267   5.090   0.835   0.674
  524W        W 4268   1.399   7.607   1.140
  525W        W 4269   2.822   2.717  11.766
  526W        W 4270   6.554   1.415   2.698
  527W        W 4271   1.773   5.893   9.380
  528W        W 4272   3.577   2.353   2.202
  529W        W 4273  10.010   0.033  10.461
  530W        W 4274   6.511   1.678  10.071
  531W        W 4275   5.820   6.238   4.211
  532W        W 4276   6.692   7.039   0.097
  533W        W 4277   7.713   4.329  11.845
  534W        W 4278   9.309   8.580   9.513
  535W        W 4279   9.081  10.227  10.873
  536W        W 4280   9.125   4.663  10.574
  537W        W 4281   4.231   1.254  10.593
  538W        W 4282   9.906   4.756   1.245
  539W        W 4283   1.662   6.100   0.754
  540W        W 4284   9.647   4.214  10.000
  541W        W 4285   3.480   2.281   3.362
  542W        W 4286   0.474   5.269   9.790
  543W        W 4287   0.429   4.510   2.386
  544W        W 4288   2.401   6.037  10.322
  545W        W 4289   5.531  10.456  10.470
  546W        W 4290   1.925   0.693   2.263
  547W        W 4291   7.690   3.547   8.922
  548W        W 4292   7.959   1.868   9.320
  549W        W 4293   6.634   5.458   0.463
  550W        W 4294   9.811   7.173  10.563
  551W        W 4295  10.174   4.650  10.393
  552W        W 4296   3.750   6.615  10.644
  553W        W 4297   9.581   2.571   3.043
  554W        W 4298   7.563   1.151  11.476
  555W        W 4299   6.628   8.614   2.710
  556W        W 4300   4.574   1.795   3.324
  557W        W 4301   5.032   2.773   8.012
  558W        W 4302   4.213   0.582   9.908
  559W        W 4303   6.477   5.665   2.248
  560W        W 4304   8.869   5.040   9.496
  561W        W 4305   8.936   2.179   0.495
  562W        W 4306   8.479   2.765   2.221
  563W        W 4307   2.172   4.714   9.878
  564W        W 4308   1.416   0.720   0.346
  565W        W 4309   7.864   7.441   1.217
  566W        W 4310   6.902   3.150   1.216
  567W        W 4311  10.150   5.073  10.088
  568W        W 4312   0.789   2.777   9.703
  569W        W 4313   5.236   4.323   2.325
  570W        W 4314   1.208   4.765   9.622
  571W        W 4315   6.584   5.883   0.202
  572W        W 4316   2.028   8.006  11.921
  573W        W 4317   4.725   4.947  11.628
  574W        W 4318   0.650   1.709   1.732
  575W        W 4319   7.099   5.590  11.931
  576W        W 4320   3.343   1.874   2.151
  577W        W 4321   8.871   4.253   1.514
  578W        W 4322   0.356   9.902   1.799
  579W        W 4323   0.492   5.646   1.901
  580W        W 4324   8.492   8.890   8.751
  581W        W 4325   6.070   6.941   2.754
  582W        W 4326   6.250   6.527   9.860
  583W        W 4327   2.720   5.194   3.185
  584W        W 4328   7.150   6.515   9.382
  585W        W 4329   3.787   2.586   0.050
  586W        W 4330   3.257   8.233   0.554
  587W        W 4331   9.359   7.305   9.197
  588W        W 4332   6.686   9.236   0.670
  589W        W 4333   3.090   3.332   2.582
  590W        W 4334   9.422   7.539   2.486
  591W        W 4335   9.051   4.116   0.419
  592W        W 4336   4.516   4.112   0.692
  593W        W 4337   5.213   7.072   9.312
  594W        W 4338   5.121   9.940   9.046
  595W        W 4339   1.959   6.706   9.885
  596W        W 4340   3.785   6.087  10.501
  597W        W 4341   5.925   9.822   3.416
  598W        W 4342   9.434   3.781   0.445
  599W        W 4343   0.884   0.337  10.495
  600W        W 4344   2.358   4.578   0.985
  601W        W 4345   6.648   1.780   8.614
  602W        W 4346   2.710   3.552   3.375
  603W        W 4347   7.722   3.719   3.897
  604W        W 4348   6.039   3.228  10.799
  605W        W 4349   1.308   3.809   9.142
  606W        W 4350   9.525   4.741   1.940
  607W        W 4351   0.886   8.342  11.194
  608W        W 4352   3.578   1.544   3.372
  609W        W 4353   1.232   7.491   8.758
  610W        W 4354   4.786   1.031   1.209
  611W        W 4355   7.683   2.835   1.353
  612W        W 4356   1.347   2.390  11.057
  613W        W 4357   4.601   2.167  10.594
  614W        W 4358   3.276   9.758   9.147
  615W        W 4359   9.287   6.305   9.808
  616W        W 4360   4.096   8.394   9.066
  617W        W 4361   6.977   1.843  11.010
  618W        W 4362   4.117   6.000  11.772
  619W        W 4363   3.424   1.001   2.116
  620W        W 4364   9.049   1.705   0.672
  621W        W 4365   5.150   3.836   0.661
  622W        W 4366   3.358   5.024   9.857
  623W        W 4367   2.142   5.704   9.995
  624W        W 4368   4.580   2.808   8.815
  625W        W 4369   1.594   0.323   9.115
  626W        W 4370   6.930   7.015   3.511
  627W        W 4371   7.675   1.051   9.839
  628W        W 4372   2.392   7.346   0.248
  629W        W 4373   7.616   4.131  10.016
  630W        W 4374   6.125   8.355   1.880
  631W        W 4375   4.807   4.593   2.445
  632W        W 4376   7.255   3.629  11.970
  633W        W 4377   3.621   6.137   2.676
  634W        W 4378   4.737   7.321   0.936
  635W        W 4379   2.427   6.541  10.092
  636W        W 4380   7.491   0.853  11.867
  637W        W 4381   5.044   6.491  10.358
  638W        W 4382   3.219  10.297  11.391
  639W        W 4383   9.865   8.486   9.039
  640W        W 4384   9.220   5.729   0.696
  641W        W 4385   0.426   5.979   0.348
  642W        W 4386  10.125   2.816   1.765
  643W        W 4387   5.512   5.129  10.938
  644W        W 4388   2.134   2.068   9.933
  645W        W 4389   3.290   8.409  10.483
  646W        W 4390   4.718   0.009   2.003
  647W        W 4391  10.078   8.277   9.936
  648W        W 4392   5.657   4.140   9.536
  649W        W 4393   4.080   2.351   2.299
  650W        W 4394   4.508   4.246   1.202
  651W        W 4395   7.991  10.451   0.464
  652W        W 4396   9.499   6.739   9.958
  653W        W 4397   0.036   6.577  11.064
  654W        W 4398   1.739   6.915   3.265
  655W        W 4399   9.053   4.238   0.984
  656W        W 4400   1.944   8.795  10.484
  657W        W 4401   8.637   7.221   2.304
  658W        W 4402   9.820   1.379   0.258
  659W        W 4403   3.292   5.079   8.373
  660W        W 4404   2.332   2.072   0.996
  661W        W 4405   9.317   7.705   2.958
  662W        W 4406   6.732   6.010   8.731
  663W        W 4407   5.224   5.780   9.084
  664W        W 4408   7.620   5.687   2.110
  665W        W 4409   4.836   2.682  11.257
  666W        W 4410   9.090   2.339   1.368
  667W        W 4411   5.629   5.595   1.092
  668W        W 4412   5.915   8.640   1.498
  669W        W 4413   4.061   3.288   2.297
  670W        W 4414   6.119   0.312   2.479
  671W        W 4415   9.438   9.474   8.960
  672W        W 4416   3.829   0.047   1.689
  673W        W 4417   4.971   3.233   3.622
  674W        W 4418  10.075   3.644   1.703
  675W        W 4419   1.223   4.203   1.960
  676W        W 4420   0.490   3.341   3.457
  677W        W 4421   8.090   8.622  11.021
  678W        W 4422   6.520   3.603  11.726
  679W        W 4423   5.355  10.387   2.937
  680W        W 4424   5.119   6.020   1.367
  681W        W 4425   8.015   1.739   0.847
  682W        W 4426   0.821   0.951  11.811
  683W        W 4427   9.829   6.980   0.964
  684W        W 4428   1.944   3.652  11.918
  685W        W 4429   6.559   0.524   2.220
  686W        W 4430   0.306   2.077   1.863
  687W        W 4431   0.357   3.955  10.543
  688W        W 4432   6.228   4.690   0.524
  689W        W 4433   9.624   0.593   0.089
  690W        W 4434   0.490   4.737   1.922
  691W        W 4435   9.971   2.310   1.730
  692W        W 4436  10.219   7.795   9.727
  693W        W 4437   6.739   7.264   2.215
  694W        W 4438   0.822   8.546   2.257
  695W        W 4439   2.337   1.569   9.976
  696W        W 4440   8.637   6.528   1.897
  697W        W 4441   4.689   0.374   3.512
  698W        W 4442   2.063  10.317   3.340
  699W        W 4443   0.270   4.802  11.144
  700W        W 4444   7.182   1.894   8.513
  701W        W 4445   2.002   3.952   9.340
  702W        W 4446   3.718   7.623   2.587
  703W        W 4447   8.937   3.124   0.566
  704W        W 4448   7.781   3.135   3.123
  705W        W 4449   3.742   0.114   3.493
  706W        W 4450   7.951   8.349   3.095
  707W        W 4451   4.746   0.344   0.030
  708W        W 4452   5.177   6.027   1.927
  709W        W 4453   8.450   9.514   2.688
  710W        W 4454   1.241   5.740   8.589
  711W        W 4455   5.618   3.426   8.995
  712W        W 4456   7.917   5.125   9.095
  713W        W 4457   1.017   8.106   9.494
  714W        W 4458   2.308   7.015   8.915
  715W        W 4459   6.947  10.445   8.446
  716W        W 4460   7.130   7.393   1.868
  717W        W 4461   1.675  10.326   2.431
  718W        W 4462   3.247   0.363   0.801
  719W        W 4463   5.162   7.875  10.832
  720W        W 4464   7.099   4.226  10.928
  721W        W 4465   8.431   8.866   9.285
  722W        W 4466   5.649   8.937   2.182
  723W        W 4467   9.793   6.964   9.112
  724W        W 4468   5.103   7.166   0.487
  725W        W 4469   5.516   5.143   2.624
  726W        W 4470   6.456   7.451   0.351
  727W        W 4471   8.167   4.867   8.468
  728W        W 4472   6.423   7.517  11.260
  729W        W 4473   7.722   0.547   9.882
  730W        W 4474   1.394   1.424   1.748
  731W        W 4475   0.293   7.892   2.300
  732W        W 4476   1.559   8.384   1.697
  733W        W 4477   6.035   4.230  11.466
  734W        W 4478   0.095   4.701   0.419
  735W        W 4479   3.632   9.939  10.012
  736W        W 4480   9.528   5.280  10.971
  737W        W 4481   9.693   0.137   9.998
  738W        W 4482   3.790   1.875   0.407
  739W        W 4483   1.259   3.795   0.034
  740W        W 4484   0.379   5.808  11.042
  741W        W 4485   9.929   2.565   3.436
  742W        W 4486   1.172   7.825   3.314
  743W        W 4487   5.660   1.818   0.031
  744W        W 4488   2.052   9.214   8.715
  745W        W 4489   7.564   6.654   1.112
  746W        W 4490   5.660   9.583   8.853
  747W        W 4491   5.660   2.242   2.894
  748W        W 4492  10.072   3.543  10.757
  749W        W 4493   7.460   9.729   8.966
  750W        W 4494   1.732   7.600  11.818
  751W        W 4495   1.455   0.075  11.297
  752W        W 4496   4.319   6.654   1.590
  753W        W 4497   9.968   8.796  10.010
  754W        W 4498   0.586   0.008  10.800
  755W        W 4499   4.183  10.076   2.397
  756W        W 4500   5.334  10.072   9.538
  757W        W 4501   4.528   1.339   8.713
  758W        W 4502   0.438   0.831  11.005
  759W        W 4503   9.411   9.881   9.427
  760W        W 4504   2.075   3.154   0.029
  761W        W 4505   9.040   2.716  11.242
  762W        W 4506   7.279   7.911   9.123
  763W        W 4507   3.253   7.959   2.200
  764W        W 4508   1.350   1.970  10.746
  765W        W 4509   6.981   2.621   1.850
  766W        W 4510   8.972   3.121   0.062
  767W        W 4511   2.625   0.021   9.044
  768W        W 4512   2.154   8.930  11.820
  769W        W 4513   6.563   4.064   1.002
  770W        W 4514   9.907   9.989   9.294
  771W        W 4515   3.080   6.197   3.724
  772W        W 4516   1.731  10.386   1.294
  773W        W 4517   2.332   9.473   2.751
  774W        W 4518   9.611   8.438   0.302
  775W        W 4519   3.350   1.937  10.376
  776W        W 4520   1.283   0.630   1.209
  777W        W 4521   7.419   8.194  10.069
  778W        W 4522   2.736   6.426  10.984
  779W        W 4523   3.786   4.757   0.571
  780W        W 4524   7.709   5.770   1.317
  781W        W 4525   6.177   7.090  11.443
  782W        W 4526   0.361   2.280   1.397
  783W        W 4527   6.142   5.485   0.994
  784W        W 4528   5.549   6.042  10.240
  785W        W 4529   5.078   3.327   2.210
  786W        W 4530   0.788   6.169  11.407
  787W        W 4531   5.756   1.254  10.258
  788W        W 4532   6.280   9.518   3.213
  789W        W 4533   5.593   6.738   2.803
  790W        W 4534   0.085   2.114   8.618
  791W        W 4535   4.299   3.077   1.870
  792W        W 4536   6.646   0.327   1.347
  793W        W 4537   2.665   5.618   9.017
  794W        W 4538   0.106   9.409   3.315
  795W        W 4539   3.259   0.782   1.677
  796W        W 4540   0.251   6.599  10.558
  797W        W 4541   3.111   4.282   2.786
  798W        W 4542   4.290   9.364   8.883
  799W        W 4543   1.225   1.849   3.000
  800W        W 4544   3.006   4.298   8.576
  801W        W 4545   8.267   1.073  10.984
  802W        W 4546   7.257   2.829   0.025
  803W        W 4547   5.247   6.475   1.150
  804W        W 4548   7.201   4.206   8.518
  805W        W 4549  10.020   4.016  10.911
  806W        W 4550   4.783   0.350  11.524
  807W        W 4551   4.162   2.767   9.601
  808W        W 4552   8.864   0.272   8.667
  809W        W 4553   6.788   5.356   1.302
  810W        W 4554   9.350   4.070   1.377
  811W        W 4555   8.954   7.916   1.798
  812W        W 4556   6.981   7.552  10.379
  813W        W 4557   0.940   0.837  10.225
  814W        W 4558   3.717   4.001   3.746
  815W        W 4559   4.670   9.344  10.957
  816W        W 4560   7.551   7.290   3.615
  817W        W 4561  10.247   9.495  10.476
  818W        W 4562   6.954   3.681   9.535
  819W        W 4563  10.230   7.455  10.572
  820W        W 4564   5.616   2.238  11.193
  821W        W 4565   1.075   1.427   9.012
  822W        W 4566   0.135   5.548   9.515
  823W        W 4567   5.208   0.999   3.492
  824W        W 4568   3.609   4.244   1.822
  825W        W 4569   3.736   7.842   2.086
  826W        W 4570   7.125   1.194   0.782
  827W        W 4571   5.981   8.355  11.504
  828W        W 4572   2.487   6.920   2.947
  829W        W 4573   6.707   1.495   2.213
  830W        W 4574   8.064   2.892  11.229
  831W        W 4575   4.505   1.641   0.911
  832W        W 4576   8.536   9.498  10.556
  833W        W 4577   2.687   2.645   9.415
  834W        W 4578   7.934  10.160  10.074
  835W        W 4579   2.579   0.697   3.299
  836W        W 4580   7.470   5.636   8.573
  837W        W 4581   7.942   6.551  11.183
  838W        W 4582   6.019   3.290   0.929
  839W        W 4583   5.611   6.735   1.939
  840W        W 4584   9.174   1.055   2.130
  841W        W 4585   7.122   4.722   0.240
  842W        W 4586   4.857   6.189   0.348
  843W        W 4587   1.098   9.670  11.322
  844W        W 4588   0.791   9.867   2.485
  845W        W 4589   4.787   4.718   0.445
  846W        W 4590   4.727   3.675   9.498
  847W        W 4591   2.237   7.382  11.763
  848W        W 4592   6.203   4.223  11.945
  849W        W 4593   9.922   9.861   3.357
  850W        W 4594   6.573   8.360  10.348
  851W        W 4595   2.878   2.674  10.300
  852W        W 4596   7.831   4.594   8.176
  853W        W 4597   3.348   5.747   2.823
  854W        W 4598   1.893   1.846   2.339
  855W        W 4599   3.080   6.490   2.178
  856W        W 4600   4.073   8.619  11.434
  857W        W 4601   3.347   8.548   1.421
  858W        W 4602   2.071   2.353   2.366
  859W        W 4603   7.736   2.479   9.995
  860W        W 4604   2.308   3.865   3.158
  861W        W 4605   6.674   7.102  11.410
  862W        W 4606   0.457   8.456   3.434
  863W        W 4607   2.746   5.979   0.048
  864W        W 4608   6.686   4.792   2.416
  865W        W 4609   1.311   7.256  11.649
  866W        W 4610   8.930   7.472  10.886
  867W        W 4611   1.084   9.135   3.044
  868W        W 4612   3.657   2.753  10.037
  869W        W 4613   8.068   6.453  10.699
  870W        W 4614   6.450   3.238   0.549
  871W        W 4615   8.655   3.591   2.061
  872W        W 4616   9.527   6.630   1.187
  873W        W 4617   4.147   9.830  10.962
  874W        W 4618   1.427   0.547   2.331
  875W        W 4619   7.872   3.288  10.492
  876W        W 4620   0.323   3.217   9.112
  877W        W 4621   1.747   5.090   3.234
  878W        W 4622   4.126   0.364  10.753
  879W        W 4623   2.563   6.544   2.157
  880W        W 4624   0.530   0.920   9.919
  881W        W 4625   7.513   9.968   1.020
  882W        W 4626   2.060   1.016  11.792
  883W        W 4627   7.362   5.011   9.792
  884W        W 4628   8.456   4.649  10.806
  885W        W 4629  10.051   0.922  10.606
  886W        W 4630   9.644   6.637   2.206
  887W        W 4631   9.359   6.113  10.796
  888W        W 4632   5.018   2.605   8.986
  889W        W 4633   8.511   4.597   8.752
  890W        W 4634   4.679   2.200  11.458
  891W        W 4635  10.226   7.948   1.448
  892W        W 4636   9.105   2.840   0.979
  893W        W 4637   6.574   5.127   0.879
  894W        W 4638   8.221   3.608   8.933
  895W        W 4639  10.418   3.233   9.418
  896W        W 4640   0.711   9.768  10.458
  897W        W 4641   0.858   0.924   1.196
  898W        W 4642   8.117   4.795  11.241
  899W        W 4643   9.387   9.430  10.476
  900W        W 4644   0.481   7.578   0.838
  901W        W 4645   4.020   7.677   1.283
  902W        W 4646   3.588  10.041   0.498
  903W        W 4647   4.734   1.742   8.945
  904W        W 4648   5.614   9.391  11.750
  905W        W 4649   4.262   3.649   0.669
  906W        W 4650   7.491   7.679  10.303
  907W        W 4651   0.797   8.019   2.413
  908W        W 4652   2.538   1.177  11.470
  909W        W 4653   0.967   9.162   1.885
  910W        W 4654   0.839   3.069   2.338
  911W        W 4655   8.016   9.337   3.188
  912W        W 4656   7.593   1.013   3.305
  913W        W 4657   8.428   0.452   0.638
  914W        W 4658   8.394   1.987  11.958
  915W        W 4659   6.971   1.479   0.402
  916W        W 4660   6.588   2.754   3.345
  917W        W 4661   2.256   9.331  11.263
  918W        W 4662   8.097   1.386   9.167
  919W        W 4663   1.794   7.221   8.838
  920W        W 4664   2.170   4.104  10.724
  921W        W 4665   6.518   0.725   0.401
  922W        W 4666   9.886   2.723  11.128
  923W        W 4667   6.397   6.816  10.575
  924W        W 4668   0.926   8.754  10.348
  925W        W 4669   3.544   0.925   1.281
  926W        W 4670   3.317   6.800   0.213
  927W        W 4671  10.020   7.345  11.874
  928W        W 4672   8.872   4.205  10.503
  929W        W 4673   7.036   6.937   9.978
  930W        W 4674   1.530   8.115  11.892
  931W        W 4675   9.077   9.469  11.839
  932W        W 4676   0.591   9.135  11.123
  933W        W 4677   5.503   6.656   4.068
  934W        W 4678   8.400  10.052   8.387
  935W        W 4679   0.576   4.822   0.541
  936W        W 4680   9.411   6.253   8.757
  937W        W 4681   6.607   3.770   1.423
  938W        W 4682   9.340   6.443  10.345
  939W        W 4683   4.385  10.355   2.891
  940W        W 4684   3.872   7.324   2.195
  941W        W 4685   8.393   0.738  11.354
  942W        W 4686   4.563   5.773  11.893
  943W        W 4687   8.729   9.340   2.174
  944W        W 4688   3.694   6.073   1.263
  945W        W 4689   8.334   9.440   0.870
  946W        W 4690   5.178   5.246   9.562
  947W        W 4691   7.894   4.050   1.129
  948W        W 4692   1.839   1.598   0.555
  949W        W 4693   5.068   5.171   0.791
  950W        W 4694   1.767   4.055   3.128
  951W        W 4695   3.169   8.458   9.566
  952W        W 4696   9.940   3.147   9.194
  953W        W 4697   6.091   2.467  10.379
  954W        W 4698   1.910   9.415  10.822
  955W        W 4699   5.596   6.485   2.372
  956W        W 4700   2.596   9.988   9.098
  957W        W 4701   1.008   9.039   2.408
  958W        W 4702   3.818   9.396  11.782
  959W        W 4703   2.724   8.000   3.327
  960W        W 4704   4.560   4.060   8.913
  961W        W 4705   3.651   7.591   3.422
  962W        W 4706   2.380   0.316  11.832
  963W        W 4707   5.650   8.038  11.291
  964W        W 4708   1.412   5.636   2.476
  965W        W 4709   5.253   0.948  11.343
  966W        W 4710   7.543   6.983   8.688
  967W        W 4711   2.898   3.189   8.922
  968W        W 4712   2.628   8.976  10.004
  969W        W 4713   5.654   7.573   8.856
  970W        W 4714   4.071   2.223   8.890
  971W        W 4715   5.977   6.798   9.508
  972W        W 4716   9.835  10.282  11.430
  973W        W 4717   4.256   0.339   2.763
  974W        W 4718   7.457   1.052   2.825
  975W        W 4719   4.314   8.606   2.715
  976W        W 4720   1.835   5.074   9.964
  977W        W 4721   8.880   4.542   2.010
  978W        W 4722   3.205   6.118   9.638
  979W        W 4723   9.020   0.842  11.415
  980W        W 4724   5.550   1.676  10.526
  981W        W 4725   2.870   8.088   1.858
  982W        W 4726   6.643   8.123   2.794
  983W        W 4727   6.652  10.020   1.016
  984W        W 4728   6.696   4.452   0.638
  985W        W 4729   4.825   9.744   0.835
  986W        W 4730  10.420   1.401   0.849
  987W        W 4731  10.314   4.719  11.425
  988W        W 4732   3.530   5.282   9.423
  989W        W 4733   5.467   4.329   1.667
  990W        W 4734   0.180   0.034   1.922
  991W        W 4735   0.840   7.163   3.577
  992W        W 4736   4.555   2.670   2.760
  993W        W 4737   1.161   6.065  10.844
  994W        W 4738   9.102   9.737   2.138
  995W        W 4739   8.796   9.864  11.520
  996W        W 4740   6.870   8.326   2.343
  997W        W 4741   0.247   9.201   2.444
  998W        W 4742   8.945   0.061  10.487
  999W        W 4743  10.280   3.250  11.350
 1000W        W 4744   2.336   2.110   2.014
 1001W        W 4745   7.818   3.298   1.124
 1002W        W 4746   0.782   0.520  11.575
 1003W        W 4747   4.929   4.477   2.967
 1004W        W 4748   2.299   7.838   0.356
 1005W        W 4749   9.880   9.275   2.615
 1006W        W 4750   4.045   3.956   9.149
 1007W        W 4751   5.352   7.890   2.646
 1008W        W 4752   6.601   5.723  11.722
 1009W        W 4753   5.940   2.233  10.788
 1010W        W 4754   5.696   8.562   0.721
 1011W        W 4755  10.298  10.007  11.777
 1012W        W 4756   1.683   9.061   9.101
 1013W        W 4757   2.620   2.699   3.545
 1014W        W 4758   7.449   1.326   1.690
 1015W        W 4759   1.151   1.865   1.603
 1016W        W 4760   3.143   6.120  11.781
 1017W        W 4761   7.936   9.133   0.785
 1018W        W 4762   3.526   7.699   1.640
 1019W        W 4763   3.660   4.699   8.223
 1020W        W 4764   7.094   4.749  10.390
 1021W        W 4765   9.434   3.768  10.143
 1022W        W 4766   8.571   5.677   3.062
 1023W        W 4767   4.023   4.431   1.541
 1024W        W 4768   9.127   3.586  11.335
 1025W        W 4769   9.548   6.363   0.175
 1026W        W 4770   2.579   2.701   3.037
 1027W        W 4771   9.332   7.829  11.505
 1028W        W 4772   8.342  10.196   0.189
 1029W        W 4773   5.561   0.012   8.871
 1030W        W 4774   5.802   9.881   9.593
 1031W        W 4775   1.323   0.765   9.533
 1032W        W 4776   1.227   5.083   2.994
 1033W        W 4777   5.675  10.383   1.987
 1034W        W 4778   5.769   0.646   1.290
 1035W        W 4779   1.881   8.466   3.142
 1036W        W 4780   1.148   0.980   3.597
 1037W        W 4781  10.441   1.774  10.111
 1038W        W 4782   2.380   3.727  11.069
 1039W        W 4783   8.874   5.745   2.655
 1040W        W 4784   8.135   9.260   9.813
 1041W        W 4785   5.224   3.541   1.711
 1042W        W 4786   1.808   8.415  10.185
 1043W        W 4787   5.601   3.674  11.958
 1044W        W 4788   8.331   3.322  10.809
 1045W        W 4789   6.561   8.560   9.809
 1046W        W 4790   2.841   0.424   9.807
 1047W        W 4791   7.547   0.270   2.270
 1048W        W 4792  10.214   5.096   3.238
 1049W        W 4793   1.284   5.942   3.366
 1050W        W 4794   4.585   1.882  11.057
 1051W        W 4795   4.309   3.339  11.254
 1052W        W 4796   8.249  10.218   8.854
 1053W        W 4797   9.744   4.025   1.701
 1054W        W 4798  10.135   5.986   9.046
 1055W        W 4799   2.559   4.506   8.760
 1056W        W 4800   6.650   7.509   1.746
 1057W        W 4801   5.788   6.205  11.521
 1058W        W 4802   6.886   5.180   9.572
 1059W        W 4803   0.929   3.572  10.814
 1060W        W 4804   4.066   0.201  11.238
 1061W        W 4805  10.011   3.234   9.728
 1062W        W 4806   0.863   7.942   2.943
 1063W        W 4807   1.356   9.977  10.618
 1064W        W 4808   0.608   0.540   9.127
 1065W        W 4809   7.090   1.086   8.929
 1066W        W 4810   0.794   2.577   3.017
 1067W        W 4811   8.701   7.304  11.849
 1068W        W 4812   7.177   3.399   8.943
 1069W        W 4813   4.417   0.011   2.406
 1070W        W 4814   7.839   5.185  11.443
 1071W        W 4815   9.535   7.121  10.993
 1072W        W 4816   4.138  10.068  10.040
 1073W        W 4817   7.023   6.069   9.621
 1074W        W 4818   0.154   7.516   9.641
 1075W        W 4819   7.127   4.603   4.254
 1076W        W 4820   7.463   0.859  10.898
 1077W        W 4821   5.254   8.310   0.485
 1078W        W 4822   4.683   9.267   0.958
 1079W        W 4823   9.263   1.619   1.984
 1080W        W 4824   5.132   8.990   1.950
 1081W        W 4825   3.627   8.566   8.970
 1082W        W 4826   6.938   0.173  11.824
 1083W        W 4827   9.905   1.870   1.458
 1084W        W 4828   7.566   5.407  11.001
 1085W        W 4829   8.658   6.833   1.469
 1086W        W 4830   5.780   4.647   1.369
 1087W        W 4831   5.112  10.411   1.512
 1088W        W 4832   8.342   6.210   2.161
 1089W        W 4833   6.150   3.689   1.696
 1090W        W 4834  10.354   1.207   2.647
 1091W        W 4835   3.564   2.720   1.839
 1092W        W 4836   5.246   9.005  11.442
 1093W        W 4837   1.768   7.171   9.848
 1094W        W 4838   9.897   7.046   2.995
 1095W        W 4839   3.673   9.611   0.224
 1096W        W 4840   6.860   2.231  10.696
 1097W        W 4841   9.423   1.208   9.974
 1098W        W 4842   5.365   0.427  10.594
 1099W        W 4843   3.261  10.176  10.868
 1100W        W 4844   8.137   8.394   0.298
 1101W        W 4845   6.485   3.353   2.776
 1102W        W 4846   4.630   7.872   2.312
 1103W        W 4847   2.224   8.319   1.332
 1104W        W 4848   6.091   9.671  10.489
 1105W        W 4849   6.092   1.027   0.193
 1106W        W 4850   3.273   0.503   2.782
 1107W        W 4851   3.903   4.659   2.728
 1108W        W 4852   2.834   3.517  11.800
 1109W        W 4853   5.280   1.353  11.002
 1110W        W 4854   2.937   4.588   9.628
 1111W        W 4855   6.262   1.349  10.551
 1112W        W 4856   3.185   4.636  11.611
 1113W        W 4857   6.546  10.216   0.545
 1114W        W 4858   9.868   1.396  10.686
 1115W        W 4859   0.144   8.320   0.360
 1116W        W 4860   3.390   3.677  10.466
 1117W        W 4861   0.163   6.198   9.868
 1118W        W 4862   4.939   5.639  10.269
 1119W        W 4863   6.152   6.494   1.222
 1120W        W 4864   5.621   3.129  11.132
 1121W        W 4865   4.711   9.118   9.143
 1122W        W 4866   9.538   9.573   0.038
 1123W        W 4867   5.014   4.519   1.906
 1124W        W 4868   1.742   6.016   9.909
 1125W        W 4869   2.194   9.464   9.827
 1126W        W 4870   0.393   2.740   1.174
 1127W        W 4871   2.924   5.955   0.521
 1128W        W 4872   2.222   0.949  10.559
 1129W        W 4873   0.189   1.679  11.071
 1130W        W 4874   3.527   1.693   0.004
 1131W        W 4875   9.969   6.170   1.377
 1132W        W 4876   8.005   7.211   8.550
 1133W        W 4877   5.972   7.496   1.505
 1134W        W 4878   3.668   3.496   1.469
 1135W        W 4879   8.488   5.955   9.622
 1136W        W 4880   1.020   5.959   9.535
 1137W        W 4881   2.830   8.871   2.166
 1138W        W 4882   4.800   3.146   2.697
 1139W        W 4883   9.907   6.025   0.010
 1140W        W 4884   4.988   4.198   8.679
 1141W        W 4885  10.388   7.224   0.222
 1142W        W 4886   9.564   7.068  11.930
 1143W        W 4887   7.584   5.785  11.919
 1144W        W 4888   3.732   1.418   9.346
 1145W        W 4889   0.797   7.009  10.590
 1146W        W 4890   9.174   1.740  10.797
 1147W        W 4891   8.948   3.313   1.087
 1148W        W 4892  10.324   0.468   0.679
 1149W        W 4893   0.291   7.014  10.236
 1150W        W 4894   8.383   5.045   9.640
 1151W        W 4895   0.341   2.775   3.163
 1152W        W 4896   4.415   9.535  10.129
 1153W        W 4897   7.887  10.223   9.570
 1154W        W 4898   2.671   5.658   1.724
 1155W        W 4899   7.181   7.005   0.195
 1156W        W 4900   5.416   7.315   3.705
 1157W        W 4901   8.379  10.471  11.749
 1158W        W 4902   6.464   1.405   9.610
 1159W        W 4903   1.763   4.281   0.624
 1160W        W 4904   9.871   8.908  11.575
 1161W        W 4905   3.539   7.546   1.152
 1162W        W 4906   1.671   3.152   3.021
 1163W        W 4907   6.966   6.056   0.951
 1164W        W 4908   0.495   2.087   0.926
 1165W        W 4909   7.096   9.326   3.323
 1166W        W 4910   2.684   1.940   9.924
 1167W        W 4911   3.713   8.861   0.898
 1168W        W 4912   1.354   0.876  10.535
 1169W        W 4913   9.968   5.723  10.300
 1170W        W 4914   8.750  10.055  10.520
 1171W        W 4915   3.118   9.808  11.348
 1172W        W 4916   1.830   5.730  11.221
 1173W        W 4917   0.970   1.383   3.324
 1174W        W 4918   9.550   7.054   3.446
 1175W        W 4919  10.323   9.846   1.678
 1176W        W 4920   5.746   7.010   2.363
 1177W        W 4921   7.366   5.647   9.103
 1178W        W 4922   2.846   4.819   2.819
 1179W        W 4923   9.572   3.513   3.233
 1180W        W 4924   9.562   4.502   0.436
 1181W        W 4925   5.654   1.309   8.731
 1182W        W 4926   7.045   3.968   2.405
 1183W        W 4927   5.642   3.738   1.981
 1184W        W 4928   7.685   3.835  11.841
 1185W        W 4929   7.169   2.654  10.630
 1186W        W 4930  10.432   4.353   0.754
 1187W        W 4931   7.191   1.271  11.859
 1188W        W 4932   2.914   2.924   8.439
 1189W        W 4933   5.522   2.236   8.801
 1190W        W 4934   8.187   1.877   2.905
 1191W        W 4935   3.336   0.500   2.274
 1192W        W 4936   7.938   7.378   2.701
 1193W        W 4937   0.265   1.356   9.822
 1194W        W 4938   2.379   1.876   8.640
 1195W        W 4939   0.657   8.918   0.928
 1196W        W 4940   6.151   6.004   1.028
 1197W        W 4941   9.100   3.747  10.535
 1198W        W 4942   4.284   1.187   0.903
 1199W        W 4943   2.697   3.748   0.612
 1200W        W 4944   7.891   5.105   0.218
 1201W        W 4945   7.840   8.278  11.323
 1202W        W 4946   7.931   6.616  11.685
 1203W        W 4947   1.206   7.354   3.058
 1204W        W 4948   1.426   6.469  11.017
 1205W        W 4949   7.578   7.902  11.053
 1206W        W 4950   1.650   2.685   3.252
 1207W        W 4951   6.052   1.965   0.757
 1208W        W 4952   2.152   8.580   2.293
 1209W        W 4953   6.850   7.821   9.954
 1210W        W 4954   1.368   5.559   9.396
 1211W        W 4955   1.888   5.915  10.400
 1212W        W 4956   1.768   7.722   8.653
 1213W        W 4957   7.192   1.485  11.328
 1214W        W 4958   2.280   3.786   8.889
 1215W        W 4959  10.028   3.780  10.284
 1216W        W 4960   0.039   9.342   1.411
 1217W        W 4961   9.839   5.526   9.848
 1218W        W 4962   7.648   9.468   8.560
 1219W        W 4963   3.180   2.767   9.373
 1220W        W 4964   7.299   4.416   0.600
 1221W        W 4965   2.964   7.557   8.640
 1222W        W 4966   3.984   7.974   3.350
 1223W        W 4967   3.540   3.154   3.248
 1224W        W 4968   8.193   4.688   0.172
 1225W        W 4969   5.567   1.670   2.558
 1226W        W 4970   3.205   4.092  10.838
 1227W        W 4971   9.517   0.703  11.601
 1228W        W 4972   5.657   8.462   0.219
 1229W        W 4973   2.178   7.339  11.257
 1230W        W 4974   4.580   5.026  10.801
 1231W        W 4975   3.778   1.335  10.361
 1232W        W 4976   2.291   8.393   8.899
 1233W        W 4977   8.884   0.044   1.866
 1234W        W 4978   6.001   5.807   9.577
 1235W        W 4979   0.880   9.647   3.534
 1236W        W 4980   5.725   9.574   3.016
 1237W        W 4981   9.424   1.748   1.503
 1238W        W 4982   3.512   1.687   0.770
 1239W        W 4983   6.936   0.288   9.520
 1240W        W 4984   9.459   0.972   0.894
 1241W        W 4985   9.337   9.613   2.857
 1242W        W 4986   9.325   5.073   9.227
 1243W        W 4987   1.485   7.755   2.908
 1244W        W 4988   2.162   5.800   2.330
 1245W        W 4989   6.185   6.462   3.907
 1246W        W 4990   5.268   3.790   2.332
 1247W        W 4991   0.539   8.291   9.500
 1248W        W 4992   6.220   2.726  10.787
 1249W        W 4993   4.949   3.732   7.854
 1250W        W 4994   4.275   3.893  10.326
 1251W        W 4995   7.381   6.779   3.670
 1252W        W 4996   5.393   7.090  10.564
 1253W        W 4997   6.008   8.375   9.540
 1254W        W 4998   7.196   7.300   0.664
 1255W        W 4999   5.104   0.739   2.153
 1256W        W 5000   4.749   2.703  10.756
 1257W        W 5001   3.378   2.802   0.277
 1258W        W 5002   7.958   0.958   8.868
 1259W        W 5003   5.981   3.906  10.208
 1260W        W 5004   2.179   5.790   8.984
 1261W        W 5005   2.777   4.703   1.945
 1262W        W 5006   9.726   7.148   1.455
 1263W        W 5007   8.574   3.354   3.344
 1264W        W 5008   5.034   8.000   9.769
 1265W        W 5009   1.699   4.685   9.673
 1266W        W 5010   9.108   8.196   9.208
 1267W        W 5011   7.467   5.221   3.591
 1268W        W 5012   6.509   7.344   2.748
 1269W        W 5013   4.581   8.122  10.038
 1270W        W 5014   4.521   9.705   8.544
 1271W        W 5015   7.834  10.407  11.970
 1272W        W 5016   4.078   1.405   0.404
 1273W        W 5017   1.318   6.478   0.340
 1274W        W 5018   8.094   8.913   0.329
 1275W        W 5019   0.124   6.839   8.669
 1276W        W 5020   4.612   5.028   2.679
 1277W        W 5021   9.336   2.409   9.962
 1278W        W 5022  10.140   0.393   9.960
 1279W        W 5023   1.820   1.640  10.059
 1280W        W 5024   1.285   2.181   1.174
 1281W        W 5025   7.927   8.840   3.317
 1282W        W 5026  10.254   6.438   9.659
 1283W        W 5027   0.479   3.457  10.596
 1284W        W 5028   7.053   5.386   0.766
 1285W        W 5029   5.565   9.421   1.441
 1286W        W 5030   3.550   8.305   3.281
 1287W        W 5031   7.469   5.035   0.482
 1288W        W 5032   7.223   9.301   1.924
 1289W        W 5033   9.089   1.347   0.240
 1290W        W 5034   2.861   4.026   3.273
 1291W        W 5035   9.771   0.443   1.902
 1292W        W 5036   1.824   5.570   0.248
 1293W        W 5037   3.134   0.009   9.596
 1294W        W 5038   1.837  10.332  11.540
 1295W        W 5039  10.293   1.930   2.036
 1296W        W 5040   6.886   7.586   1.229
 1297W        W 5041   6.485   3.539  10.745
 1298W        W 5042   8.751  10.433   9.456
 1299W        W 5043   3.215   6.028   2.368
 1300W        W 5044   4.419   4.616   0.801
 1301W        W 5045  10.473   5.426   2.377
 1302W        W 5046   3.079   0.683   3.246
 1303W        W 5047   6.703   5.555  10.842
 1304W        W 5048   8.910   7.654   0.364
 1305W        W 5049   8.377   8.601   3.324
 1306W        W 5050   2.431   0.296   9.486
 1307W        W 5051   8.359   1.835   0.445
 1308W        W 5052   0.819   2.359   8.574
 1309W        W 5053   0.717   4.099   2.256
 1310W        W 5054   6.901   2.181   8.854
 1311W        W 5055   4.641   7.058   1.652
 1312W        W 5056   0.390   6.417  11.889
 1313W        W 5057   3.103   7.640   3.170
 1314W        W 5058   4.193   7.862   9.811
 1315W        W 5059   2.442   9.583   8.782
 1316W        W 5060   7.677   6.526   1.570
 1317W        W 5061   6.837   2.315  11.742
 1318W        W 5062   1.174   7.583  11.265
 1319W        W 5063   4.591   9.940   2.682
 1320W        W 5064   7.791   6.027   4.137
 1321W        W 5065   4.841   1.321  11.253
 1322W        W 5066   6.554   5.848   2.724
 1323W        W 5067   9.933   7.500   1.827
 1324W        W 5068   6.485   0.982   9.296
 1325W        W 5069   2.378   1.464   9.036
 1326W        W 5070   4.739   6.524   1.844
 1327W        W 5071   4.623   6.153  10.374
 1328W        W 5072   6.992   9.447   1.458
 1329W        W 5073   4.144   4.706   9.966
 1330W        W 5074   2.694   3.260  10.872
 1331W        W 5075   4.182   0.318   1.259
 1332W        W 5076   7.688   8.306   0.523
 1333W        W 5077   9.367   0.227   9.554
 1334W        W 5078   2.822   1.454   9.820
 1335W        W 5079   3.255   4.052  11.348
 1336W        W 5080   7.424   9.763   0.494
 1337W        W 5081   1.193   6.506   1.799
 1338W        W 5082  10.377   0.178   1.128
 1339W        W 5083   8.836   3.164   9.547
 1340W        W 5084   6.075   7.352   3.075
 1341W        W 5085   5.081   7.418  10.073
 1342W        W 5086   7.692   7.336   9.949
 1343W        W 5087   3.819   2.237   1.782
 1344W        W 5088   2.595   3.116  11.994
 1345W        W 5089   3.943   2.626   8.586
 1346W        W 5090   7.855   7.030   9.543
 1347W        W 5091   3.925   3.659  11.071
 1348W        W 5092   6.070   0.360   0.909
 1349W        W 5093   2.183   4.349   8.434
 1350W        W 5094   6.231   0.057  10.854
 1351W        W 5095   7.516   2.935   2.303
 1352W        W 5096   5.553   4.366  11.409
 1353W        W 5097   8.212   5.816   3.880
 1354W        W 5098   9.002   7.706   9.355
 1355W        W 5099   4.743   7.236   9.484
 1356W        W 5100   7.932   1.160   1.914
 1357W        W 5101   7.859   8.364   9.829
 1358W        W 5102   3.707   1.390   1.436
 1359W        W 5103   7.438   7.440  11.258
 1360W        W 5104   6.571   6.856   2.709
 1361W        W 5105   8.493   4.544   3.127
 1362W        W 5106   7.903   5.090   8.065
 1363W        W 5107   4.572  10.351  10.046
 1364W        W 5108   5.761   4.643   2.928
 1365W        W 5109   9.703  10.461   1.218
 1366W        W 5110  10.080   0.514  11.817
 1367W        W 5111   5.111   6.161  11.051
 1368W        W 5112   2.181   6.282   3.807
 1369W        W 5113   1.998   1.155   8.792
 1370W        W 5114   1.798   3.206  10.987
 1371W        W 5115   4.108   2.369   0.448
 1372W        W 5116   9.319   0.474   8.713
 1373W        W 5117   2.870   4.011   2.384
 1374W        W 5118   8.959   2.731  10.735
 1375W        W 5119   4.474   6.776  11.817
 1376W        W 5120   0.159   9.331  11.280
 1377W        W 5121  10.271   6.325   2.532
 1378W        W 5122   5.862   7.690   1.970
 1379W        W 5123   2.725   9.902   3.260
 1380W        W 5124   8.389   4.127   9.595
 1381W        W 5125   5.727   8.316   1.164
 1382W        W 5126   4.714   3.208   9.691
 1383W        W 5127   2.616   1.231  10.290
 1384W        W 5128   7.793  10.335   1.246
 1385W        W 5129   8.287   0.221   0.190
 1386W        W 5130   7.059   8.808   3.341
 1387W        W 5131   7.875   9.382   2.651
 1388W        W 5132   2.313   9.830   1.432
 1389W        W 5133   5.997   2.970  10.345
 1390W        W 5134   7.252   7.871   1.718
 1391W        W 5135   1.695   2.641   9.529
 1392W        W 5136   5.433   0.861  10.873
 1393W        W 5137   9.894   0.684   3.247
 1394W        W 5138   1.260   0.535  11.400
 1395W        W 5139   8.552   1.750   1.389
 1396W        W 5140   2.442   2.216   9.558
 1397W        W 5141   1.938   3.312   1.523
 1398W        W 5142   5.694   8.228   2.749
 1399W        W 5143   1.012   2.330   9.582
 1400W        W 5144   0.698   2.902  11.413
 1401W        W 5145   7.678   1.995  10.267
 1402W        W 5146   5.456   0.821   3.055
 1403W        W 5147   3.934   5.651  10.232
 1404W        W 5148   2.914   4.585  10.961
 1405W        W 5149   8.958   6.217   2.804
 1406W        W 5150   5.556   2.050   0.973
 1407W        W 5151   1.582   8.005  10.045
 1408W        W 5152   2.696   6.934   3.412
 1409W        W 5153   7.696   1.380   3.644
 1410W        W 5154   2.778   3.733   1.954
 1411W        W 5155  10.357   3.045   8.912
 1412W        W 5156   9.115   6.691   2.669
 1413W        W 5157   1.203   3.326   0.246
 1414W        W 5158   4.925   0.676   8.235
 1415W        W 5159   3.569   3.227  10.685
 1416W        W 5160   1.425   2.255   9.303
 1417W        W 5161   0.419   6.921  10.931
 1418W        W 5162   2.170   7.737   1.255
 1419W        W 5163   1.335   4.314   8.991
 1420W        W 5164   2.616   2.694   0.811
 1421W        W 5165   9.046   5.505   9.270
 1422W        W 5166   0.296   4.128  11.952
 1423W        W 5167   2.438   0.868   1.910
 1424W        W 5168   2.398   6.103   9.795
 1425W        W 5169   4.991   3.795   9.057
 1426W        W 5170   8.904   5.293   0.443
 1427W        W 5171   6.215   5.493   0.086
 1428W        W 5172   1.466   5.068   1.885
 1429W        W 5173   0.236   0.557   0.975
 1430W        W 5174   6.152   8.392  10.075
 1431W        W 5175   0.314   0.407  11.357
 1432W        W 5176   9.489   4.147   0.072
 1433W        W 5177   7.965   8.733   1.690
 1434W        W 5178  10.262   8.432   3.180
 1435W        W 5179   4.808   4.580   1.450
 1436W        W 5180   0.798   0.278   0.457
 1437W        W 5181   8.926   9.865   3.085
 1438W        W 5182   1.033  10.425   0.172
 1439W        W 5183   7.997   4.614   2.397
 1440W        W 5184   0.006  10.113   9.115
 1441W        W 5185   8.765   5.483   9.725
 1442W        W 5186   8.835   9.046  11.997
 1443W        W 5187   4.771   1.240   0.735
 1444W        W 5188   7.968   6.481   2.637
 1445W        W 5189   5.433   2.144  10.731
 1446W        W 5190   4.217   5.855  10.642
 1447W        W 5191   2.227   2.203  11.126
 1448W        W 5192   5.211   4.234   3.623
 1449W        W 5193   3.704   5.900   2.206
 1450W        W 5194   1.805   9.542   9.025
 1451W        W 5195   5.284   0.064  10.977
 1452W        W 5196   6.119   9.915   2.948
 1453W        W 5197   2.153   6.537   1.849
 1454W        W 5198   8.171   5.681   8.524
 1455W        W 5199   1.662   4.604   0.243
 1456W        W 5200   7.638   3.267  11.935
 1457W        W 5201   2.848   5.764  10.383
 1458W        W 5202   6.600   6.614   3.155
 1459W        W 5203   6.811   2.073  10.210
 1460W        W 5204   5.745   3.758   2.499
 1461W        W 5205   5.175   1.754   0.829
 1462W        W 5206   3.801   3.547   9.371
 1463W        W 5207  10.210   6.038   0.931
 1464W        W 5208   4.247   1.408   9.577
 1465W        W 5209   3.004   0.885   2.395
 1466W        W 5210   3.552   0.154  11.276
 1467W        W 5211   4.680   0.324   9.889
 1468W        W 5212   1.716   3.152   2.508
 1469W        W 5213   1.017   8.298   0.478
 1470W        W 5214   3.537   6.714   8.687
 1471W        W 5215   2.265   5.474  11.988
 1472W        W 5216   6.439   5.235   2.578
 1473W        W 5217   2.371   0.236   3.362
 1474W        W 5218   7.563   1.487   0.716
 1475W        W 5219   9.728  10.127  10.336
 1476W        W 5220   9.600   2.247   1.261
 1477W        W 5221   1.797   7.294  10.377
 1478W        W 5222   0.777   4.222   3.286
 1479W        W 5223   1.684   7.634  11.310
 1480W        W 5224   8.547   5.281   1.277
 1481W        W 5225   5.744   7.133   4.045
 1482W        W 5226   4.554   8.143   8.966
 1483W        W 5227   9.819   7.686   9.378
 1484W        W 5228   4.989   7.907   8.808
 1485W        W 5229   8.756   5.833   0.950
 1486W        W 5230   3.293   6.328   1.439
 1487W        W 5231   6.848   8.107   8.900
 1488W        W 5232   9.000   3.354   1.588
 1489W        W 5233   9.494   4.734  10.955
 1490W        W 5234   2.793   4.585   0.700
 1491W        W 5235   9.870   2.230   0.173
 1492W        W 5236  10.403   6.096   0.287
 1493W        W 5237   3.140   5.660   1.932
 1494W        W 5238   7.876   7.202  10.413
 1495W        W 5239   6.172   0.543  10.743
 1496W        W 5240   7.841   9.746  11.437
 1497W        W 5241   3.985   8.452   3.095
 1498W        W 5242   0.269   8.541   9.143
 1499W        W 5243   5.297   4.499   1.215
 1500W        W 5244   8.478   6.384   1.264
 1501W        W 5245   7.614   9.578   3.550
 1502W        W 5246   3.729  10.111   9.118
 1503W        W 5247   8.581   1.010   2.890
 1504W        W 5248   4.270   1.488  11.103
 1505W        W 5249   3.575   4.299   0.448
 1506W        W 5250   4.553   6.950   0.621
 1507W        W 5251   8.492   9.031   2.522
 1508W        W 5252   2.037   7.721   2.165
 1509W        W 5253   8.480   8.273  11.947
 1510W        W 5254   1.769   2.155   2.749
 1511W        W 5255   5.669   1.302   0.242
 1512W        W 5256   7.011   7.542   3.542
 1513W        W 5257   0.203   5.937  11.877
 1514W        W 5258   9.439   5.019   1.271
 1515W        W 5259   4.274   1.112  10.002
 1516W        W 5260   0.003   8.398  10.988
 1517W        W 5261   9.337   0.544  10.473
 1518W        W 5262   3.171   6.990   2.142
 1519W        W 5263   7.656   4.141   8.318
 1520W        W 5264   1.478   5.468  11.463
 1521W        W 5265   5.081   0.050   3.336
 1522W        W 5266   9.530   5.439   0.985
 1523W        W 5267   9.050   5.849   3.148
 1524W        W 5268   8.771   7.056   2.770
 1525W        W 5269   3.821   8.583   2.602
 1526W        W 5270   2.749  10.395  11.588
 1527W        W 5271   3.486   2.781  10.989
 1528W        W 5272   7.282   2.320   9.750
 1529W        W 5273   3.216   9.194   3.573
 1530W        W 5274  10.308   6.175   3.030
 1531W        W 5275   1.873   3.730  10.929
 1532W        W 5276   7.498   6.088   9.389
 1533W        W 5277   6.046   7.424   2.572
 1534W        W 5278   5.609   8.314   3.625
 1535W        W 5279   2.229   5.797   1.452
 1536W        W 5280   5.522   6.849   0.407
 1537W        W 5281   3.313   1.124   3.338
 1538W        W 5282  10.371   6.446   9.089
 1539W        W 5283   6.765   8.471   0.298
 1540W        W 5284   9.817   5.249  10.430
 1541W        W 5285   4.485   7.537   1.494
 1542W        W 5286   3.687   6.734   9.187
 1543W        W 5287   1.479   5.516   2.983
 1544W        W 5288   5.585   3.103   9.400
 1545W        W 5289   7.544   8.891   1.965
 1546W        W 5290  10.157   5.966   9.862
 1547W        W 5291   9.885   6.101   8.598
 1548W        W 5292   6.115   9.868  10.001
 1549W        W 5293   9.843   3.257  11.119
 1550W        W 5294   6.108   6.475  11.824
 1551W        W 5295   4.485   7.475   2.000
 1552W        W 5296   2.396   7.583  10.159
 1553W        W 5297   4.455   7.243  11.070
 1554W        W 5298   5.627   1.304   9.253
 1555W        W 5299   7.265   4.469   9.034
 1556W        W 5300   7.665   6.942   0.321
 1557W        W 5301  10.219   4.984   2.511
 1558W        W 5302   8.939   6.233   3.480
 1559W        W 5303   8.099   1.262  11.460
 1560W        W 5304   6.762   5.666   9.846
 1561W        W 5305   1.522   1.869   1.979
 1562W        W 5306   4.865   5.647   9.421
 1563W        W 5307   5.104   1.200   3.019
 1564W        W 5308   3.601   3.743   8.929
 1565W        W 5309   7.475   6.764  11.856
 1566W        W 5310   5.679   2.797   1.599
 1567W        W 5311   3.714   5.877   3.158
 1568W        W 5312   6.121   5.930  11.819
 1569W        W 5313   2.813   0.725  11.483
 1570W        W 5314   7.354   2.358  11.767
 1571W        W 5315   5.292   9.319   2.946
 1572W        W 5316   9.655   5.447   9.364
 1573W        W 5317   2.165   8.060  10.182
 1574W        W 5318   8.079   4.440   3.942
 1575W        W 5319   9.564   0.464   0.584
 1576W        W 5320   4.556   0.744   0.854
 1577W        W 5321   2.188   4.087   0.848
 1578W        W 5322   1.391   9.365  11.610
 1579W        W 5323   1.064   8.393  10.699
 1580W        W 5324   1.581   0.773   0.821
 1581W        W 5325   7.794   1.149   2.445
 1582W        W 5326   9.196   5.580   3.566
 1583W        W 5327   1.832   9.256   0.347
 1584W        W 5328   9.882   0.309   2.911
 1585W        W 5329   1.383   8.449   9.268
 1586W        W 5330   8.859   0.785   9.023
 1587W        W 5331   6.540   5.026  11.066
 1588W        W 5332   8.939   7.906   3.371
 1589W        W 5333   5.408   7.112   8.783
 1590W        W 5334   1.835   8.048   9.104
 1591W        W 5335   6.359   2.429  11.931
 1592W        W 5336   1.226   1.112   0.042
 1593W        W 5337   3.363   8.747   0.445
 1594W        W 5338   5.726   0.194  11.430
 1595W        W 5339   7.092   6.572   1.532
 1596W        W 5340   8.011   7.689  10.647
 1597W        W 5341   9.262   2.403  10.469
 1598W        W 5342   9.822   6.139   2.322
 1599W        W 5343   7.270   2.947   0.924
 1600W        W 5344   0.946   5.164   0.558
 1601W        W 5345  10.352   4.510   1.241
 1602W        W 5346   3.560   3.666   9.800
 1603W        W 5347   8.961   3.589   0.286
 1604W        W 5348   6.011   5.206  10.130
 1605W        W 5349   9.766   8.164  10.779
 1606W        W 5350   8.869   4.372   2.564
 1607W        W 5351   7.386   6.579   1.963
 1608W        W 5352   1.309   5.733   9.927
 1609W        W 5353   0.014   8.783   2.247
 1610W        W 5354   7.623   8.114   1.461
 1611W        W 5355   6.934   4.542  11.821
 1612W        W 5356   5.483   6.228   2.807
 1613W        W 5357   8.189   0.673   9.673
 1614W        W 5358   6.038   9.161   1.741
 1615W        W 5359   5.307   9.873   0.941
 1616W        W 5360   7.646   9.540  11.018
 1617W        W 5361   7.099   3.594   2.070
 1618W        W 5362   4.720   3.646   0.918
 1619W        W 5363   8.511   1.492   9.962
 1620W        W 5364   8.421   3.795   2.459
 1621W        W 5365   2.508   1.605   0.897
 1622W        W 5366   4.131   6.578   9.388
 1623W        W 5367   3.349   2.305   9.628
 1624W        W 5368   9.625   3.472  11.545
 1625W        W 5369   6.146   0.325   1.429
 1626W        W 5370   5.197   3.914   9.522
 1627W        W 5371   4.887   9.039   2.873
 1628W        W 5372   3.225   7.466   3.653
 1629W        W 5373   9.363   9.790   1.647
 1630W        W 5374   1.716  10.388   2.950
 1631W        W 5375   8.499   2.779   9.476
 1632W        W 5376   4.102   4.131   1.947
 1633W        W 5377   1.335   9.442   9.243
 1634W        W 5378   2.833   7.357   0.479
 1635W        W 5379   8.942   3.174  11.032
 1636W        W 5380   5.022  10.467   0.314
 1637W        W 5381   1.250   2.739   1.452
 1638W        W 5382   8.534   5.530  10.561
 1639W        W 5383   2.661   6.033   2.882
 1640W        W 5384   0.219   2.717   9.113
 1641W        W 5385   6.988   6.069   3.553
 1642W        W 5386   4.442   5.669  10.230
 1643W        W 5387   4.296   1.442   3.578
 1644W        W 5388   4.089   6.117   2.882
 1645W        W 5389   7.174   3.210  11.700
 1646W        W 5390   5.935   5.640  10.417
 1647W        W 5391   1.394   6.849   2.857
 1648W        W 5392   0.913   2.700  10.181
 1649W        W 5393   7.226   3.702   2.870
 1650W        W 5394   4.983   5.170   0.302
 1651W        W 5395   7.046   0.368   1.683
 1652W        W 5396   6.037   2.443   2.220
 1653W        W 5397   5.596   2.439   1.952
 1654W        W 5398   7.850   5.616   8.927
 1655W        W 5399   2.170   7.792  11.463
 1656W        W 5400   8.565   0.715   1.500
 1657W        W 5401   5.520  10.236  11.435
 1658W        W 5402   4.764   8.087  11.688
 1659W        W 5403   4.626   6.006   1.159
 1660W        W 5404  10.425   3.084   2.876
 1661W        W 5405   1.916   1.340   9.256
 1662W        W 5406   4.763   3.622  10.473
 1663W        W 5407   0.528   5.209   0.895
 1664W        W 5408   0.535   9.361   0.701
 1665W        W 5409   9.807   2.360   9.779
 1666W        W 5410   2.740   7.871   2.835
 1667W        W 5411   1.230   6.564   2.308
 1668W        W 5412   0.996   9.425   8.399
 1669W        W 5413   6.135   1.053  11.451
 1670W        W 5414   2.190   6.823   2.371
 1671W        W 5415   2.132   4.313   0.131
 1672W        W 5416   0.417   6.536   8.978
 1673W        W 5417   3.937   3.177   3.588
 1674W        W 5418   5.463   3.376   3.661
 1675W        W 5419   4.720   1.275   2.654
 1676W        W 5420   5.180   1.207   1.487
 1677W        W 5421   3.845   8.922   3.015
 1678W        W 5422   1.601   9.183  10.485
 1679W        W 5423   1.116   8.514   1.426
 1680W        W 5424   6.210   1.400   2.312
 1681W        W 5425   3.831   2.806   0.553
 1682W        W 5426   7.564   3.086   9.169
 1683W        W 5427   1.359   2.445  11.579
 1684W        W 5428   5.123   2.227   0.637
 1685W        W 5429   6.368   7.300  10.409
 1686W        W 5430   9.819   1.799  11.450
 1687W        W 5431   1.010   1.391   1.424
 1688W        W 5432   6.379   1.986   1.538
 1689W        W 5433   5.656   8.521   3.163
 1690W        W 5434   4.198   6.753   2.395
 1691W        W 5435   2.287   0.897   2.816
 1692W        W 5436   5.650   3.271   1.785
 1693W        W 5437   7.367   6.846   0.699
 1694W        W 5438   4.477   2.177   0.074
 1695W        W 5439   2.738   5.649  11.247
 1696W        W 5440   7.610   4.079   3.025
 1697W        W 5441  10.241   5.723  11.800
 1698W        W 5442   8.062   1.658  11.787
 1699W        W 5443   5.641   3.146   3.253
 1700W        W 5444   7.908   1.945  10.737
 1701W        W 5445   2.104   4.199   1.841
 1702W        W 5446   5.547  10.259   0.360
 1703W        W 5447   2.236  10.384   9.778
 1704W        W 5448   5.225   2.052   2.676
 1705W        W 5449   2.319   5.153   0.374
 1706W        W 5450   4.782   7.159   8.995
 1707W        W 5451   2.844   9.029   9.041
 1708W        W 5452  10.090   9.378   1.691
 1709W        W 5453   6.941   6.571   0.021
 1710W        W 5454   5.667   2.207   0.497
 1711W        W 5455   9.667   1.798  10.950
 1712W        W 5456   5.518   7.391   1.247
 1713W        W 5457   0.291   4.698   0.942
 1714W        W 5458   9.864   8.068  11.270
 1715W        W 5459   7.330   9.657  11.505
 1716W        W 5460   4.184   9.126   0.728
 1717W        W 5461   9.272   5.456   0.100
 1718W        W 5462   4.637   8.209   2.705
 1719W        W 5463   0.248   2.879  10.895
 1720W        W 5464   6.395   2.480   0.867
 1721W        W 5465   3.351   0.728  10.010
 1722W        W 5466   2.789   1.404  11.878
 1723W        W 5467   0.620   5.076   2.765
 1724W        W 5468  10.261   3.208   0.303
 1725W        W 5469   2.712   7.216   9.805
 1726W        W 5470   2.919   9.041  10.472
 1727W        W 5471   2.858   6.986   0.113
 1728W        W 5472   7.679   7.969   0.978
 1729W        W 5473   0.845  10.107   2.004
 1730W        W 5474   3.948   5.205  11.461
 1731W        W 5475   6.166   2.415   1.366
 1732W        W 5476  10.245   6.507  10.633
 1733W        W 5477   6.253   8.552   0.346
 1734W        W 5478   4.155   6.878   0.227
 1735W        W 5479   2.149   6.087  10.792
 1736W        W 5480   2.610   5.530   2.211
 1737W        W 5481  10.445   6.995  10.746
 1738W        W 5482   5.095   3.108  10.892
 1739W        W 5483   3.076   1.844   1.691
 1740W        W 5484   7.434   7.158   2.712
 1741W        W 5485   6.094   3.394   2.427
 1742W        W 5486   0.263   6.204  11.415
 1743W        W 5487   7.514   8.614   1.464
 1744W        W 5488   9.134   7.100   2.382
 1745W        W 5489   8.678   4.804   0.389
 1746W        W 5490   1.148   7.569   9.379
 1747W        W 5491   4.345   9.940   0.882
 1748W        W 5492   2.468   9.894  11.917
 1749W        W 5493   4.169   2.243   1.419
 1750W        W 5494   7.709   4.828  11.783
 1751W        W 5495   9.165   3.497   2.912
 1752W        W 5496   2.820   6.101   8.999
 1753W        W 5497   0.480   7.366   0.346
 1754W        W 5498   1.518   1.949   9.734
 1755W        W 5499   9.132   7.539   0.798
 1756W        W 5500  10.449   0.786   2.970
 1757W        W 5501   4.968   3.328   1.327
 1758W        W 5502   2.301   3.515  11.560
 1759W        W 5503   9.865   1.354   2.627
 1760W        W 5504   4.987   1.241   8.998
 1761W        W 5505   4.327   3.738   2.181
 1762W        W 5506   9.851   8.358  11.831
 1763W        W 5507   7.437   4.056   1.642
 1764W        W 5508   2.656   3.536   2.410
 1765W        W 5509   4.579   7.242   3.419
 1766W        W 5510   3.285   1.419   9.591
 1767W        W 5511   0.390   8.062   9.015
 1768W        W 5512   8.361   7.035   3.114
 1769W        W 5513   5.881   8.920   8.825
 1770W        W 5514   3.526   6.410  11.934
 1771W        W 5515   2.474   5.205  11.145
 1772W        W 5516   2.861   9.895   1.280
 1773W        W 5517   3.540   4.512   1.378
 1774W        W 5518   7.006  10.461  11.354
 1775W        W 5519   2.884   7.657  10.054
 1776W        W 5520   9.403   2.647   2.043
 1777W        W 5521   5.137   8.308  10.564
 1778W        W 5522   2.702   8.607   8.661
 1779W        W 5523   0.586   3.507   1.631
 1780W        W 5524   5.481   4.701  10.138
 1781W        W 5525   2.295   7.275   2.685
 1782W        W 5526   4.094   6.672   8.868
 1783W        W 5527   5.371   7.960   1.263
 1784W        W 5528   0.051   5.723  11.413
 1785W        W 5529   7.496   0.737   8.994
 1786W        W 5530   5.518   2.662   9.142
 1787W        W 5531   5.723   9.557   0.941
 1788W        W 5532   3.034   2.212   1.343
 1789W        W 5533   8.891   8.561  11.849
 1790W        W 5534   3.291   1.445  11.092
 1791W        W 5535   2.841   6.253  10.516
 1792W        W 5536   8.315   1.972   3.940
 1793W        W 5537   1.139   6.977   0.468
 1794W        W 5538   5.959   6.969   1.370
 1795W        W 5539   2.115   4.278   2.839
 1796W        W 5540   7.160   8.177   1.262
 1797W        W 5541   5.710   5.590  10.910
 1798W        W 5542   4.181   2.884   0.182
 1799W        W 5543   5.932   1.212   1.922
 1800W        W 5544   6.160   6.162   0.265
 1801W        W 5545   5.195   2.872   0.292
 1802W        W 5546  10.498   2.126  11.059
 1803W        W 5547   3.080   2.705  11.310
 1804W        W 5548   6.569   1.881   2.535
 1805W        W 5549   9.845   9.868   1.375
 1806W        W 5550   4.854   9.867  11.689
 1807W        W 5551   7.417   7.291  11.764
 1808W        W 5552   6.072   1.614   9.291
 1809W        W 5553   9.482   8.505   2.255
 1810W        W 5554   3.888   3.645  10.549
 1811W        W 5555   4.904   7.491  11.102
 1812W        W 5556   3.709   9.566   1.486
 1813W        W 5557   3.588   2.671   3.025
 1814W        W 5558   5.160   3.409   9.400
 1815W        W 5559   4.574   6.896   1.172
 1816W        W 5560  10.485   9.122  11.904
 1817W        W 5561   1.916   0.349   9.527
 1818W        W 5562   3.557   9.016   1.364
 1819W        W 5563   6.155   0.629   9.528
 1820W        W 5564   2.049   3.785   1.258
 1821W        W 5565   3.538   2.231   1.344
 1822W        W 5566   5.558   6.061   9.734
 1823W        W 5567   4.213   9.141   9.841
 1824W        W 5568   5.742  10.083   0.819
 1825W        W 5569   8.570   8.578   2.309
 1826W        W 5570   7.059   0.992  11.414
 1827W        W 5571   9.574   2.687   2.533
 1828W        W 5572   0.142   4.078   2.333
 1829W        W 5573   1.687   2.373   9.977
 1830W        W 5574   6.207   7.497   9.972
 1831W        W 5575   6.551   4.531   0.138
 1832W        W 5576   7.671   7.512   2.255
 1833W        W 5577  10.171   2.315   2.340
 1834W        W 5578   6.473   2.806   9.487
 1835W        W 5579   7.554   3.955   0.735
 1836W        W 5580   4.718   0.251   2.986
 1837W        W 5581   8.643   1.733   2.737
 1838W        W 5582   4.067   6.474  11.938
 1839W        W 5583   8.880   7.051   3.259
 1840W        W 5584   6.880   6.814   0.550
 1841W        W 5585   2.780   9.402   1.410
 1842W        W 5586   4.420   4.576   2.795
 1843W        W 5587   7.933   2.793   0.359
 1844W        W 5588   6.122   8.958   2.413
 1845W        W 5589   5.053  10.426  11.434
 1846W        W 5590   1.708   3.784   0.764
 1847W        W 5591   2.171   2.630   9.740
 1848W        W 5592   5.619   7.054   3.288
 1849W        W 5593   0.699   4.874   9.556
 1850W        W 5594   1.202   9.564   2.181
 1851W        W 5595   3.855   7.115   3.249
 1852W        W 5596   6.952   3.288   0.697
 1853W        W 5597   4.354   4.740   1.289
 1854W        W 5598  10.172   8.273  10.474
 1855W        W 5599   8.866   5.025   8.975
 1856W        W 5600   0.989   7.952   8.625
 1857W        W 5601   3.692   4.930   2.321
 1858W        W 5602   1.416   4.099  11.484
 1859W        W 5603   7.928   9.045  11.847
 1860W        W 5604   7.158   9.798   1.766
 1861W        W 5605  10.419   9.938   3.211
 1862W        W 5606   8.468   4.686   2.632
 1863W        W 5607   0.326   2.699   1.719
 1864W        W 5608  10.362   1.145   1.864
 1865W        W 5609   9.712   8.732   1.018
 1866W        W 5610   6.964   1.663   3.429
 1867W        W 5611   2.077   2.719  10.945
 1868W        W 5612   0.276   0.463   3.285
 1869W        W 5613   4.539   6.768  11.269
 1870W        W 5614   5.162   3.502   2.728
 1871W        W 5615   3.669   6.285   9.463
 1872W        W 5616   1.757   2.744   2.211
 1873W        W 5617   9.519   5.643   3.160
 1874W        W 5618   5.821   3.780   8.627
 1875W        W 5619   3.056   0.858   1.144
 1876W        W 5620   5.156   9.268  10.772
 1877W        W 5621   8.533   8.147   2.569
 1878W        W 5622   5.910   2.972   9.778
 1879W        W 5623   0.220   5.533   2.891
 1880W        W 5624   2.312   4.218   1.362
 1881W        W 5625   6.586   2.007   0.814
 1882W        W 5626   1.816   9.896  10.933
 1883W        W 5627   0.668   8.046   1.020
 1884W        W 5628  10.365   2.682   9.835
 1885W        W 5629   1.712   1.783  11.591
 1886W        W 5630   0.941   7.784   1.908
 1887W        W 5631   1.240   3.765   0.528
 1888W        W 5632   6.285   2.628   9.927
 1889W        W 5633   0.814   1.868  10.279
 1890W        W 5634   8.302   6.108   0.868
 1891W        W 5635   1.768   8.107   1.250
 1892W        W 5636   4.821   4.004   9.871
 1893W        W 5637   9.314   0.690   1.802
 1894W        W 5638  10.450   7.042   3.163
 1895W        W 5639   3.180   5.649  11.993
 1896W        W 5640   5.753   7.725   2.879
 1897W        W 5641   1.741   3.987   8.900
 1898W        W 5642   9.378   9.848   3.311
 1899W        W 5643   7.495   8.719   9.982
 1900W        W 5644   3.799   7.348   0.774
 1901W        W 5645   8.550   0.441   9.266
 1902W        W 5646   3.657   6.078   0.694
 1903W        W 5647   2.820   7.183   8.939
 1904W        W 5648   6.092   4.418   9.468
 1905W        W 5649   3.436   2.746   8.507
 1906W        W 5650   3.185   1.798  11.449
 1907W        W 5651   9.493   5.248   1.768
 1908W        W 5652  10.255   7.710   9.104
 1909W        W 5653   3.842   6.110   0.218
 1910W        W 5654   6.442   2.361   2.507
 1911W        W 5655   4.970   6.252   9.069
 1912W        W 5656   5.664   4.074   0.691
 1913W        W 5657   1.213   7.884   0.272
 1914W        W 5658   4.454   0.014   9.565
 1915W        W 5659   0.511   8.320  10.821
 1916W        W 5660   4.200   4.867   1.776
 1917W        W 5661   1.729   6.598   2.497
 1918W        W 5662  10.228   5.668   1.354
 1919W        W 5663   6.282   3.628   0.188
 1920W        W 5664   7.685   9.439   2.161
 1921W        W 5665   8.131   6.552   9.272
 1922W        W 5666   7.026   5.800   0.477
 1923W        W 5667   6.457   4.882   2.963
 1924W        W 5668   6.454   6.364  10.317
 1925W        W 5669  10.354   2.660   0.407
 1926W        W 5670   6.039   1.128   9.523
 1927W        W 5671   1.397   8.965   9.552
 1928W        W 5672  10.428   4.625   3.112
 1929W        W 5673   9.528   5.868   0.311
 1930W        W 5674   3.685   9.989  11.068
 1931W        W 5675   5.218   0.381   2.946
 1932W        W 5676   6.376   1.915   9.600
 1933W        W 5677   3.109   2.107   3.657
 1934W        W 5678   4.529   3.592   9.978
 1935W        W 5679   8.340   8.057  10.498
 1936W        W 5680   2.913   3.695  11.053
 1937W        W 5681   9.909   6.195   0.526
 1938W        W 5682   0.796   2.703   1.969
 1939W        W 5683   0.198   1.930   0.506
 1940W        W 5684   7.991   4.228   0.298
 1941W        W 5685   8.042   4.394   8.632
 1942W        W 5686   9.874   3.576   8.918
 1943W        W 5687   9.454   4.596   0.969
 1944W        W 5688  10.475  10.457   3.470
 1945W        W 5689   3.136   7.832   9.048
 1946W        W 5690   3.361   0.841   0.300
 1947W        W 5691  10.342   0.018   8.834
 1948W        W 5692  10.000   1.227   8.630
 1949W        W 5693   6.100   7.452   9.088
 1950W        W 5694   7.477   3.111   0.421
 1951W        W 5695   6.171   1.222   0.974
 1952W        W 5696   5.069   1.608   1.775
 1953W        W 5697  10.409   2.177   2.814
 1954W        W 5698   5.682   3.713   1.479
 1955W        W 5699   6.604   2.539  10.361
 1956W        W 5700   1.553   9.095   3.237
 1957W        W 5701   8.009   0.237   1.458
 1958W        W 5702   0.828   0.272   2.857
 1959W        W 5703   1.370   3.683  11.069
 1960W        W 5704   6.876   2.891   9.052
 1961W        W 5705   4.791   9.438  10.466
 1962W        W 5706   0.225   6.958   0.502
 1963W        W 5707   0.966   5.642   1.688
 1964W        W 5708   2.333   5.564   1.000
 1965W        W 5709   4.732   6.612   8.598
 1966W        W 5710   8.561   3.673   1.576
 1967W        W 5711   2.639   0.846  11.047
 1968W        W 5712   5.567   7.413   0.174
 1969W        W 5713   0.701   5.094   8.959
 1970W        W 5714   1.316   1.477   9.841
 1971W        W 5715   1.791  10.367   9.045
 1972W        W 5716   5.761   5.423   0.628
 1973W        W 5717   4.950   6.986  10.323
 1974W        W 5718   9.841   6.010   2.856
 1975W        W 5719   7.165   4.125   9.745
 1976W        W 5720  10.495   5.546   3.372
 1977W        W 5721   5.410   8.057   3.207
 1978W        W 5722   7.953   7.361   0.392
 1979W        W 5723   4.785   4.956   9.406
 1980W        W 5724   5.369   6.211   8.747
 1981W        W 5725   6.645   4.956   0.383
 1982W        W 5726  10.235   4.572   2.125
 1983W        W 5727   8.380   1.291   0.873
 1984W        W 5728   0.050   6.676  11.578
 1985W        W 5729   8.226   4.142   0.751
 1986W        W 5730   2.613   4.462   9.261
 1987W        W 5731   4.599   2.656   9.317
 1988W        W 5732   1.783   5.642   1.659
 1989W        W 5733   4.277   7.949   1.933
 1990W        W 5734  10.463   4.566  11.933
 1991W        W 5735   3.631   5.401  11.815
 1992W        W 5736   1.702   3.806   9.781
 1993W        W 5737   2.942   0.721   0.646
 1994W        W 5738   6.005   1.609   9.783
 1995W        W 5739   0.461   4.278   8.704
 1996W        W 5740  10.413   2.328   9.067
 1997W        W 5741   4.499   3.591   8.089
 1998W        W 5742   9.505  10.345   0.739
 1999W        W 5743   9.271   8.793   1.869
 2000W        W 5744   8.763   5.277   3.322
 2001W        W 5745   8.947  10.275   2.770
 2002W        W 5746  10.188   7.874  10.896
 2003W        W 5747   9.710   9.145   8.429
 2004W        W 5748   0.546   6.964   2.414
 2005W        W 5749   3.061   7.623   1.871
 2006W        W 5750  10.277   5.828   2.652
 2007W        W 5751   2.321   9.924   2.449
 2008W        W 5752   4.670   7.637   9.778
 2009W        W 5753   7.829   4.616   9.905
 2010W        W 5754   5.063   5.159   1.905
 2011W        W 5755   0.521   6.422  10.995
 2012W        W 5756   6.822   3.183   3.110
 2013W        W 5757   2.135   2.568  11.467
 2014W        W 5758   5.493   6.917   1.022
 2015W        W 5759   2.503  10.346   3.058
 2016W        W 5760   8.506   3.578   0.991
 2017W        W 5761   6.032   6.994   9.977
 2018W        W 5762   3.692   3.082  11.949
 2019W        W 5763   0.353  10.494   9.077
 2020W        W 5764   6.566  10.093   1.917
 2021W        W 5765   1.016   9.887   9.061
 2022W        W 5766   5.996   4.196   8.889
 2023W        W 5767   2.113   9.855  11.520
 2024W        W 5768   6.597   9.504   1.097
 2025W        W 5769   8.750   6.457   0.314
 2026W        W 5770   1.293   3.413  10.412
 2027W        W 5771   8.078   0.023  10.971
 2028W        W 5772   0.950   8.645   0.137
 2029W        W 5773   1.451   5.358   8.888
 2030W        W 5774   6.640   8.594   0.782
 2031W        W 5775   3.138   8.044   8.571
 2032W        W 5776   3.412   3.116   2.239
 2033W        W 5777   0.756   5.186   1.747
 2034W        W 5778   1.030   9.479   1.404
 2035W        W 5779   8.812   5.552  11.305
 2036W        W 5780   2.244   0.773   1.433
 2037W        W 5781   3.274   1.667   8.743
 2038W        W 5782   2.291   4.709   2.168
 2039W        W 5783   1.714   6.680   9.334
 2040W        W 5784  10.342  10.331  11.394
 2041W        W 5785   0.290   1.782   1.377
 2042W        W 5786   0.270   2.326   3.833
 2043W        W 5787   5.338   8.569   8.445
 2044W        W 5788   8.579   0.803   0.988
 2045W        W 5789   1.945   0.424   3.094
 2046W        W 5790   9.839   5.162  11.373
 2047W        W 5791   6.686   4.439   2.780
 2048W        W 5792   5.211   0.991   0.195
 2049W        W 5793   1.929   2.200   3.227
 2050W        W 5794   0.272   6.107   1.781
 2051W        W 5795   2.377   6.122   9.290
 2052W        W 5796   3.488   9.637   3.603
 2053W        W 5797   3.179   4.578  10.076
 2054W        W 5798   1.793   2.280  10.837
 2055W        W 5799   9.244   5.416  11.570
 2056W        W 5800  10.415   1.300   3.142
 2057W        W 5801   8.639   3.599   2.899
 2058W        W 5802   4.530   6.684  10.352
 2059W        W 5803   6.992   3.240   0.185
 2060W        W 5804   4.249  10.293   9.159
 2061W        W 5805   3.075   1.179  11.497
 2062W        W 5806   2.140   6.954   0.481
 2063W        W 5807   7.491   2.591  11.333
 2064W        W 5808   6.115   3.981   9.734
 2065W        W 5809   6.995   8.693  11.875
 2066W        W 5810   4.640   3.619   3.445
 2067W        W 5811   2.670   5.279  10.275
 2068W        W 5812   8.492   7.196  10.952
 2069W        W 5813   3.831   3.577   0.039
 2070W        W 5814   5.167   3.525   3.236
 2071W        W 5815   0.145  10.043  10.002
 2072W        W 5816   1.658   5.158   2.694
 2073W        W 5817   1.784   1.924   8.678
 2074W        W 5818   4.307   7.042   9.195
 2075W        W 5819   9.817   9.984   1.869
 2076W        W 5820   7.004   2.222   2.203
 2077W        W 5821   5.718   6.836  10.896
 2078W        W 5822   2.083   4.840   0.031
 2079W        W 5823   7.888   1.665   2.484
 2080W        W 5824   5.949   5.535   1.480
 2081W        W 5825   1.121   4.519  11.452
 2082W        W 5826   2.737   5.568  11.742
 2083W        W 5827   2.726   8.503  11.228
 2084W        W 5828   7.079   1.751   1.955
 2085W        W 5829   1.336   1.134   1.149
 2086W        W 5830   4.220   2.310   3.524
 2087W        W 5831   0.550   7.801   9.521
 2088W        W 5832   2.967   9.989  11.850
 2089W        W 5833   1.326   0.912  11.059
 2090W        W 5834   5.611   4.644   9.637
 2091W        W 5835   7.942   3.636   2.426
 2092W        W 5836   8.969   5.369   0.982
 2093W        W 5837   7.900   2.160  11.889
 2094W        W 5838   0.759   5.990   3.444
 2095W        W 5839   3.860   7.126   2.700
 2096W        W 5840   3.596   4.181   8.588
 2097W        W 5841   8.935   2.724   9.206
 2098W        W 5842   7.751   2.808   0.843
 2099W        W 5843   4.701   4.018  11.920
 2100W        W 5844   0.867  10.151   9.502
 2101W        W 5845   8.801   7.912  10.632
 2102W        W 5846   5.214   2.321   3.138
 2103W        W 5847   1.863   3.083   3.510
 2104W        W 5848   3.312   9.662  10.893
 2105W        W 5849   8.614   0.910  11.831
 2106W        W 5850  10.413   4.653  10.835
 2107W        W 5851   7.122   7.985   2.655
 2108W        W 5852   4.201   9.348   3.315
 2109W        W 5853   2.354   3.155   3.393
 2110W        W 5854   7.682   1.294  10.998
 2111W        W 5855   9.431   3.104   1.822
 2112W        W 5856   7.434   7.012   3.215
 2113W        W 5857   5.445   9.408   1.993
 2114W        W 5858   4.763   0.788   0.268
 2115W        W 5859   6.058   6.068   1.544
 2116W        W 5860   5.576   4.068   8.251
 2117W        W 5861   7.639   1.528  10.034
 2118W        W 5862   3.295   7.215   1.674
 2119W        W 5863   0.319   2.841   0.292
 2120W        W 5864   4.691   1.447  10.782
 2121W        W 5865   2.272   6.505   2.766
 2122W        W 5866   1.207   7.978  10.946
 2123W        W 5867   7.446  10.092  10.256
 2124W        W 5868   8.092   0.611   1.075
 2125W        W 5869   8.429   4.054   8.689
 2126W        W 5870   7.059   3.846   3.318
 2127W        W 5871   1.601   9.746   0.304
 2128W        W 5872   8.370   8.444   9.018
 2129W        W 5873   1.433   9.406   1.708
 2130W        W 5874   1.636   4.131   1.630
 2131W        W 5875   7.491   8.124  10.593
 2132W        W 5876   9.018   6.646   1.152
 2133W        W 5877   1.474   1.375   3.637
 2134W        W 5878   2.794   2.198   0.863
 2135W        W 5879   8.924   6.172   1.327
 2136W        W 5880   1.278   3.807  10.083
 2137W        W 5881   0.359   0.503   2.784
 2138W        W 5882   0.449   8.773   9.576
 2139W        W 5883   7.926   0.635   3.358
 2140W        W 5884   9.117   0.775   9.908
 2141W        W 5885   8.074   2.850  10.232
 2142W        W 5886   1.103   6.332   3.640
 2143W        W 5887   8.494   1.893   9.620
 2144W        W 5888   9.547  10.415   2.873
 2145W        W 5889   7.045   2.402   0.205
 2146W        W 5890   8.809   0.244   2.338
 2147W        W 5891   1.824   8.740   0.419
 2148W        W 5892  10.314   8.992   2.703
 2149W        W 5893   1.017   5.296  11.258
 2150W        W 5894   3.174   2.822   9.884
 2151W        W 5895   0.709   1.753   3.051
 2152W        W 5896   7.465   7.402   0.271
 2153W        W 5897   9.969   4.708   2.892
 2154W        W 5898   4.689   3.746   0.393
 2155W        W 5899   9.918   1.220   0.792
 2156W        W 5900   9.280   0.284  11.411
 2157W        W 5901   1.325   9.892   9.494
 2158W        W 5902   2.900   4.815   8.574
 2159W        W 5903   9.067   6.699   0.641
 2160W        W 5904   8.956   8.431   3.103
 2161W        W 5905   8.084   3.546  11.826
 2162W        W 5906   6.819   8.991   0.239
 2163W        W 5907   6.131   9.530   1.365
 2164W        W 5908   7.941   6.001   2.390
 2165W        W 5909   7.767   7.628  11.971
 2166W        W 5910   4.403   2.744   3.329
 2167W        W 5911   4.090   5.023   0.913
 2168W        W 5912   3.333   9.921   1.495
 2169W        W 5913   7.695   9.277   9.028
 2170W        W 5914  10.328   8.468   2.610
 2171W        W 5915   5.250   1.455   0.002
 2172W        W 5916   7.064   0.396  10.429
 2173W        W 5917   2.598   2.057   1.587
 2174W        W 5918   4.446   2.759   0.599
 2175W        W 5919   1.274   6.850  11.969
 2176W        W 5920   2.734   1.226   2.727
 2177W        W 5921   4.212   4.798   2.335
 2178W        W 5922  10.496   4.715   1.703
 2179W        W 5923   7.221  10.281   2.885
 2180W        W 5924   4.626   8.967  10.620
 2181W        W 5925   9.303   5.735   1.723
 2182W        W 5926   8.468   2.352   0.361
 2183W        W 5927   3.372   9.147   2.915
 2184W        W 5928   3.122   2.723   2.106
 2185W        W 5929  10.342   2.613   3.107
 2186W        W 5930   5.080   9.803   1.970
 2187W        W 5931  10.259   9.703  10.012
 2188W        W 5932   5.587   9.297   0.257
 2189W        W 5933   1.765   8.655   2.635
 2190W        W 5934   7.027   2.832   0.483
 2191W        W 5935   9.875   8.586   9.545
 2192W        W 5936   5.605   9.986   2.735
 2193W        W 5937   7.045   4.943   9.134
 2194W        W 5938   1.788   6.715  11.785
 2195W        W 5939   8.048   5.042  10.067
 2196W        W 5940   2.532   8.068   9.848
 2197W        W 5941   0.321   6.887   1.377
 2198W        W 5942   5.036   4.928  11.019
 2199W        W 5943   8.584   1.470  11.871
 2200W        W 5944   5.858   9.855  11.473
 2201W        W 5945   8.229   7.787   1.828
 2202W        W 5946   9.650   1.348   2.161
 2203W        W 5947   8.309   0.734   0.209
 2204W        W 5948   7.078  10.166   0.762
 2205W        W 5949   9.203   5.131   3.137
 2206W        W 5950   7.026   9.866  10.527
 2207W        W 5951   2.771   0.731   2.830
 2208W        W 5952   9.966   9.375  11.302
 2209W        W 5953   3.987   0.782   0.776
 2210W        W 5954   5.120   7.088  11.524
 2211W        W 5955   8.036   2.292   9.017
 2212W        W 5956   9.776   1.842   0.495
 2213W        W 5957   4.397   7.061   8.667
 2214W        W 5958   8.532   0.067   2.734
 2215W        W 5959   8.142   7.318   2.195
 2216W        W 5960   4.635   2.577  10.269
 2217W        W 5961   2.828   1.739   1.265
 2218W        W 5962   0.336   1.772  11.549
 2219W        W 5963   1.573   2.779  10.795
 2220W        W 5964   4.134   5.260   2.570
 2221W        W 5965   4.110   4.380  10.365
 2222W        W 5966   4.151   8.330   9.564
 2223W        W 5967   2.030   1.538   8.460
 2224W        W 5968   6.008   2.451  11.519
 2225W        W 5969   9.038   3.831   1.736
 2226W        W 5970  10.357  10.435   0.681
 2227W        W 5971   8.387   5.198   0.271
 2228W        W 5972   8.440   7.443   2.728
 2229W        W 5973   7.624   2.723   2.780
 2230W        W 5974   5.626   8.489   1.915
 2231W        W 5975   3.730   9.360   1.023
 2232W        W 5976   0.695   2.581  11.001
 2233W        W 5977   6.169   9.872   0.988
 2234W        W 5978   6.069  10.357   1.193
 2235W        W 5979   8.335   8.553  10.599
 2236W        W 5980   2.409   1.262  10.920
 2237W        W 5981   8.286  10.296   1.324
 2238W        W 5982  10.105   7.478   0.923
 2239W        W 5983   7.121   5.127   1.628
 2240W        W 5984   8.575   3.736  10.459
 2241W        W 5985   6.935   7.485  11.203
 2242W        W 5986   1.025   5.681  11.626
 2243W        W 5987   7.465   4.309   1.158
 2244W        W 5988   3.078   3.258  10.517
 2245W        W 5989   8.405   8.793  11.876
 2246W        W 5990   2.495   2.788  10.608
 2247W        W 5991   9.911   6.043  11.494
 2248W        W 5992   1.028   7.143   9.098
 2249W        W 5993   5.672   1.786  11.507
 2250W        W 5994   6.504   7.104   3.202
 2251W        W 5995   8.424   7.886   3.560
 2252W        W 5996   1.874   5.602   0.752
 2253W        W 5997   2.628   6.474   3.630
 2254W        W 5998   9.489   0.322   3.293
 2255W        W 5999   3.697   4.754   1.837
 2256W        W 6000   8.476   0.957   1.962
 2257W        W 6001   3.224   6.034   3.254
 2258W        W 6002   1.169   2.261  10.067
 2259W        W 6003   4.292   9.882   1.496
 2260W        W 6004   3.304   5.695   0.745
 2261W        W 6005   5.427   0.883  10.083
 2262W        W 6006   6.393   5.007   9.392
 2263W        W 6007   3.618   5.376  11.130
 2264W        W 6008   0.250   5.088   3.317
 2265W        W 6009   2.328   6.059   1.892
 2266W        W 6010   3.045   8.138   9.944
 2267W        W 6011   7.950   3.322   9.413
 2268W        W 6012   7.385   4.041  11.340
 2269W        W 6013   2.324   6.515   0.812
 2270W        W 6014   4.433   4.608   9.554
 2271W        W 6015   8.468   7.704  10.994
 2272W        W 6016   5.733   1.207   2.380
 2273W        W 6017   9.195   0.279  10.061
 2274W        W 6018   9.946   6.958   0.284
 2275W        W 6019   6.286   6.196  11.395
 2276W        W 6020   5.482   5.869  11.286
 2277W        W 6021   5.052   6.970   9.807
 2278W        W 6022   2.840   7.491  11.976
 2279W        W 6023   8.087   4.511   1.897
 2280W        W 6024   8.934   6.141   9.450
 2281W        W 6025   7.179   1.691   1.468
 2282W        W 6026  10.352   9.909   2.199
 2283W        W 6027   5.565   7.074   9.677
 2284W        W 6028   1.431   7.546   9.798
 2285W        W 6029   6.579   6.224  11.828
 2286W        W 6030   7.173   9.212  11.317
 2287W        W 6031   5.248   7.913  11.854
 2288W        W 6032   2.887   1.057   0.270
 2289W        W 6033   3.388   0.379  11.732
 2290W        W 6034   4.921   4.403   9.534
 2291W        W 6035  10.162   1.465   2.207
 2292W        W 6036   9.375   8.127  11.115
 2293W        W 6037   8.020   0.285   2.480
 2294W        W 6038   1.593   3.366  10.008
 2295W        W 6039   1.526   8.252   0.549
 2296W        W 6040   7.053   3.084   2.188
 2297W        W 6041   0.102   4.009  10.113
 2298W        W 6042   9.217   1.402   2.482
 2299W        W 6043   6.464   2.435   1.883
 2300W        W 6044   0.330   6.473   0.399
 2301W        W 6045   1.244   6.928   3.362
 2302W        W 6046   1.982  10.448   0.758
 2303W        W 6047   2.832   6.416   8.575
 2304W        W 6048   0.440   2.268   8.959
 2305W        W 6049   8.005   4.170   2.663
 2306W        W 6050   7.020   8.896   9.087
 2307W        W 6051   1.157   5.047   1.476
 2308W        W 6052   9.611  10.337  10.899
 2309W        W 6053   8.366  10.474   2.255
 2310W        W 6054   1.589   5.181   0.867
 2311W        W 6055   9.492   0.900   3.020
 2312W        W 6056   0.747   3.397   2.757
 2313W        W 6057   2.738   8.491   1.371
 2314W        W 6058  10.488   2.201   3.398
 2315W        W 6059   1.265   3.186  10.862
 2316W        W 6060   0.303   2.371  10.751
 2317W        W 6061   3.595   4.091   0.906
 2318W        W 6062   5.077   8.408  11.047
 2319W        W 6063   0.449   1.829   9.818
 2320W        W 6064   0.864   0.914  11.286
 2321W        W 6065   1.999   7.100   9.327
 2322W        W 6066   5.224   6.654  10.798
 2323W        W 6067   0.939   6.349   1.381
 2324W        W 6068   2.261  10.200  10.773
 2325W        W 6069   7.387   5.740   3.536
 2326W        W 6070   6.258   2.888  11.701
 2327W        W 6071   3.391   7.095   9.527
 2328W        W 6072   8.097   8.132   0.765
 2329W        W 6073   3.724   6.876  11.905
 2330W        W 6074   1.353   9.317   0.138
 2331W        W 6075   5.626   6.081   1.230
 2332W        W 6076   3.662   7.175  10.570
 2333W        W 6077  10.100   6.554  11.353
 2334W        W 6078   7.462   3.287  10.197
 2335W        W 6079   6.669   3.711   0.642
 2336W        W 6080   7.091   4.540   1.585
 2337W        W 6081   0.526   1.893  10.722
 2338W        W 6082   3.757   8.712   3.515
 2339W        W 6083   9.586   2.780   9.048
 2340W        W 6084   5.601   7.952   0.219
 2341W        W 6085   9.293   9.863   9.938
 2342W        W 6086   7.183   2.745   8.642
 2343W        W 6087   5.264   7.585   3.078
 2344W        W 6088   3.693   3.808  11.530
 2345W        W 6089   5.591   1.734   9.523
 2346W        W 6090   8.723   1.283   2.489
 2347W        W 6091   7.992   3.663   0.794
 2348W        W 6092   9.130   2.701   2.824
 2349W        W 6093  10.058   7.097   3.484
 2350W        W 6094   8.902   5.714  11.829
 2351W        W 6095   4.192   3.796   9.624
 2352W        W 6096   7.474   5.000   8.853
 2353W        W 6097   0.475   4.593   0.082
 2354W        W 6098   3.208   5.401  10.231
 2355W        W 6099   3.263   1.291   0.966
 2356W        W 6100   1.675   9.799   9.857
 2357W        W 6101   6.109   1.215   8.983
 2358W        W 6102   1.689   9.681  10.381
 2359W        W 6103   0.477   2.130  11.202
 2360W        W 6104   1.536  10.351   1.836
 2361W        W 6105   7.173   5.069   1.139
 2362W        W 6106   7.343   3.143   2.800
 2363W        W 6107   6.472   4.504  11.604
 2364W        W 6108   0.719   1.253  10.953
 2365W        W 6109   4.335   2.735   1.423
 2366W        W 6110   5.567   8.962   1.675
 2367W        W 6111   6.462   0.086   9.639
 2368W        W 6112   3.201   3.706   3.553
 2369W        W 6113   2.307   9.424  11.770
 2370W        W 6114  10.283   9.146   8.959
 2371W        W 6115   4.657   3.727   1.418
 2372W        W 6116   1.847   9.673   8.529
 2373W        W 6117   9.087   4.596   0.610
 2374W        W 6118   8.084   6.626   9.768
 2375W        W 6119   2.821   3.946   1.490
 2376W        W 6120  10.136   5.621   9.442
 2377W        W 6121   2.978   8.619  10.117
 2378W        W 6122   3.654   7.965  11.825
 2379W        W 6123   6.824   5.521   1.781
 2380W        W 6124   3.836   8.341   2.123
 2381W        W 6125   0.269   1.322  10.730
 2382W        W 6126   3.313   1.323  10.084
 2383W        W 6127   9.268   8.212   8.721
 2384W        W 6128   5.287   3.017   2.560
 2385W        W 6129  10.334   9.161  10.097
 2386W        W 6130   2.081   2.844   8.839
 2387W        W 6131   2.662   5.026   2.376
 2388W        W 6132   8.947   9.820   1.251
 2389W        W 6133   3.169   6.135   0.976
 2390W        W 6134   8.738   0.451   0.128
 2391W        W 6135   1.251   8.138   2.626
 2392W        W 6136   4.613   1.634   9.892
 2393W        W 6137   6.595   2.229   0.347
 2394W        W 6138   3.016   4.103   9.423
 2395W        W 6139   8.962   9.313  10.773
 2396W        W 6140   8.576   4.560   9.425
 2397W        W 6141   4.487  10.479   0.269
 2398W        W 6142   0.175   9.784  10.470
 2399W        W 6143   7.900   4.738  10.782
 2400W        W 6144   1.455   9.124   2.139
 2401W        W 6145   5.943   7.636  10.394
 2402W        W 6146   5.076   8.171   3.622
 2403W        W 6147   0.847   3.569   2.285
 2404W        W 6148   9.744   6.152  10.460
 2405W        W 6149   5.985   8.679  11.886
 2406W        W 6150   3.378   6.823  10.370
 2407W        W 6151   4.685   2.648  11.753
 2408W        W 6152   4.241   1.766   8.751
 2409W        W 6153   3.583   7.770   3.906
 2410W        W 6154   8.929   7.531   2.585
 2411W        W 6155   7.229   0.364   8.680
 2412W        W 6156  10.083   9.460   1.195
 2413W        W 6157   1.605   4.556   3.642
 2414W        W 6158   8.552   9.372  10.066
 2415W        W 6159   5.351   4.818   2.159
 2416W        W 6160   8.840  10.438  11.379
 2417W        W 6161   2.879   0.308   3.573
 2418W        W 6162   7.595   2.695   9.539
 2419W        W 6163   5.531   8.320  11.763
 2420W        W 6164  10.396   7.899   3.308
 2421W        W 6165   6.520   0.464  11.951
 2422W        W 6166   2.382   6.849   9.633
 2423W        W 6167   2.807   8.105   9.392
 2424W        W 6168   8.397   4.150   1.287
 2425W        W 6169   5.562   5.148  10.372
 2426W        W 6170   9.946   1.879   9.911
 2427W        W 6171   4.769   3.679   2.459
 2428W        W 6172  10.117   8.394   0.283
 2429W        W 6173   5.080   9.237   0.228
 2430W        W 6174   4.691   1.228  10.310
 2431W        W 6175   0.670   2.283   9.957
 2432W        W 6176   2.237   4.771   9.083
 2433W        W 6177   8.885   9.559   1.716
 2434W        W 6178   7.257   6.455   9.906
 2435W        W 6179   0.407   4.314   0.522
 2436W        W 6180   9.222   5.772   1.210
 2437W        W 6181   2.787   9.394   2.993
 2438W        W 6182   2.726   7.828   0.657
 2439W        W 6183   2.545   0.292  11.333
 2440W        W 6184   6.147   4.734  11.279
 2441W        W 6185   2.915   0.371   9.297
 2442W        W 6186   0.933   0.498   8.407
 2443W        W 6187   9.849   3.733   1.263
 2444W        W 6188   4.938   3.975   4.105
 2445W        W 6189   7.135   7.766  10.815
 2446W        W 6190   9.042   5.939   8.991
 2447W        W 6191   1.667   4.202  10.769
 2448W        W 6192   7.052   4.597   9.527
 2449W        W 6193   0.756   1.437   9.998
 2450W        W 6194   8.847   0.278   0.893
 2451W        W 6195  10.301   7.182   8.983
 2452W        W 6196   2.125   1.858  10.770
 2453W        W 6197   3.720   0.990   9.084
 2454W        W 6198   2.256   8.489   9.397
 2455W        W 6199   4.173   1.308   1.833
 2456W        W 6200   7.621   8.076   3.530
 2457W        W 6201   6.904   0.806   9.568
 2458W        W 6202   1.822   1.414   2.034
 2459W        W 6203   7.441   8.405  11.658
 2460W        W 6204   2.768   2.145   2.859
 2461W        W 6205  10.459  10.039  10.935
 2462W        W 6206   3.246   7.963   3.545
 2463W        W 6207   7.996   0.859   2.883
 2464W        W 6208   2.346   7.621   3.063
 2465W        W 6209   2.579   2.289   2.417
 2466W        W 6210  10.383   3.705   0.031
 2467W        W 6211   6.482   6.993   1.821
 2468W        W 6212   6.126  10.455   1.766
 2469W        W 6213   3.925   0.133   8.947
 2470W        W 6214   3.795   0.539   9.307
 2471W        W 6215   7.199   7.834   0.874
 2472W        W 6216   5.046   3.550   9.875
 2473W        W 6217   8.101   9.299  10.337
 2474W        W 6218   1.740   0.883   1.334
 2475W        W 6219   1.874   2.099  10.366
 2476W        W 6220   6.681   2.888   0.867
 2477W        W 6221   4.597   8.578  11.878
 2478W        W 6222  10.018   9.540   8.581
 2479W        W 6223   6.234   8.865  11.477
 2480W        W 6224   0.419   4.170   1.013
 2481W        W 6225   6.076   6.344   3.407
 2482W        W 6226   8.294   7.993   8.805
 2483W        W 6227   4.155   7.704   0.799
 2484W        W 6228   5.233  10.158  11.915
 2485W        W 6229  10.151   8.510   1.176
 2486W        W 6230   5.154   2.524  10.032
 2487W        W 6231   3.239  10.413   1.332
 2488W        W 6232   5.014   6.011  11.891
 2489W        W 6233   7.564   8.821   8.754
 2490W        W 6234   8.937   3.216   9.061
 2491W        W 6235   0.898   7.448  10.302
 2492W        W 6236   0.375   1.605  10.305
 2493W        W 6237   0.875   8.977   1.415
 2494W        W 6238  10.097   8.154   9.401
 2495W        W 6239   7.156   2.884  11.081
 2496W        W 6240   2.926   0.222   1.600
 2497W        W 6241   2.500   7.245   9.316
 2498W        W 6242   3.898   8.073   1.607
 2499W        W 6243   5.413   4.277   3.139
 2500W        W 6244   9.942   2.453  11.669
 2501W        W 6245   3.392   0.307   1.806
 2502W        W 6246   7.563   3.795  10.414
 2503W        W 6247   4.313   3.903  11.275
 2504W        W 6248   0.038   5.924   2.219
 2505W        W 6249   0.680   6.536  10.286
 2506W        W 6250   7.903   2.306   2.805
 2507W        W 6251   9.404   3.142   1.299
 2508W        W 6252   3.772   1.231   0.933
 2509W        W 6253   4.591   7.999   3.603
 2510W        W 6254   1.231   5.322  10.298
 2511W        W 6255   5.727   9.904   1.302
 2512W        W 6256   0.735   7.420   2.233
 2513W        W 6257   7.916  10.033  11.034
 2514W        W 6258   9.421   7.671  10.164
 2515W        W 6259   5.672   4.491   9.153
 2516W        W 6260   8.007   1.761   1.969
 2517W        W 6261   7.827   7.054   0.861
 2518W        W 6262   8.047   0.285   2.977
 2519W        W 6263   9.350   2.815   0.495
 2520W        W 6264   2.150   7.471   1.730
 2521W        W 6265   4.157   8.629   0.870
 2522W        W 6266   8.901   5.959  10.970
 2523W        W 6267   9.623   9.974   3.792
 2524W        W 6268   9.988   4.472   1.682
 2525W        W 6269   2.376   5.327   1.459
 2526W        W 6270  10.049   4.872  11.859
 2527W        W 6271   8.116   2.462   1.429
 2528W        W 6272   9.191   3.655   9.194
 2529W        W 6273   6.270   2.902   1.169
 2530W        W 6274  10.281   1.278   9.969
 2531W        W 6275  10.441   2.442   1.935
 2532W        W 6276   6.472   2.805   2.846
 2533W        W 6277   8.463   7.184   8.784
 2534W        W 6278  10.025  10.411   2.634
 2535W        W 6279   0.814   6.805   1.153
 2536W        W 6280   3.259   0.222  10.036
 2537W        W 6281   2.151   2.670   3.349
 2538W        W 6282   4.059   5.273   0.453
 2539W        W 6283   6.216   6.929   9.079
 2540W        W 6284   2.870   4.150   9.908
 2541W        W 6285   3.190   9.704   9.899
 2542W        W 6286   5.963   6.645  11.335
 2543W        W 6287   8.154   4.047  11.849
 2544W        W 6288   7.236   5.592   1.184
 2545W        W 6289   0.940   9.163   9.440
 2546W        W 6290   5.220   0.283   1.918
 2547W        W 6291   6.225   1.250  10.046
 2548W        W 6292   7.879   5.439   1.743
 2549W        W 6293   7.441   8.101   3.058
 2550W        W 6294   5.445   7.840   3.724
 2551W        W 6295   7.043   6.080   0.039
 2552W        W 6296   1.894   4.257   9.859
 2553W        W 6297   5.014   2.927   8.546
 2554W        W 6298   3.162   3.467   3.086
 2555W        W 6299   9.293   9.281   3.289
 2556W        W 6300   6.288   4.934   2.102
 2557W        W 6301   4.519   7.694  11.436
 2558W        W 6302   8.994   4.516  11.050
 2559W        W 6303   8.551   9.270  11.139
 2560W        W 6304   5.970   3.501   9.875
 2561W        W 6305  10.341   0.302   3.114
 2562W        W 6306   3.567   2.245   8.750
 2563W        W 6307   8.146   9.343  11.505
 2564W        W 6308   4.725   8.365   0.468
 2565W        W 6309   8.975   1.507   1.565
 2566W        W 6310   6.941   0.816  10.945
 2567W        W 6311   4.597   6.649   9.088
 2568W        W 6312   9.138   3.442   2.074
 2569W        W 6313   8.447   7.472   0.362
 2570W        W 6314   4.682   9.066  10.106
 2571W        W 6315   1.797   6.506   3.549
 2572W        W 6316   5.218   1.294   2.506
 2573W        W 6317   3.628   8.395  10.871
 2574W        W 6318   5.617   1.711   0.547
 2575W        W 6319   3.826   7.518   9.762
 2576W        W 6320   5.628   5.147   1.319
 2577W        W 6321   9.394   7.905   2.069
 2578W        W 6322   7.220   1.388   9.767
 2579W        W 6323   8.508   6.761   9.993
 2580W        W 6324   9.755   9.925   2.883
 2581W        W 6325   4.052   1.530  11.559
 2582W        W 6326   0.709   6.144   9.914
 2583W        W 6327   1.380   8.493  11.094
 2584W        W 6328   3.343   1.453  10.587
 2585W        W 6329  10.459   0.019   9.717
 2586W        W 6330   2.626   4.891   3.609
 2587W        W 6331   5.771   0.781  10.495
 2588W        W 6332   0.772   4.333   1.774
 2589W        W 6333   6.010   7.310   9.559
 2590W        W 6334   0.869   4.646   8.676
 2591W        W 6335   4.596   8.481  11.348
 2592W        W 6336   2.213   3.197  10.696
 2593W        W 6337   6.635   8.323   1.855
 2594W        W 6338   0.338   5.727   9.983
 2595W        W 6339   9.637   5.394   0.484
 2596W        W 6340   9.797   3.059   0.069
 2597W        W 6341   4.313   9.526  11.876
 2598W        W 6342   1.744   3.659  10.433
 2599W        W 6343   0.381   0.514   0.329
 2600W        W 6344   1.695   5.826   8.840
 2601W        W 6345  10.213   2.824  11.937
 2602W        W 6346   5.793   2.501   9.978
 2603W        W 6347   6.582   2.944   1.918
 2604W        W 6348   6.478   3.920  10.333
 2605W        W 6349   7.409   2.278   8.789
 2606W        W 6350   6.501  10.375  10.122
 2607W        W 6351   2.254   9.493   9.271
 2608W        W 6352   4.766   6.453   1.343
 2609W        W 6353   3.588  10.432  10.327
 2610W        W 6354   2.940   5.646   3.098
 2611W        W 6355   6.324  10.286   3.263
 2612W        W 6356   9.459   3.085   2.881
 2613W        W 6357   8.051   1.795   8.806
 2614W        W 6358   8.949   9.521   9.802
 2615W        W 6359   9.457   2.206   1.753
 2616W        W 6360   8.393   0.204   8.835
 2617W        W 6361   5.385   9.564   9.824
 2618W        W 6362   6.951   2.175   3.262
 2619W        W 6363   7.873   3.884  11.316
 2620W        W 6364   1.131   1.410  11.214
 2621W        W 6365   7.098   5.023  11.806
 2622W        W 6366   8.300   7.119   1.210
 2623W        W 6367   4.234   6.527   1.088
 2624W        W 6368   2.719   9.926   9.964
 2625W        W 6369   5.443   7.620   1.676
 2626W        W 6370   7.132   5.721  10.200
 2627W        W 6371   8.430   0.716   8.758
 2628W        W 6372   7.249   9.308   9.269
 2629W        W 6373   6.048   1.978  11.221
 2630W        W 6374   7.361   5.203  10.256
 2631W        W 6375   1.987   9.927   0.627
 2632W        W 6376   9.974   9.309  11.881
 2633W        W 6377   4.599   0.671  10.664
 2634W        W 6378   9.841   9.480  10.792
 2635W        W 6379   9.484   1.817   2.413
 2636W        W 6380   9.571   0.471   9.157
 2637W        W 6381   5.206   1.944  10.265
 2638W        W 6382   2.805   9.276   2.500
 2639W        W 6383   1.119   0.978   0.706
 2640W        W 6384   5.933   2.998   9.032
 2641W        W 6385   6.521  10.169  11.588
 2642W        W 6386   6.958   8.499  10.683
 2643W        W 6387   0.342   2.670  10.059
 2644W        W 6388   2.442   9.537   0.607
 2645W        W 6389   0.520   7.429  10.989
 2646W        W 6390   3.794   0.411   2.525
 2647W        W 6391   5.237   5.044  11.851
 2648W        W 6392   3.726   6.734   9.704
 2649W        W 6393   9.766   6.605   9.518
 2650W        W 6394   0.013   3.369   0.803
 2651W        W 6395   9.459   9.865  10.728
 2652W        W 6396   2.228  10.406  10.288
 2653W        W 6397   0.187   3.360  11.017
 2654W        W 6398   6.150   1.110   2.744
 2655W        W 6399   2.849   6.053   1.430
 2656W        W 6400   5.631   0.076   0.886
 2657W        W 6401   8.923   4.760   2.899
 2658W        W 6402   8.496   4.137   2.831
 2659W        W 6403   3.650   7.126  10.039
 2660W        W 6404   5.248   6.491   9.860
 2661W        W 6405   6.109   7.714   0.105
 2662W        W 6406   7.546   3.929   2.542
 2663W        W 6407   6.080   1.481   0.535
 2664W        W 6408   4.629   8.360   2.114
 2665W        W 6409   7.064   4.831   2.032
 2666W        W 6410   8.005   7.576   3.610
 2667W        W 6411   8.505   3.400   0.504
 2668W        W 6412   5.570   6.485  10.490
 2669W        W 6413   6.341   8.182   8.684
 2670W        W 6414   9.281   4.285   1.855
 2671W        W 6415   4.487   3.228   1.423
 2672W        W 6416   4.223   8.058  10.798
 2673W        W 6417   9.459   6.747   3.055
 2674W        W 6418   1.479   1.933   0.752
 2675W        W 6419   9.744   9.014   1.827
 2676W        W 6420   6.790   8.298   8.425
 2677W        W 6421  10.306   2.749  11.442
 2678W        W 6422   1.828   0.390   0.524
 2679W        W 6423   8.876   5.509   1.894
 2680W        W 6424   0.246   1.330  11.768
 2681W        W 6425   1.620   4.145   2.637
 2682W        W 6426   8.501   4.583   1.625
 2683W        W 6427   6.668   4.468  10.564
 2684W        W 6428   6.686   3.139  11.540
 2685W        W 6429   7.624   0.479   1.239
 2686W        W 6430   9.879   9.118  10.417
 2687W        W 6431  10.349   2.592  10.965
 2688W        W 6432   4.484   5.578   0.371
 2689W        W 6433   1.378   5.999   1.648
 2690W        W 6434   2.217   1.259   0.689
 2691W        W 6435   3.699   1.870   9.578
 2692W        W 6436   9.642   1.905   2.932
 2693W        W 6437   8.392   5.706  11.579
 2694W        W 6438   9.817   1.699   8.785
 2695W        W 6439   0.198   5.130   8.819
 2696W        W 6440   0.306   4.954  10.626
 2697W        W 6441   5.884   7.605   3.859
 2698W        W 6442   8.496   7.572   1.362
 2699W        W 6443   9.224   8.097   9.707
 2700W        W 6444   1.093   7.632   2.605
 2701W        W 6445   4.188   8.906   1.721
 2702W        W 6446   8.837   0.558   1.925
 2703W        W 6447   0.816   9.475  10.012
 2704W        W 6448   4.967   3.994   3.223
 2705W        W 6449   7.446   5.536  11.489
 2706W        W 6450   1.158   4.308  10.355
 2707W        W 6451   2.323   2.668  11.948
 2708W        W 6452   4.502   6.541   0.304
 2709W        W 6453   0.402   9.828   1.249
 2710W        W 6454   2.239   7.184   3.327
 2711W        W 6455   9.749   6.462  11.727
 2712W        W 6456   7.907   8.439   9.239
 2713W        W 6457   7.520   4.748   2.259
 2714W        W 6458   4.356   4.218   9.922
 2715W        W 6459   5.811   9.304   9.622
 2716W        W 6460   8.622   9.374  11.640
 2717W        W 6461   3.098   1.516   0.346
 2718W        W 6462   9.466   6.214  11.282
 2719W        W 6463   9.192   0.706   9.412
 2720W        W 6464   8.352   3.293  10.279
 2721W        W 6465   1.843   0.666  10.348
 2722W        W 6466   3.507   6.921   0.713
 2723W        W 6467   1.386   5.610  11.976
 2724W        W 6468   8.839   7.153   0.633
 2725W        W 6469   0.374   0.232  10.401
 2726W        W 6470   8.610   4.783  11.865
 2727W        W 6471   2.707   9.786   1.760
 2728W        W 6472   7.844   5.254   8.563
 2729W        W 6473  10.316   5.236  11.610
 2730W        W 6474   7.452   6.921   9.188
 2731W        W 6475   2.114  10.300   2.137
 2732W        W 6476   8.594   7.820  10.138
 2733W        W 6477   1.882   6.200   1.577
 2734W        W 6478   6.389   0.674   2.695
 2735W        W 6479   3.201   9.590   2.664
 2736W        W 6480   5.814   4.529   0.868
 2737W        W 6481   0.420  10.360   0.254
 2738W        W 6482   6.202   1.641   1.861
 2739W        W 6483   1.849   8.581   9.081
 2740W        W 6484   6.591  10.305  11.114
 2741W        W 6485   9.262   2.365   0.871
 2742W        W 6486   3.181   0.966  10.428
 2743W        W 6487   1.516   0.990   2.087
 2744W        W 6488   8.717   8.189   9.810
 2745W        W 6489   6.116   4.290  10.985
 2746W        W 6490   3.783   7.665  11.439
 2747W        W 6491   0.474   1.858   0.045
 2748W        W 6492   8.020   3.141   8.877
 2749W        W 6493   7.025   9.176   1.036
 2750W        W 6494   7.578   0.536   2.941
 2751W        W 6495  10.466   4.646   9.979
 2752W        W 6496   9.403   9.369   9.969
 2753W        W 6497   7.469   0.163  11.335
 2754W        W 6498   7.843   6.973   1.395
 2755W        W 6499  10.317   1.225  10.955
 2756W        W 6500   5.191   1.300  10.509
 2757W        W 6501   3.066  10.258   9.153
 2758W        W 6502   0.961   7.067   8.570
 2759W        W 6503   7.093   8.851   0.640
 2760W        W 6504   2.298   8.796   1.509
 2761W        W 6505  10.344   6.041   3.513
 2762W        W 6506   0.355   0.947   0.084
 2763W        W 6507  10.361   4.127  10.557
 2764W        W 6508   8.581   2.628   1.187
 2765W        W 6509   8.408   0.230   9.711
 2766W        W 6510   0.656   7.360   9.327
 2767W        W 6511   8.381   5.542   1.743
 2768W        W 6512   8.732   4.240   9.054
 2769W        W 6513   0.824   3.706   9.351
 2770W        W 6514   6.176   4.420   2.128
 2771W        W 6515   8.390   6.538  11.475
 2772W        W 6516   2.553   4.732  11.270
 2773W        W 6517   9.942   6.936   1.886
 2774W        W 6518   8.274   9.648   0.405
 2775W        W 6519   3.427   3.265  10.120
 2776W        W 6520   0.085   6.024   1.291
 2777W        W 6521   2.022   8.258   0.399
 2778W        W 6522  10.426   6.448   1.563
 2779W        W 6523   6.870   5.290  10.165
 2780W        W 6524   2.656   5.991   0.958
 2781W        W 6525   7.466   5.893  10.801
 2782W        W 6526   6.156   9.999   1.553
 2783W        W 6527   9.142   1.828   2.796
 2784W        W 6528   8.603   5.071   1.740
 2785W        W 6529   0.248   8.542   2.932
 2786W        W 6530   8.326   9.730  11.255
 2787W        W 6531   5.723   7.089   9.174
 2788W        W 6532   7.236   1.858  10.007
 2789W        W 6533   6.108   8.645  10.526
 2790W        W 6534   1.786   6.015   3.487
 2791W        W 6535   5.911   4.102   3.113
 2792W        W 6536   7.024   0.700   0.715
 2793W        W 6537   2.533   8.281   0.535
 2794W        W 6538   9.769   5.936   1.834
 2795W        W 6539   8.364   9.087   3.502
 2796W        W 6540   8.532   2.851  10.492
 2797W        W 6541   3.285   3.255   8.590
 2798W        W 6542   3.132   2.232  11.114
 2799W        W 6543   9.044   1.218   8.731
 2800W        W 6544   8.901   7.020   1.894
 2801W        W 6545   0.185   3.098  10.408
 2802W        W 6546  10.394   8.225   2.127
 2803W        W 6547   2.172   6.413  11.618
 2804W        W 6548  10.451   6.026   9.436
 2805W        W 6549   3.064   2.406   0.119
 2806W        W 6550   3.918   3.310   0.511
 2807W        W 6551   5.571   3.299  11.612
 2808W        W 6552   8.549   8.606   2.836
 2809W        W 6553   8.772  10.334   8.930
 2810W        W 6554   1.970   8.010   1.730
 2811W        W 6555   5.294   9.579   3.389
 2812W        W 6556   3.865   2.318   9.809
 2813W        W 6557   4.530   7.926   0.577
 2814W        W 6558   8.151   1.717  10.325
 2815W        W 6559   9.841   0.521  10.345
 2816W        W 6560   9.864   0.956  10.072
 2817W        W 6561   6.055   2.744   8.430
 2818W        W 6562   7.961   8.874   1.213
 2819W        W 6563   1.258   4.269   3.459
 2820W        W 6564   6.040  10.497   0.216
 2821W        W 6565  10.019   7.385   9.936
 2822W        W 6566   1.180   8.932   1.019
 2823W        W 6567   8.358  10.470   0.845
 2824W        W 6568   3.159   5.274   1.494
 2825W        W 6569   1.896   3.723   1.812
 2826W        W 6570   8.462   6.077   1.675
 2827W        W 6571   0.010   0.184   0.258
 2828W        W 6572   0.236   1.162   8.483
 2829W        W 6573   7.624   1.096  10.356
 2830W        W 6574   7.799   6.194   0.998
 2831W        W 6575   4.078   9.017   1.235
 2832W        W 6576  10.107   2.658   0.862
 2833W        W 6577   9.504   8.895   0.520
 2834W        W 6578   1.055   5.153   9.319
 2835W        W 6579   5.966   8.812   9.829
 2836W        W 6580   9.417   2.313   0.384
 2837W        W 6581   8.063   6.131   8.880
 2838W        W 6582   7.178   5.480  10.643
 2839W        W 6583   8.346   5.416   3.577
 2840W        W 6584   0.303   9.961  11.916
 2841W        W 6585   9.278   5.351   9.699
 2842W        W 6586   3.285   1.278   9.098
 2843W        W 6587   1.008   4.787   1.963
 2844W        W 6588   8.562   6.184   3.155
 2845W        W 6589   9.389   6.318   9.294
 2846W        W 6590   6.937  10.432   0.301
 2847W        W 6591   0.006   0.778   2.335
 2848W        W 6592   6.685   7.820  11.958
 2849W        W 6593   5.295   1.422  11.508
 2850W        W 6594   6.235   8.877   2.947
 2851W        W 6595   1.394   0.987  10.031
 2852W        W 6596   7.923   2.157   2.321
 2853W        W 6597   0.978   5.873   0.326
 2854W        W 6598   8.667   0.024   0.455
 2855W        W 6599   4.635   8.929   9.607
 2856W        W 6600   5.547   3.203   0.159
 2857W        W 6601   1.822   6.733  11.252
 2858W        W 6602   4.129   6.354   0.603
 2859W        W 6603   3.456  10.047   0.013
 2860W        W 6604   2.590   4.094  10.344
 2861W        W 6605   5.253   8.678   3.760
 2862W        W 6606   0.511   8.943   2.081
 2863W        W 6607   1.325   2.016  11.851
 2864W        W 6608   0.382   7.199   2.845
 2865W        W 6609   3.216   1.855   9.878
 2866W        W 6610   7.249   0.396   9.945
 2867W        W 6611   4.734   3.124  10.239
 2868W        W 6612   4.562   9.429   9.577
 2869W        W 6613   8.511   4.424   3.621
 2870W        W 6614   8.591   3.859   0.056
 2871W        W 6615   9.270   1.783   3.302
 2872W        W 6616   3.061   2.660   1.084
 2873W        W 6617   1.313  10.362   9.274
 2874W        W 6618   6.631   5.663   0.927
 2875W        W 6619   4.424   5.831  11.399
 2876W        W 6620   7.964   8.169  10.820
 2877W        W 6621   1.384   4.744  11.842
 2878W        W 6622   1.908   9.918   1.117
 2879W        W 6623   3.010   9.159  11.875
 2880W        W 6624   8.803   9.507   0.291
 2881W        W 6625   4.172   7.417  10.129
 2882W        W 6626   8.505   1.315  10.451
 2883W        W 6627   3.030   0.050   2.111
 2884W        W 6628   0.422   7.107   1.929
 2885W        W 6629   9.300   9.311   1.906
 2886W        W 6630   7.404   0.085   1.471
 2887W        W 6631   1.105   8.253   1.923
 2888W        W 6632   5.039   8.734   9.311
 2889W        W 6633   4.583   9.098  11.978
 2890W        W 6634   1.494   9.317   1.155
 2891W        W 6635   2.783   9.501   9.207
 2892W        W 6636   5.925   8.005   8.948
 2893W        W 6637   7.840   9.751  10.406
 2894W        W 6638   6.172   4.220   0.711
 2895W        W 6639   3.350   0.458  10.470
 2896W        W 6640   8.282   2.344   1.966
 2897W        W 6641   4.627   2.647   1.891
 2898W        W 6642  10.164   5.227   0.510
 2899W        W 6643   6.747   1.656  10.561
 2900W        W 6644   2.108   2.157   1.426
 2901W        W 6645   8.345   6.944  11.793
 2902W        W 6646   6.932   6.573  10.315
 2903W        W 6647   8.060   5.223  10.965
 2904W        W 6648   8.780   5.710   1.452
 2905W        W 6649   4.073   4.684  11.644
 2906W        W 6650   6.008   5.294   9.626
 2907W        W 6651   9.855   4.174  11.399
 2908W        W 6652   4.299   3.085   9.976
 2909W        W 6653   1.575   4.571  11.122
 2910W        W 6654   2.429   4.335   3.298
 2911W        W 6655   7.162   6.959  11.226
 2912W        W 6656   5.629   4.217   2.670
 2913W        W 6657   2.831   9.338   0.877
 2914W        W 6658   3.034   4.777   1.148
 2915W        W 6659  10.307   3.496   1.268
 2916W        W 6660   4.872   8.646   2.510
 2917W        W 6661   5.186   0.480   0.287
 2918W        W 6662   8.266   3.752   7.931
 2919W        W 6663   7.888   6.880   3.502
 2920W        W 6664   2.714   9.449   9.719
 2921W        W 6665  10.143   5.987  10.723
 2922W        W 6666   9.816   5.558   2.616
 2923W        W 6667   5.145   7.541   9.568
 2924W        W 6668   3.577   4.007   9.399
 2925W        W 6669   1.113   0.110  11.691
 2926W        W 6670   1.677  10.269   0.382
 2927W        W 6671  10.465   7.472  10.117
 2928W        W 6672   7.685   6.490   9.063
 2929W        W 6673   8.316   5.797   1.265
 2930W        W 6674   4.588   6.286  11.866
 2931W        W 6675   3.378   4.518  11.132
 2932W        W 6676  10.003   1.382   9.148
 2933W        W 6677   0.201   5.266  10.229
 2934W        W 6678   0.975   1.624  10.713
 2935W        W 6679   1.689   7.417   1.947
 2936W        W 6680   0.220   0.399  10.864
 2937W        W 6681   7.012   4.874   0.708
 2938W        W 6682   6.846   8.792   1.874
 2939W        W 6683   4.546   8.535   9.293
 2940W        W 6684   7.515   4.773   1.392
 2941W        W 6685   4.180   8.283   0.509
 2942W        W 6686   5.127   3.192  11.874
 2943W        W 6687   4.707   6.014   1.682
 2944W        W 6688   8.630   8.083   9.293
 2945W        W 6689   0.190   4.485  10.421
 2946W        W 6690   6.378   2.036  10.532
 2947W        W 6691   0.209   7.995   0.749
 2948W        W 6692   9.817   0.383  11.310
 2949W        W 6693   8.474   7.522  10.531
 2950W        W 6694   1.180   5.197  11.758
 2951W        W 6695   6.537   3.750   2.358
 2952W        W 6696   5.207   7.396   2.617
 2953W        W 6697   3.843   1.284  11.957
 2954W        W 6698   2.561   6.694   0.391
 2955W        W 6699   5.548   8.072   2.207
 2956W        W 6700   5.065   8.383   0.031
 2957W        W 6701   0.433   1.369   3.219
 2958W        W 6702   6.257   2.127  10.044
 2959W        W 6703   8.109   5.519   2.208
 2960W        W 6704   4.249   4.807   0.352
 2961W        W 6705   1.303   2.809   1.947
 2962W        W 6706   0.239   4.274   3.324
 2963W        W 6707   5.265   3.492  11.210
 2964W        W 6708   1.991   8.271  10.632
 2965W        W 6709   5.721   2.102  10.287
 2966W        W 6710   9.034   1.212   9.270
 2967W        W 6711   9.305   7.938  10.646
 2968W        W 6712   7.802   6.028   3.630
 2969W        W 6713   4.219   2.090  10.235
 2970W        W 6714   0.562   8.538   1.297
 2971W        W 6715   8.552   5.111   0.785
 2972W        W 6716   8.946   1.946   8.262
 2973W        W 6717   4.070   3.234  10.800
 2974W        W 6718   4.169   6.111  10.159
 2975W        W 6719   2.246   7.910   8.759
 2976W        W 6720   0.427   4.679   3.593
 2977W        W 6721   1.661   9.507   2.423
 2978W        W 6722   3.796   1.390   9.849
 2979W        W 6723   9.751   8.444   3.341
 2980W        W 6724   0.937   3.210   9.479
 2981W        W 6725   7.028   4.074   1.327
 2982W        W 6726   0.716   2.819   9.194
 2983W        W 6727   5.132   4.047   2.744
 2984W        W 6728   2.999   6.902   0.642
 2985W        W 6729   4.029   6.867   0.723
 2986W        W 6730   9.048   4.611   9.281
 2987W        W 6731   3.738   5.776   9.467
 2988W        W 6732   5.510   4.287   8.704
 2989W        W 6733   7.887   2.659   3.233
 2990W        W 6734   1.703   1.670  10.551
 2991W        W 6735   3.672   7.141  11.460
 2992W        W 6736   8.693   2.338   3.476
 2993W        W 6737   6.989   0.466  11.368
 2994W        W 6738   2.383   8.468  10.359
 2995W        W 6739   1.648   3.552   0.309
 2996W        W 6740   3.178   6.454   8.979
 2997W        W 6741  10.349   4.226  11.240
 2998W        W 6742   5.179   2.337   3.703
 2999W        W 6743   4.241   3.371   3.202
 3000W        W 6744   3.603   5.902  11.831
 3001W        W 6745   9.540   4.086   0.848
 3002W        W 6746   6.196   5.725   0.557
 3003W        W 6747   0.953   3.302  11.799
 3004W        W 6748   2.728   4.975   1.509
 3005W        W 6749   0.889   7.096  11.094
 3006W        W 6750   3.245   5.893  10.081
 3007W        W 6751   8.521   1.835   1.898
 3008W        W 6752   6.626   9.808   1.501
 3009W        W 6753   7.087  10.413   9.885
 3010W        W 6754   5.001   9.363  11.739
 3011W        W 6755   4.228   7.038   1.963
 3012W        W 6756   7.832   9.624   0.817
 3013W        W 6757   7.116   8.577   8.689
 3014W        W 6758  10.044   5.722   0.404
 3015W        W 6759  10.084   3.484   8.426
 3016W        W 6760   1.226   3.346   3.108
 3017W        W 6761   4.238   6.159   1.464
 3018W        W 6762   4.724   7.491   0.453
 3019W        W 6763   0.989   5.529   8.983
 3020W        W 6764   5.715   0.406  10.964
 3021W        W 6765   5.513   0.992  11.800
 3022W        W 6766   8.018   8.873   8.993
 3023W        W 6767   6.036  10.307   8.944
 3024W        W 6768   1.446   0.229   0.211
 3025W        W 6769   9.743   1.396   1.249
 3026W        W 6770   8.553   5.248   2.232
 3027W        W 6771   2.728   6.044   3.387
 3028W        W 6772   4.688   3.164   9.192
 3029W        W 6773   9.907   5.255   1.286
 3030W        W 6774   5.173   0.331   0.800
 3031W        W 6775   2.825   1.765   9.039
 3032W        W 6776   5.180   5.592  10.964
 3033W        W 6777   2.638   3.068   2.652
 3034W        W 6778   9.556   2.202   3.450
 3035W        W 6779   8.957   6.631   9.305
 3036W        W 6780   1.067   9.603   0.447
 3037W        W 6781   6.483   9.966   0.100
 3038W        W 6782   4.523   4.471  11.700
 3039W        W 6783   1.799   5.884   1.196
 3040W        W 6784   6.014   8.871   9.335
 3041W        W 6785   7.568   9.645   9.468
 3042W        W 6786   3.741   7.012   1.174
 3043W        W 6787   7.033   4.051   0.803
 3044W        W 6788   8.033   5.029   2.065
 3045W        W 6789   8.449   0.284  10.465
 3046W        W 6790   6.538   4.044  10.842
 3047W        W 6791   4.605   0.860   8.616
 3048W        W 6792   8.932   1.790  11.673
 3049W        W 6793  10.197   7.484   3.086
 3050W        W 6794   3.197   4.944   3.162
 3051W        W 6795   5.930   3.574   3.270
 3052W        W 6796   1.501   7.570  10.814
 3053W        W 6797   0.443   2.254  11.705
 3054W        W 6798   4.681   9.612   1.331
 3055W        W 6799   8.037   3.410  11.351
 3056W        W 6800   5.179   7.497   9.046
 3057W        W 6801   2.219  10.333   1.202
 3058W        W 6802   1.953   5.133   1.740
 3059W        W 6803   9.078   5.030  10.953
 3060W        W 6804   4.603   2.525   1.036
 3061W        W 6805   1.911   3.181  11.524
 3062W        W 6806   3.782   6.252  11.487
 3063W        W 6807  10.356   1.744   9.623
 3064W        W 6808   1.286   3.887  10.606
 3065W        W 6809   9.442   5.516  10.153
 3066W        W 6810  10.022   5.645   3.212
 3067W        W 6811   6.611   6.153   2.279
 3068W        W 6812   3.847   7.118   8.840
 3069W        W 6813   3.102   6.365  11.330
 3070W        W 6814   1.866   5.038   8.853
 3071W        W 6815   2.598   3.672  10.084
 3072W        W 6816   7.950   9.824   8.751
 3073W        W 6817   4.280   8.408  10.422
 3074W        W 6818   0.720   7.887  10.988
 3075W        W 6819  10.480   7.038   9.810
 3076W        W 6820   4.198   9.396   1.607
 3077W        W 6821   2.025   0.278  11.381
 3078W        W 6822   8.155   2.911   1.184
 3079W        W 6823   2.046   8.495   1.808
 3080W        W 6824   1.176   1.337  10.328
 3081W        W 6825   7.471   6.606   2.454
 3082W        W 6826   7.530   0.900   8.506
 3083W        W 6827   6.752   1.797   1.245
 3084W        W 6828   0.192   7.066   9.325
 3085W        W 6829   2.802   1.299   9.319
 3086W        W 6830   7.489   4.085   0.251
 3087W        W 6831   2.581   2.774   8.922
 3088W        W 6832   4.395   0.743   3.241
 3089W        W 6833   7.474   5.537   0.382
 3090W        W 6834   3.315   7.509   9.828
 3091W        W 6835   4.830   0.374   8.641
 3092W        W 6836   0.463   9.469   9.166
 3093W        W 6837   3.545   8.653  11.294
 3094W        W 6838   6.510   0.013   0.965
 3095W        W 6839  10.300   5.154   9.205
 3096W        W 6840   2.581   1.455   0.385
 3097W        W 6841   7.201   7.453   9.934
 3098W        W 6842   3.837   6.595   2.712
 3099W        W 6843   3.340   1.751   1.240
 3100W        W 6844   7.485   0.152   0.296
 3101W        W 6845   6.437   5.540   9.482
 3102W        W 6846   9.146   5.868   2.239
 3103W        W 6847   4.489   9.902   3.198
 3104W        W 6848   5.922   7.595  11.299
 3105W        W 6849   6.698   3.423  10.283
 3106W        W 6850   9.401   1.259   3.376
 3107W        W 6851   6.748   2.777  11.951
 3108W        W 6852   3.133   6.085  10.900
 3109W        W 6853   7.385   0.027   9.480
 3110W        W 6854   1.908   4.491   2.411
 3111W        W 6855   5.703   5.606   9.966
 3112W        W 6856   6.478   6.362   2.718
 3113W        W 6857   3.464   0.110   9.214
 3114W        W 6858   8.491   9.096   3.024
 3115W        W 6859   0.655   0.187   3.453
 3116W        W 6860   9.488   4.611   9.045
 3117W        W 6861   3.994   2.947   3.124
 3118W        W 6862   2.219   9.062   0.754
 3119W        W 6863   2.208   1.976   9.126
 3120W        W 6864   2.894   9.535  10.615
 3121W        W 6865   1.517   9.949   9.020
 3122W        W 6866   9.055   7.498   2.086
 3123W        W 6867   7.433   1.486   3.208
 3124W        W 6868   9.026   2.233   9.111
 3125W        W 6869   0.766   6.365   9.361
 3126W        W 6870   0.049  10.457  10.697
 3127W        W 6871   9.741   7.240   2.229
 3128W        W 6872   2.567   7.661   1.966
 3129W        W 6873   5.941   2.509   8.869
 3130W        W 6874   2.722   9.521   0.161
 3131W        W 6875   4.232   8.217   2.389
 3132W        W 6876   9.959   3.351   2.909
 3133W        W 6877   3.788   9.457  10.784
 3134W        W 6878   0.243   4.437  11.511
 3135W        W 6879   6.550   4.596   9.653
 3136W        W 6880   7.465  10.419   1.927
 3137W        W 6881   0.155   0.454  11.841
 3138W        W 6882   6.466   3.098  11.063
 3139W        W 6883   0.058   9.472   0.869
 3140W        W 6884   8.312   8.406   9.549
 3141W        W 6885   3.773   6.492  10.158
 3142W        W 6886   7.329   5.616   1.684
 3143W        W 6887   1.423   8.900   8.511
 3144W        W 6888   8.448   1.654  11.419
 3145W        W 6889   1.755   3.678  11.439
 3146W        W 6890   6.229   1.506   0.031
 3147W        W 6891   2.717   6.983   2.468
 3148W        W 6892   0.027   1.843  10.614
 3149W        W 6893   7.203   6.178   8.553
 3150W        W 6894   8.885   6.909  10.280
 3151W        W 6895   0.786   6.800   1.652
 3152W        W 6896   7.571  10.243   0.607
 3153W        W 6897   5.313   3.807   8.646
 3154W        W 6898   9.478   0.060  10.455
 3155W        W 6899   2.246   8.138   2.553
 3156W        W 6900   1.683   8.669   2.114
 3157W        W 6901   8.204   2.576  11.980
 3158W        W 6902   4.669   5.212  10.329
 3159W        W 6903   0.043   0.853  10.683
 3160W        W 6904   9.926   4.489   0.803
 3161W        W 6905   0.906   6.584   0.705
 3162W        W 6906   7.386   9.481  10.575
 3163W        W 6907   5.162  10.286   2.023
 3164W        W 6908  10.441   6.405   2.068
 3165W        W 6909   3.024   1.869  11.949
 3166W        W 6910   4.874   3.377   8.780
 3167W        W 6911   7.704   0.936   1.476
 3168W        W 6912   5.738   2.679  10.905
 3169W        W 6913   3.137   6.256   2.828
 3170W        W 6914   6.334   9.065   0.356
 3171W        W 6915   6.174   4.306  10.493
 3172W        W 6916   2.340   8.119   2.069
 3173W        W 6917   7.626   9.925  11.845
 3174W        W 6918   5.130   5.505   1.176
 3175W        W 6919   4.192   1.580  10.178
 3176W        W 6920   3.610   5.217   2.733
 3177W        W 6921   6.100   0.178   9.296
 3178W        W 6922   4.137   1.348   9.055
 3179W        W 6923   4.956   2.706   0.713
 3180W        W 6924   0.931   8.425   9.925
 3181W        W 6925  10.371   8.230   8.984
 3182W        W 6926   2.263   5.647   9.487
 3183W        W 6927   0.916   0.987   9.235
 3184W        W 6928   2.531   4.199   0.444
 3185W        W 6929   5.592   8.054  10.368
 3186W        W 6930   6.880   3.004   2.651
 3187W        W 6931   3.300   4.542  10.618
 3188W        W 6932   6.922   5.389  11.494
 3189W        W 6933   0.485   3.773  11.006
 3190W        W 6934   9.878   1.398   9.666
 3191W        W 6935   6.254   5.633   9.983
 3192W        W 6936   5.970   5.072   1.700
 3193W        W 6937   8.925   8.085  11.677
 3194W        W 6938   8.529   8.563   1.774
 3195W        W 6939   6.608   1.331   8.904
 3196W        W 6940   2.139   9.663   0.223
 3197W        W 6941   5.170   7.561   0.951
 3198W        W 6942   4.170   6.170   8.825
 3199W        W 6943   8.049   0.494   9.107
 3200W        W 6944   2.763   4.463   1.452
 3201W        W 6945   2.633   4.522   8.251
 3202W        W 6946   2.166   1.499  11.679
 3203W        W 6947   6.005   6.130  10.533
 3204W        W 6948   3.141   4.136  10.338
 3205W        W 6949   3.185   0.357   0.231
 3206W        W 6950   9.938  10.255   0.451
 3207W        W 6951   8.874   8.834   1.282
 3208W        W 6952   7.238   3.555   3.723
 3209W        W 6953   9.352   6.934  10.452
 3210W        W 6954   0.637   8.447  11.661
 3211W        W 6955   4.593   7.153   9.990
 3212W        W 6956   8.110   9.530  10.822
 3213W        W 6957   9.436   7.554   0.364
 3214W        W 6958   3.168   8.345   9.061
 3215W        W 6959   1.914   8.499  11.950
 3216W        W 6960   6.062   9.502   0.339
 3217W        W 6961   4.049   4.889  10.467
 3218W        W 6962   4.608   9.102   1.938
 3219W        W 6963   8.423   5.064   2.963
 3220W        W 6964   0.239   5.536   1.444
 3221W        W 6965   4.068   9.705  11.458
 3222W        W 6966   1.537   3.503   3.618
 3223W        W 6967   0.712   7.493   8.741
 3224W        W 6968   1.355   5.590  10.975
 3225W        W 6969   9.445   6.177   1.459
 3226W        W 6970   4.766  10.372  11.848
 3227W        W 6971   0.865   6.107   1.846
 3228W        W 6972   0.455   9.997  10.870
 3229W        W 6973   7.886   0.174   0.905
 3230W        W 6974   5.627   8.021   9.562
 3231W        W 6975   6.319   5.426   1.830
 3232W        W 6976   9.900   3.788   2.656
 3233W        W 6977   2.846   5.119  11.481
 3234W        W 6978   8.449   9.723   9.688
 3235W        W 6979   9.937   0.417   1.391
 3236W        W 6980   6.374   9.434  10.852
 3237W        W 6981   9.283   4.935   0.271
 3238W        W 6982   0.764   3.629   0.276
 3239W        W 6983   4.996   4.829  10.296
 3240W        W 6984  10.401   8.020  11.373
 3241W        W 6985   6.774   1.233  10.011
 3242W        W 6986   0.617   1.634   0.491
 3243W        W 6987   1.988   6.315   9.568
 3244W        W 6988   6.055   9.361  11.438
 3245W        W 6989  10.215   7.349   9.462
 3246W        W 6990   6.134   3.512   8.936
 3247W        W 6991   3.798   6.332   8.448
 3248W        W 6992   2.839   6.100   1.946
 3249W        W 6993   5.214   6.944   2.364
 3250W        W 6994   7.798   4.412   0.750
 3251W        W 6995   8.079   9.796   2.907
 3252W        W 6996   6.788   6.503   8.574
 3253W        W 6997  10.239   9.057   0.927
 3254W        W 6998   9.080   8.045  10.195
 3255W        W 6999   5.199   0.381   8.985
 3256W        W 7000   0.409   1.968   2.685
 3257W        W 7001   5.990   5.108   2.797
 3258W        W 7002   3.587   7.883   3.008
 3259W        W 7003   2.818   0.279   3.040
 3260W        W 7004   9.406   1.239   1.642
 3261W        W 7005   7.932   3.294   9.982
 3262W        W 7006   8.203   1.032   1.348
 3263W        W 7007   3.166   5.018   2.352
 3264W        W 7008   6.675   0.986   2.952
 3265W        W 7009   6.111   8.118  10.553
 3266W        W 7010   1.937   5.598   3.221
 3267W        W 7011   7.252   5.517   9.722
 3268W        W 7012  10.499   5.304   1.037
 3269W        W 7013   0.690   5.268  11.657
 3270W        W 7014   9.106  10.296   0.409
 3271W        W 7015   8.656   4.646  10.307
 3272W        W 7016   9.983   0.216   3.442
 3273W        W 7017   5.312   8.406   9.575
 3274W        W 7018   9.613   6.700  11.299
 3275W        W 7019   7.856   4.222  10.468
 3276W        W 7020   8.387   6.992   9.521
 3277W        W 7021   7.363   6.242   3.827
 3278W        W 7022   5.527   3.795   2.956
 3279W        W 7023   5.796   5.797   0.263
 3280W        W 7024   3.093   2.703   1.584
 3281W        W 7025   5.097   6.737   8.949
 3282W        W 7026   7.887   4.235   9.582
 3283W        W 7027   2.704   6.677   8.998
 3284W        W 7028   3.618   9.489  11.288
 3285W        W 7029   7.916   0.389  11.484
 3286W        W 7030   7.794   5.589   8.154
 3287W        W 7031   8.533   5.389   9.271
 3288W        W 7032   8.243   0.498   3.725
 3289W        W 7033   2.759   6.492   2.612
 3290W        W 7034   5.341   5.598   3.153
 3291W        W 7035   7.439   0.555   3.437
 3292W        W 7036   3.758   9.172   1.792
 3293W        W 7037   6.615   6.063   9.267
 3294W        W 7038   6.455   8.625   2.221
 3295W        W 7039   0.113   8.469  11.543
 3296W        W 7040   5.930   7.120   8.171
 3297W        W 7041   1.419   2.398  10.482
 3298W        W 7042   7.437   3.437   0.822
 3299W        W 7043   1.000   1.837   2.090
 3300W        W 7044   7.370  10.345  11.709
 3301W        W 7045   6.175   3.257   1.945
 3302W        W 7046   7.809   4.612   9.034
 3303W        W 7047   4.302   9.634   0.375
 3304W        W 7048  10.055   5.490  10.807
 3305W        W 7049   6.413   8.097   2.265
 3306W        W 7050   0.008   7.436  11.009
 3307W        W 7051   1.178   0.468   9.972
 3308W        W 7052   1.703   1.831   9.202
 3309W        W 7053   5.739   1.707   2.077
 3310W        W 7054   2.992   2.816  10.796
 3311W        W 7055   9.880   5.214   2.204
 3312W        W 7056   8.567   9.808   2.055
 3313W        W 7057  10.388   9.876   1.161
 3314W        W 7058   4.316   7.138   2.960
 3315W        W 7059   4.029   6.338   3.341
 3316W        W 7060   4.339   1.398   2.319
 3317W        W 7061   9.986   9.779   0.228
 3318W        W 7062   5.234   4.757   9.282
 3319W        W 7063   2.228  10.397   8.734
 3320W        W 7064   4.715   7.507   8.604
 3321W        W 7065   3.665   7.856   0.733
 3322W        W 7066   7.406   7.646   1.295
 3323W        W 7067   8.747   9.953   3.543
 3324W        W 7068   2.701   4.974   9.044
 3325W        W 7069   6.490   9.251  11.694
 3326W        W 7070   1.888   2.620  10.421
 3327W        W 7071   8.570   1.122   3.511
 3328W        W 7072   8.198   1.208   0.031
 3329W        W 7073   5.554   3.614   0.460
 3330W        W 7074   7.011   4.501   1.050
 3331W        W 7075   2.337   0.431  10.484
 3332W        W 7076   2.812   9.479   3.512
 3333W        W 7077   0.663   0.434  10.027
 3334W        W 7078   9.337   7.459   1.244
 3335W        W 7079  10.259   7.042   0.691
 3336W        W 7080   4.732   7.683   9.216
 3337W        W 7081   0.112   8.010   9.969
 3338W        W 7082   8.136   7.570  10.136
 3339W        W 7083   9.110   0.303   0.440
 3340W        W 7084   8.958   9.436   8.760
 3341W        W 7085   1.780   1.230   0.931
 3342W        W 7086   5.669   3.647   0.953
 3343W        W 7087   7.306   1.768   9.415
 3344W        W 7088   4.034  10.283   3.246
 3345W        W 7089   1.815   2.338   8.973
 3346W        W 7090   3.638   0.505  10.920
 3347W        W 7091   3.432   4.562   0.050
 3348W        W 7092   2.397   1.931  10.343
 3349W        W 7093   1.268   5.107   2.366
 3350W        W 7094   1.071   5.160   8.599
 3351W        W 7095   4.361   3.674  10.807
 3352W        W 7096   0.257   3.352   2.429
 3353W        W 7097   8.943   7.958   2.319
 3354W        W 7098   4.569   8.298   0.950
 3355W        W 7099   3.922   4.611   8.668
 3356W        W 7100   3.034  10.359   0.863
 3357W        W 7101   8.389   4.909   9.137
 3358W        W 7102   2.412   8.577   3.311
 3359W        W 7103   5.350   0.745   1.658
 3360W        W 7104   8.425   6.080   0.368
 3361W        W 7105   5.142   3.351   0.853
 3362W        W 7106   6.985   9.956   2.196
 3363W        W 7107   2.121   8.975   9.998
 3364W        W 7108   0.756   5.183   2.254
 3365W        W 7109   5.699   9.901  11.969
 3366W        W 7110   8.130   3.652   1.328
 3367W        W 7111   5.698   7.579   3.361
 3368W        W 7112   6.757   2.844   9.951
 3369W        W 7113   5.850   4.486   0.240
 3370W        W 7114   0.021   9.446   8.537
 3371W        W 7115   5.428   2.150   9.834
 3372W        W 7116   8.911   2.752   3.296
 3373W        W 7117   4.222   8.423   1.796
 3374W        W 7118  10.029  10.315   3.129
 3375W        W 7119   4.979   7.667   1.409
 3376W        W 7120   1.848   2.802   0.734
 3377W        W 7121   5.729   7.844  10.829
 3378W        W 7122   3.797   0.562  11.459
 3379W        W 7123   6.639   8.564   8.896
 3380W        W 7124   9.613   2.787   0.932
 3381W        W 7125   9.448   8.899  10.178
 3382W        W 7126   6.234   2.569   3.653
 3383W        W 7127   3.569   8.916  10.787
 3384W        W 7128   3.152   7.763   0.382
 3385W        W 7129   4.089   4.020   0.982
 3386W        W 7130   1.335   5.513   0.483
 3387W        W 7131   7.697   8.154   2.623
 3388W        W 7132   5.114   9.866   1.414
 3389W        W 7133   3.246   6.936   9.057
 3390W        W 7134   8.116   5.449   3.087
 3391W        W 7135   9.356   0.481   1.039
 3392W        W 7136   8.802   3.267  10.043
 3393W        W 7137   9.025   9.350  11.336
 3394W        W 7138   5.731   2.725   3.731
 3395W        W 7139   1.789   5.523  10.717
 3396W        W 7140   6.931   4.271  11.400
 3397W        W 7141   4.233   3.920   0.178
 3398W        W 7142   2.205   8.106  11.070
 3399W        W 7143   6.172   7.667   8.619
 3400W        W 7144   1.775   1.222   9.739
 3401W        W 7145   5.389   6.485   0.035
 3402W        W 7146   1.303   7.150  10.106
 3403W        W 7147   8.923   3.568  11.784
 3404W        W 7148   6.041   5.177  11.630
 3405W        W 7149   0.509   7.854  10.498
 3406W        W 7150   7.438   6.528  11.367
 3407W        W 7151   8.144   7.870   2.739
 3408W        W 7152   2.546   0.170   1.947
 3409W        W 7153  10.189   0.535  10.940
 3410W        W 7154   6.394  10.458   2.244
 3411W        W 7155   2.763   5.127   4.037
 3412W        W 7156   8.364  10.313  10.310
 3413W        W 7157   8.985   3.540   8.681
 3414W        W 7158   7.176   3.699   0.468
 3415W        W 7159   8.211   7.984   9.833
 3416W        W 7160   0.691   1.216  10.453
 3417W        W 7161   6.729   9.310   9.364
 3418W        W 7162   1.154   0.488   1.890
 3419W        W 7163   4.196   9.362  11.117
 3420W        W 7164   4.974   7.421  10.597
 3421W        W 7165   8.155   6.908   0.271
 3422W        W 7166   4.704   5.431   9.851
 3423W        W 7167   3.997   6.585  11.095
 3424W        W 7168   7.080   8.309   3.479
 3425W        W 7169   3.870   1.944   3.458
 3426W        W 7170   7.359   6.334   0.771
 3427W        W 7171   4.250   3.191   8.903
 3428W        W 7172   0.889   0.408   2.335
 3429W        W 7173   4.349   0.981   0.453
 3430W        W 7174   5.233   1.253   0.980
 3431W        W 7175   7.477   4.766   0.897
 3432W        W 7176   6.939   3.743  10.929
 3433W        W 7177   7.143   1.695   0.930
 3434W        W 7178   5.463   4.890   0.914
 3435W        W 7179   7.580   0.217   9.050
 3436W        W 7180   1.911   6.247   9.053
 3437W        W 7181   6.081   6.817   3.233
 3438W        W 7182   6.450   4.827  10.254
 3439W        W 7183   2.089   9.944   8.911
 3440W        W 7184   3.581   0.862  11.814
 3441W        W 7185   6.547   6.294   3.545
 3442W        W 7186   3.726   9.993  10.560
 3443W        W 7187   7.572   9.093   2.968
 3444W        W 7188   6.474   8.276   9.329
 3445W        W 7189   0.293   1.550   9.361
 3446W        W 7190   9.303   4.834   9.664
 3447W        W 7191   6.089   2.860   0.688
 3448W        W 7192   1.143   4.289   2.469
 3449W        W 7193   8.901   4.885   2.411
 3450W        W 7194   9.498   3.574   1.630
 3451W        W 7195   4.343   2.799   2.309
 3452W        W 7196   0.694   9.212  10.447
 3453W        W 7197   3.845   8.531   1.283
 3454W        W 7198   1.048   2.881   8.792
 3455W        W 7199   4.758   3.043   4.062
 3456W        W 7200   7.035   1.904   0.007
 3457W        W 7201   0.617   6.668   8.515
 3458W        W 7202   1.709   6.067   2.509
 3459W        W 7203   6.971   7.933   3.157
 3460W        W 7204   5.162   8.333   2.829
 3461W        W 7205   5.367   8.836   0.418
 3462W        W 7206   8.775   5.513   8.817
 3463W        W 7207   7.003   9.249  11.821
 3464W        W 7208  10.427  10.184   0.221
 3465W        W 7209   1.474   3.262   0.697
 3466W        W 7210   7.052   6.683   1.048
 3467W        W 7211  10.370   0.680   0.214
 3468W        W 7212   9.943   4.246   9.570
 3469W        W 7213   3.331   5.011  11.311
 3470W        W 7214   7.879   6.892   2.938
 3471W        W 7215   4.705   3.042   0.997
 3472W        W 7216   4.098   4.143  11.713
 3473W        W 7217   9.429   8.321   1.787
 3474W        W 7218   0.890   2.848   0.968
 3475W        W 7219   2.917   5.203   1.941
 3476W        W 7220   0.929   2.333   9.087
 3477W        W 7221   9.869   7.107  11.430
 3478W        W 7222   5.679   7.129  11.355
 3479W        W 7223  10.114   4.582   0.344
 3480W        W 7224   5.494  10.050   3.289
 3481W        W 7225   5.164   1.236   9.511
 3482W        W 7226   1.240   4.230   2.962
 3483W        W 7227   9.669   3.931   9.262
 3484W        W 7228   3.746   8.197  11.374
 3485W        W 7229   0.430   8.645  11.195
 3486W        W 7230  10.230   2.176   0.590
 3487W        W 7231   5.090   0.685  11.799
 3488W        W 7232   7.213   1.890  10.535
 3489W        W 7233   3.852   8.793   9.938
 3490W        W 7234   8.069   3.251   0.225
 3491W        W 7235   1.818   7.894   0.781
 3492W        W 7236   5.531   8.808   1.162
 3493W        W 7237   1.293   8.104  11.434
 3494W        W 7238   9.936   4.701   3.428
 3495W        W 7239   2.685   2.982   1.241
 3496W        W 7240   6.538   8.970   1.126
 3497W        W 7241   1.970   3.506   2.777
 3498W        W 7242   8.693   0.531  10.098
 3499W        W 7243   6.615   6.730   1.372
 3500W        W 7244   5.611   9.971  10.077
 3501W        W 7245   8.786   3.645  10.935
 3502W        W 7246  10.006   0.283   0.293
 3503W        W 7247   9.864   8.345   2.857
 3504W        W 7248   3.199   1.310   1.476
 3505W        W 7249   5.663   6.291   3.718
 3506W        W 7250   4.483   7.632   8.105
 3507W        W 7251   2.733   8.088  10.342
 3508W        W 7252   6.709   5.937  11.265
 3509W        W 7253   2.558  10.270   3.584
 3510W        W 7254   1.394  10.083  11.145
 3511W        W 7255   1.895   6.960   1.956
 3512W        W 7256   3.198   4.778   1.664
 3513W        W 7257   7.133   0.281   3.130
 3514W        W 7258   7.930   0.812  10.686
 3515W        W 7259   2.320   2.881   0.429
 3516W        W 7260   3.076   1.842  10.796
 3517W        W 7261   1.349   3.059   3.486
 3518W        W 7262   8.074   3.512   3.374
 3519W        W 7263  10.237   9.461   2.974
 3520W        W 7264   2.915   1.222  10.779
 3521W        W 7265   0.251   4.278   1.888
 3522W        W 7266   9.663  10.311   9.601
 3523W        W 7267   1.341   1.821  10.232
 3524W        W 7268   7.263   7.880   9.656
 3525W        W 7269   4.508   0.808   2.755
 3526W        W 7270   5.760   8.058   1.617
 3527W        W 7271   1.192   4.285  11.909
 3528W        W 7272   3.211   9.901  10.414
 3529W        W 7273   6.594   0.173   1.832
 3530W        W 7274   5.357   0.486   3.433
 3531W        W 7275   5.081   9.969   2.465
 3532W        W 7276   0.633   0.246  11.966
 3533W        W 7277   6.576   4.493  11.095
 3534W        W 7278   0.736   0.423  11.060
 3535W        W 7279   2.930   1.642  10.297
 3536W        W 7280   3.174   7.855   0.925
 3537W        W 7281   2.602   4.226  11.900
 3538W        W 7282   2.275   1.668  11.218
 3539W        W 7283   4.684   9.632   9.083
 3540W        W 7284   3.736   0.389   0.998
 3541W        W 7285   5.039   6.048   0.843
 3542W        W 7286   3.354   2.671  11.780
 3543W        W 7287   0.485   4.001   1.522
 3544W        W 7288   7.578   7.465  10.759
 3545W        W 7289   7.115   6.222  11.064
 3546W        W 7290   8.428   8.933   0.983
 3547W        W 7291   0.626   2.522   3.504
 3548W        W 7292   0.389   7.459  11.852
 3549W        W 7293   3.533   4.986  10.731
 3550W        W 7294   7.051   8.805   9.631
 3551W        W 7295   9.732   4.315   3.165
 3552W        W 7296   3.644   8.514  11.795
 3553W        W 7297   3.963   0.054   2.180
 3554W        W 7298   6.871   7.889   2.049
 3555W        W 7299   1.370   4.958  11.367
 3556W        W 7300   0.296   5.283  11.326
 3557W        W 7301   7.529   3.193   9.689
 3558W        W 7302  10.004   9.090   9.416
 3559W        W 7303   7.123   0.402   1.166
 3560W        W 7304   0.566   1.322   8.993
 3561W        W 7305   5.698   6.530   1.448
 3562W        W 7306   8.858   0.545  10.627
 3563W        W 7307   0.806   6.996  10.085
 3564W        W 7308   4.545   7.647  10.769
 3565W        W 7309   2.377   6.893   8.060
 3566W        W 7310   4.731   6.835   3.145
 3567W        W 7311   2.860   3.153  11.440
 3568W        W 7312  10.348   2.986   1.285
 3569W        W 7313   0.540   7.041   8.913
 3570W        W 7314   9.930   9.507   9.079
 3571W        W 7315   4.265   3.665   2.691
 3572W        W 7316   8.563   6.657   3.428
 3573W        W 7317   0.823   7.823   9.100
 3574W        W 7318   1.917   2.198   9.493
 3575W        W 7319   7.176   9.421   2.835
 3576W        W 7320   1.511   7.964   9.515
 3577W        W 7321   6.726   6.977  10.927
 3578W        W 7322   4.579   0.763  11.792
 3579W        W 7323   1.283   1.031  11.552
 3580W        W 7324   5.199   4.268   9.139
 3581W        W 7325   6.697   7.334   9.982
 3582W        W 7326   3.992   3.113   1.401
 3583W        W 7327   4.692   6.958   2.149
 3584W        W 7328   5.551   2.550  10.456
 3585W        W 7329   6.275   8.708   8.574
 3586W        W 7330   4.034   8.023   8.707
 3587W        W 7331   2.235   6.611   9.215
 3588W        W 7332  10.262   8.014   2.835
 3589W        W 7333   3.113   1.931   3.193
 3590W        W 7334  10.431   0.910  11.766
 3591W        W 7335   7.491  10.078   1.535
 3592W        W 7336   1.219   3.272   2.623
 3593W        W 7337   3.344   6.123   1.889
 3594W        W 7338   0.900   4.736   2.480
 3595W        W 7339   6.052   2.005  11.753
 3596W        W 7340   8.624   9.379   1.285
 3597W        W 7341   6.522   2.331   3.022
 3598W        W 7342   6.940   6.445  11.502
 3599W        W 7343   4.555   1.099   9.239
 3600W        W 7344   0.822   8.420   2.763
 3601W        W 7345  10.327   0.631   3.510
 3602W        W 7346   4.292   9.430  10.613
 3603W        W 7347   0.528   2.786   8.702
 3604W        W 7348   4.180   4.197   3.595
 3605W        W 7349   4.626  10.030   0.454
 3606W        W 7350   2.210   3.758   9.762
 3607W        W 7351   5.589   5.110   9.848
 3608W        W 7352   5.494   9.879  11.063
 3609W        W 7353   9.276   9.016   8.719
 3610W        W 7354   1.401   9.232   0.638
 3611W        W 7355   9.379   8.091  11.951
 3612W        W 7356   1.360   9.959   2.805
 3613W        W 7357   2.451   1.772   0.012
 3614W        W 7358   5.943   7.934   9.969
 3615W        W 7359   0.826  10.237   2.890
 3616W        W 7360   1.248   2.851   2.949
 3617W        W 7361   5.680   3.595   4.287
 3618W        W 7362   0.366   8.962  11.576
 3619W        W 7363   2.653   7.540  11.491
 3620W        W 7364   7.453  10.091  11.265
 3621W        W 7365   1.773   2.805   1.713
 3622W        W 7366   1.713   9.322  10.009
 3623W        W 7367  10.392   5.997   8.604
 3624W        W 7368   2.100   7.064   8.458
 3625W        W 7369  10.049   7.819  10.214
 3626W        W 7370   1.241   3.643  11.561
 3627W        W 7371   7.227   0.182   3.717
 3628W        W 7372   4.011   0.860  10.898
 3629W        W 7373   7.780   6.121  10.476
 3630W        W 7374   7.664   1.973   9.740
 3631W        W 7375   7.877   7.830   3.162
 3632W        W 7376   1.715   5.213  11.886
 3633W        W 7377   5.064   4.126   8.173
 3634W        W 7378   8.080   2.001  11.393
 3635W        W 7379   5.311   4.445   0.700
 3636W        W 7380   8.750   2.624   0.696
 3637W        W 7381   6.855   1.762   9.667
 3638W        W 7382   6.940   4.027  10.496
 3639W        W 7383   1.364   4.337   9.888
 3640W        W 7384   5.295   6.658   8.483
 3641W        W 7385  10.038   2.220  11.203
 3642W        W 7386   2.446   1.352   3.515
 3643W        W 7387   5.809   5.096   2.192
 3644W        W 7388   6.960   0.175   0.741
 3645W        W 7389  10.331   8.965   3.250
 3646W        W 7390   9.976   2.836   2.807
 3647W        W 7391   4.697   3.127  11.580
 3648W        W 7392   2.240   9.904   3.034
 3649W        W 7393  10.269   3.082  10.854
 3650W        W 7394   9.491   1.113  11.947
 3651W        W 7395   4.411   8.901  11.117
 3652W        W 7396   0.857   6.636   2.657
 3653W        W 7397   7.946   4.099   2.166
 3654W        W 7398   6.458   9.055   8.943
 3655W        W 7399   5.223   8.379   8.897
 3656W        W 7400   4.991  10.437   9.739
 3657W        W 7401   4.472   9.579   2.336
 3658W        W 7402   1.163   0.472   0.734
 3659W        W 7403   4.879   0.248  10.579
 3660W        W 7404   3.895   9.914   1.150
 3661W        W 7405   4.188   7.900  10.319
 3662W        W 7406   3.720   1.935  11.544
 3663W        W 7407  10.302   8.425   1.651
 3664W        W 7408   7.616   1.830   1.660
 3665W        W 7409   7.503   9.957  10.744
 3666W        W 7410   8.827   9.035   1.764
 3667W        W 7411   1.804   8.134  11.463
 3668W        W 7412   1.016   5.527   3.218
 3669W        W 7413   9.443   7.879   3.445
 3670W        W 7414   9.402   8.596  11.863
 3671W        W 7415   8.600   4.289  11.782
 3672W        W 7416   3.562  10.329   3.056
 3673W        W 7417   4.125   4.379  11.238
 3674W        W 7418   9.761   0.949   1.851
 3675W        W 7419   7.554   8.894   4.047
 3676W        W 7420   2.619   2.438   0.365
 3677W        W 7421   9.853   9.773  11.691
 3678W        W 7422   4.420   3.616   9.120
 3679W        W 7423   9.364   2.259   2.669
 3680W        W 7424   4.222   6.566   9.921
 3681W        W 7425   1.013   2.384   0.767
 3682W        W 7426   6.276   0.756   1.169
 3683W        W 7427   5.991   5.686  11.380
 3684W        W 7428   4.240   8.908  10.299
 3685W        W 7429   8.494   8.007   1.038
 3686W        W 7430   0.495   5.108   0.129
 3687W        W 7431   7.813   9.373   0.350
 3688W        W 7432   2.822   8.985   3.331
 3689W        W 7433   2.211   1.220   1.196
 3690W        W 7434   9.897   2.315   2.752
 3691W        W 7435   1.806   1.414   1.451
 3692W        W 7436   0.289   4.914  11.687
 3693W        W 7437   8.925   7.988   2.847
 3694W        W 7438   8.945   1.757   9.331
 3695W        W 7439   4.576   9.084   2.463
 3696W        W 7440   8.338   2.365   2.529
 3697W        W 7441   3.572   1.296   0.430
 3698W        W 7442   8.290   6.310   3.722
 3699W        W 7443   1.815   4.823  11.582
 3700W        W 7444   6.746   6.711   9.046
 3701W        W 7445   7.632   0.904   0.710
 3702W        W 7446   8.583   1.459  10.964
 3703W        W 7447   2.086   9.310  10.360
 3704W        W 7448   9.904   4.652   9.936
 3705W        W 7449   3.802   9.136  10.352
 3706W        W 7450   0.689   9.405   2.246
 3707W        W 7451   2.642   2.234  11.891
 3708W        W 7452   2.839   3.079   3.246
 3709W        W 7453   9.971   6.408   1.873
 3710W        W 7454   1.441   3.616   8.684
 3711W        W 7455   9.413   3.949  11.548
 3712W        W 7456   8.302   9.992  10.721
 3713W        W 7457   2.022   4.864   3.650
 3714W        W 7458   0.748   6.518   2.134
 3715W        W 7459   0.629   0.326   1.898
 3716W        W 7460   9.709   4.199   8.826
 3717W        W 7461   0.872   2.762  11.867
 3718W        W 7462   8.104   7.951  11.784
 3719W        W 7463   6.458   8.460  10.846
 3720W        W 7464   3.535   7.578   9.350
 3721W        W 7465   3.278   3.802   2.655
 3722W        W 7466   6.012   6.093  10.021
 3723W        W 7467  10.402   8.181  11.921
 3724W        W 7468   9.798   5.013   0.817
 3725W        W 7469   7.460   4.589  11.029
 3726W        W 7470   5.187   8.396  10.078
 3727W        W 7471  10.327   5.125  10.565
 3728W        W 7472  10.310   6.996   1.204
 3729W        W 7473   7.142   7.240  10.802
 3730W        W 7474   7.627   9.173   9.709
 3731W        W 7475   8.599   9.258   9.554
 3732W        W 7476   9.603   3.450   9.444
 3733W        W 7477   0.045   0.877   9.737
 3734W        W 7478   9.901   9.307   9.906
 3735W        W 7479   9.855   6.100   9.486
 3736W        W 7480   6.924  10.158  11.872
 3737W        W 7481   5.476   9.997   1.727
 3738W        W 7482   5.499   3.327   9.847
 3739W        W 7483   9.561   6.639   1.689
 3740W        W 7484   5.062   8.503  11.543
 3741W        W 7485   3.741  10.474  10.832
 3742W        W 7486   9.363   9.473   0.518
 3743W        W 7487   4.784   8.674   8.862
 3744W        W 7488   9.334  10.314  11.858
 3745W        W 7489   3.713   8.663   1.761
 3746W        W 7490  10.354   5.519   9.952
 3747W        W 7491   1.493   3.669   2.781
 3748W        W 7492   6.659   8.454   1.340
 3749W        W 7493   2.882   7.450   2.330
 3750W        W 7494   3.047   5.086  10.903
 3751W        W 7495   5.269   9.665   0.055
 3752W        W 7496   0.028   3.176   9.928
 3753W        W 7497   9.389   3.282   0.292
 3754W        W 7498   8.910   8.342   1.077
 3755W        W 7499   4.261   6.812   3.360
 3756W        W 7500   9.997   8.823   0.562
 3757W        W 7501   2.423   3.391   0.375
 3758W        W 7502   7.387   2.445   0.922
 3759W        W 7503   6.704   0.309   8.748
 3760W        W 7504   2.637   6.938   8.522
 3761W        W 7505   0.270   3.341   0.328
 3762W        W 7506   9.410   6.236   3.075
 3763W        W 7507   7.605   0.018   9.927
 3764W        W 7508   2.973   6.836   2.917
 3765W        W 7509   1.414   8.215   3.103
 3766W        W 7510   2.862   2.885   0.357
 3767W        W 7511   1.274   9.851   8.588
 3768W        W 7512   5.775   4.241   3.613
 3769W        W 7513   0.191   4.182   2.829
 3770W        W 7514   9.765   5.868  11.034
 3771W        W 7515   6.006  10.372   9.916
 3772W        W 7516   4.228   7.326   0.461
 3773W        W 7517   7.335   9.021   0.210
 3774W        W 7518  10.333   9.480   2.484
 3775W        W 7519   3.250   7.073  11.736
 3776W        W 7520   2.492   7.858  11.849
 3777W        W 7521   5.705   0.716  11.419
 3778W        W 7522   9.143   2.291   3.148
 3779W        W 7523   3.751   3.192  11.186
 3780W        W 7524   4.701   3.159   3.197
 3781W        W 7525   7.388   6.970   1.633
 3782W        W 7526   2.387   9.892   9.571
 3783W        W 7527   8.319   3.762  11.073
 3784W        W 7528   5.656   9.097   0.758
 3785W        W 7529   3.841   9.428   2.920
 3786W        W 7530   1.759   9.531  11.285
 3787W        W 7531   1.823   6.467   2.996
 3788W        W 7532   3.362   7.391   8.920
 3789W        W 7533   0.240   1.660   8.357
 3790W        W 7534   6.543   0.180  11.490
 3791W        W 7535   4.698   4.581  11.201
 3792W        W 7536   8.238   2.651   0.747
 3793W        W 7537   6.206   8.212   1.390
 3794W        W 7538   0.794   9.300  11.559
 3795W        W 7539   5.140   6.041   2.446
 3796W        W 7540   2.698   8.119  10.861
 3797W        W 7541   6.131   4.259   1.237
 3798W        W 7542   4.747   8.569  10.283
 3799W        W 7543   5.611   9.041  10.533
 3800W        W 7544   7.485   0.086  10.413
 3801W        W 7545   4.503   4.714  10.354
 3802W        W 7546   7.130   4.928   3.339
 3803W        W 7547   4.947   7.378   8.132
 3804W        W 7548   8.023   3.208   1.586
 3805W        W 7549   5.471  10.445   9.941
 3806W        W 7550   9.174   6.702   0.138
 3807W        W 7551   9.580   8.964   9.705
 3808W        W 7552   2.201   0.757   9.659
 3809W        W 7553   8.050   6.700  10.270
 3810W        W 7554   5.254   7.120   4.181
 3811W        W 7555   7.362   7.144  10.342
 3812W        W 7556   3.044   6.625  11.769
 3813W        W 7557   0.296   2.897   9.584
 3814W        W 7558   6.237   7.039   3.999
 3815W        W 7559   1.810   6.716   1.505
 3816W        W 7560   1.123   5.273   1.022
 3817W        W 7561   8.715   7.427   3.552
 3818W        W 7562   1.327   7.093  10.634
 3819W        W 7563   8.833  10.262   0.889
 3820W        W 7564   7.060   7.100   8.926
 3821W        W 7565   1.808   4.963   2.261
 3822W        W 7566   4.224   5.210  10.088
 3823W        W 7567   6.185   8.362   2.864
 3824W        W 7568   5.055   3.360   0.357
 3825W        W 7569   3.192   1.006   2.857
 3826W        W 7570  10.426   0.634   1.376
 3827W        W 7571   1.563   7.763   2.395
 3828W        W 7572   6.946   6.275   8.116
 3829W        W 7573   5.951   9.641  11.023
 3830W        W 7574   4.461   1.700   2.821
 3831W        W 7575   8.136   2.772   2.798
 3832W        W 7576   8.590   6.784   0.936
 3833W        W 7577   4.845   1.322   2.135
 3834W        W 7578   9.372  10.172   2.068
 3835W        W 7579   9.999  10.147   0.948
 3836W        W 7580   7.667   8.141   0.031
 3837W        W 7581   3.306   5.992   9.162
 3838W        W 7582   2.261   5.992  11.893
 3839W        W 7583   8.402   7.046  10.417
 3840W        W 7584   0.210   7.171   0.963
 3841W        W 7585   8.539   2.831   9.988
 3842W        W 7586   5.135   6.481   2.159
 3843W        W 7587   1.398   6.910   8.869
 3844W        W 7588   5.630   3.333   2.786
 3845W        W 7589   8.128   6.495   3.183
 3846W        W 7590   4.670   9.860  10.820
 3847W        W 7591   9.012   4.746   1.541
 3848W        W 7592   1.754   2.880   9.982
 3849W        W 7593   7.057   8.929   2.849
 3850W        W 7594   6.119   6.505  10.860
 3851W        W 7595   1.348   3.300   2.150
 3852W        W 7596   7.050   2.737  11.549
 3853W        W 7597   9.846  10.216  11.951
 3854W        W 7598   3.776   8.002   9.536
 3855W        W 7599   3.156   1.433   1.984
 3856W        W 7600   6.476   0.212   0.454
 3857W        W 7601   5.082   1.776  10.748
 3858W        W 7602   2.285   5.551  11.488
 3859W        W 7603   5.361   5.707   8.586
 3860W        W 7604   2.229   7.351   9.715
 3861W        W 7605   6.150   8.081  11.089
 3862W        W 7606   1.925   7.645   9.453
 3863W        W 7607   6.943   3.482   2.540
 3864W        W 7608   1.889   4.515   1.409
 3865W        W 7609   0.345   0.990   2.685
 3866W        W 7610   0.914   5.077   9.979
 3867W        W 7611   0.469   4.836  10.126
 3868W        W 7612   4.642   5.375  11.191
 3869W        W 7613   5.135   3.810   0.144
 3870W        W 7614   4.315   4.593  10.820
 3871W        W 7615   5.591   3.314   2.280
 3872W        W 7616   2.164   9.770  10.544
 3873W        W 7617   7.631   9.597   1.654
 3874W        W 7618   4.121   6.029   0.989
 3875W        W 7619  10.326   1.793  11.454
 3876W        W 7620   8.957   2.862   1.461
 3877W        W 7621   0.589   5.918   1.435
 3878W        W 7622   7.405   0.537   9.464
 3879W        W 7623   8.501   3.899   3.322
 3880W        W 7624   9.073   2.245  11.466
 3881W        W 7625   9.344   4.633  10.115
 3882W        W 7626   1.972   9.091   2.819
 3883W        W 7627   1.793   0.843   9.344
 3884W        W 7628   9.440   1.288  10.931
 3885W        W 7629   8.567   4.585  11.328
 3886W        W 7630   8.470   2.726   8.950
 3887W        W 7631   8.783   1.928   3.166
 3888W        W 7632   7.097   7.858   8.525
 3889W        W 7633   1.978   7.692   2.688
 3890W        W 7634   9.872   0.675   0.965
 3891W        W 7635   1.177   4.030   1.443
 3892W        W 7636   5.744   1.282  10.762
 3893W        W 7637   8.051   7.834  11.245
 3894W        W 7638   2.282   5.275   3.478
 3895W        W 7639   8.034   9.804   9.279
 3896W        W 7640   2.667   8.963  10.978
 3897W        W 7641  10.482   1.850  11.955
 3898W        W 7642   9.434   8.605   2.748
 3899W        W 7643   3.213   4.708   3.612
 3900W        W 7644   9.744   0.854  11.018
 3901W        W 7645   7.156   6.708  10.763
 3902W        W 7646   9.027   0.719   0.729
 3903W        W 7647   9.966   9.976  10.811
 3904W        W 7648   5.242   9.718  10.378
 3905W        W 7649   7.490   8.607   3.152
 3906W        W 7650   5.710   6.462   0.922
 3907W        W 7651   1.408   9.533  10.891
 3908W        W 7652   9.819   3.768   9.801
 3909W        W 7653   7.059   0.070   9.070
 3910W        W 7654   6.480   6.638  11.214
 3911W        W 7655   1.750   6.198  11.876
 3912W        W 7656   5.245   4.457  11.020
 3913W        W 7657   5.689   4.207   2.149
 3914W        W 7658   5.568   5.098   3.132
 3915W        W 7659   1.956   3.216   9.658
 3916W        W 7660   6.156   3.336  11.430
 3917W        W 7661   6.383   7.742   1.271
 3918W        W 7662   5.636   0.265   0.397
 3919W        W 7663   3.272   4.995   4.040
 3920W        W 7664   8.197   6.683   2.218
 3921W        W 7665   1.076   3.525   1.478
 3922W        W 7666   4.808   9.477   3.187
 3923W        W 7667  10.468  10.483  10.207
 3924W        W 7668   9.276   4.064   2.495
 3925W        W 7669   8.345   1.880   2.371
 3926W        W 7670   3.696   4.003   1.388
 3927W        W 7671   1.050   7.090   9.638
 3928W        W 7672   9.676   4.741  10.470
 3929W        W 7673   2.799   1.201   0.771
 3930W        W 7674   2.269   8.316  11.563
 3931W        W 7675   8.036   8.468  11.750
 3932W        W 7676   1.859  10.013   1.628
 3933W        W 7677   6.534   9.348  10.353
 3934W        W 7678   9.635   3.793  10.611
 3935W        W 7679  10.481   0.820  11.250
 3936W        W 7680   1.259   1.407   2.241
 3937W        W 7681   9.440   2.678   1.520
 3938W        W 7682   4.878  10.232   2.975
 3939W        W 7683   4.139   2.694   9.068
 3940W        W 7684   9.347  10.031   2.558
 3941W        W 7685   5.612   6.643   8.924
 3942W        W 7686   8.072   2.884  10.727
 3943W        W 7687   1.796   2.765  11.800
 3944W        W 7688   3.595   0.881   2.580
 3945W        W 7689   8.497   8.911  10.282
 3946W        W 7690   0.280   4.194   9.231
 3947W        W 7691   1.573   1.458   8.875
 3948W        W 7692   4.953   2.240  11.887
 3949W        W 7693   8.595  10.467  10.870
 3950W        W 7694   2.141   1.088  10.065
 3951W        W 7695   0.971   6.974   2.091
 3952W        W 7696   8.093   0.677   1.728
 3953W        W 7697   7.300   6.197  10.357
 3954W        W 7698   9.345   0.781   3.520
 3955W        W 7699  10.499   5.083   9.711
 3956W        W 7700   8.816   5.087  10.510
 3957W        W 7701   9.037   4.569   8.772
 3958W        W 7702   4.887   3.705   8.398
 3959W        W 7703   4.966   5.679   0.280
 3960W        W 7704   2.375   0.366   2.813
 3961W        W 7705   9.726   9.028   3.489
 3962W        W 7706  10.439   8.602  10.097
 3963W        W 7707   6.345  10.334   2.750
 3964W        W 7708   4.240   5.348  10.580
 3965W        W 7709   7.079   3.359  11.231
 3966W        W 7710   1.448   1.678   0.233
 3967W        W 7711   7.440   5.201   9.332
 3968W        W 7712   3.308   0.431   1.303
 3969W        W 7713   1.244   3.657   1.011
 3970W        W 7714   7.095   6.106   9.076
 3971W        W 7715   6.010   2.103   9.161
 3972W        W 7716   9.856   1.839   9.381
 3973W        W 7717   0.849   1.690   2.555
 3974W        W 7718   3.314   9.572  11.821
 3975W        W 7719   6.580   0.499   0.863
 3976W        W 7720   3.349   3.952   3.123
 3977W        W 7721   3.419   5.403   3.197
 3978W        W 7722   7.223   4.119  11.818
 3979W        W 7723   1.226   6.107  11.864
 3980W        W 7724   0.834   9.650   9.507
 3981W        W 7725   7.169   7.514   2.375
 3982W        W 7726   9.378   3.633   1.132
 3983W        W 7727   3.918   9.695   0.688
 3984W        W 7728   5.658   1.762   3.056
 3985W        W 7729   3.271   4.873   0.559
 3986W        W 7730   5.087   4.057  10.744
 3987W        W 7731   8.046   5.376   1.236
 3988W        W 7732   4.510   4.126   9.412
 3989W        W 7733   5.344   9.771  11.556
 3990W        W 7734   7.472   9.613  10.025
 3991W        W 7735   6.875   9.389  10.725
 3992W        W 7736   0.196   6.165   0.789
 3993W        W 7737   2.645   5.658   9.919
 3994W        W 7738   3.171   4.208   1.258
 3995W        W 7739  10.214   6.852   9.384
 3996W        W 7740   9.618   7.412   0.821
 3997W        W 7741   7.064   5.236   0.284
 3998W        W 7742   5.926   0.825   9.958
 3999W        W 7743   8.120   8.445   2.615
 4000W        W 7744   6.585   6.681   2.242
 4001W        W 7745   6.880   4.838   9.947
 4002W        W 7746   3.864   3.070   9.247
 4003W        W 7747   1.760   2.236  11.352
 4004W        W 7748   6.851  10.330   2.520
 4005W        W 7749   1.384  10.378  10.281
 4006W        W 7750   5.945   4.746  10.339
 4007W        W 7751   4.945   7.878   8.270
 4008W        W 7752   8.409   3.617   8.430
 4009W        W 7753  10.336   0.839   8.694
 4010W        W 7754   8.953   2.495   1.834
 4011W        W 7755   2.891   4.629   4.085
 4012W        W 7756   4.625   6.477   2.339
 4013W        W 7757   5.035   7.158   1.327
 4014W        W 7758   0.689   6.162   0.956
 4015W        W 7759   9.547   0.054   0.263
 4016W        W 7760   2.881   3.723  10.536
 4017W        W 7761   3.239   8.323  11.514
 4018W        W 7762   7.868   2.421  10.510
 4019W        W 7763   0.863   1.370   0.925
 4020W        W 7764   9.487   1.841   0.944
 4021W        W 7765   7.188   2.612   2.552
 4022W        W 7766   1.433   8.450   1.027
 4023W        W 7767   3.104   2.504   0.605
 4024W        W 7768   7.572   6.124   2.721
 4025W        W 7769   5.639   1.134   1.263
 4026W        W 7770   7.022   9.651   0.825
 4027W        W 7771   9.600   7.204  10.103
 4028W        W 7772   5.960   6.727   4.299
 4029W        W 7773   4.606   3.223  10.807
 4030W        W 7774  10.055   0.999   1.412
 4031W        W 7775   0.381   8.937   1.560
 4032W        W 7776   2.688   7.877   1.161
 4033W        W 7777  10.380   8.516   0.740
 4034W        W 7778   9.965   5.469   1.756
 4035W        W 7779   6.669   5.283  11.974
 4036W        W 7780   5.069   7.893  10.281
 4037W        W 7781   9.931   4.981  10.854
 4038W        W 7782   9.845   1.444  10.179
 4039W        W 7783   4.240   4.438   9.086
 4040W        W 7784   5.593   9.499  10.719
 4041W        W 7785   4.520   5.995   0.676
 4042W        W 7786   7.638   5.550   3.973
 4043W        W 7787   2.155   0.349   9.996
 4044W        W 7788   6.498   9.980   2.426
 4045W        W 7789   5.247   9.440   0.654
 4046W        W 7790   9.662   9.810  11.209
 4047W        W 7791   7.946   0.297  10.548
 4048W        W 7792   0.808   7.927  11.511
 4049W        W 7793  10.210  10.310   1.937
 4050W        W 7794   5.692   3.589  10.933
 4051W        W 7795   2.307   5.047  11.614
 4052W        W 7796  10.071   5.708   2.192
 4053W        W 7797   4.730   2.719   9.796
 4054W        W 7798   6.037   7.214   3.563
 4055W        W 7799   7.567   6.647  10.449
 4056W        W 7800   1.665   8.611  11.523
 4057W        W 7801   5.963   7.129   1.876
 4058W        W 7802   8.752   1.855   3.660
 4059W        W 7803   4.491   7.951   8.499
 4060W        W 7804   8.520   6.212   9.130
 4061W        W 7805   3.389   4.645   8.656
 4062W        W 7806   8.366   9.267   0.065
 4063W        W 7807   1.349   6.347   2.747
 4064W        W 7808  10.180   4.218   2.888
 4065W        W 7809   7.460   5.837   0.807
 4066W        W 7810  10.471   1.738   2.517
 4067W        W 7811   2.923   2.043   9.475
 4068W        W 7812   0.118   1.585   1.817
 4069W        W 7813   4.057   6.921  10.296
 4070W        W 7814   6.749   4.589   3.268
 4071W        W 7815   7.173   2.661   1.363
 4072W        W 7816   4.865   2.824   2.306
 4073W        W 7817   4.867   9.508   2.677
 4074W        W 7818   5.136   4.674  11.481
 4075W        W 7819   8.951   0.379   1.433
 4076W        W 7820   4.003   7.552   3.030
 4077W        W 7821   1.827   3.237   2.006
 4078W        W 7822   1.679   9.500   2.925
 4079W        W 7823   7.131   7.882  11.469
 4080W        W 7824   1.284   4.268   0.407
 4081W        W 7825   9.367   8.605   9.014
 4082W        W 7826   0.813   3.828  11.783
 4083W        W 7827   0.690   7.097   0.746
 4084W        W 7828   3.323   8.800   3.289
 4085W        W 7829   9.578  10.306   3.371
 4086W        W 7830   1.188   2.873   0.519
 4087W        W 7831   6.936   9.964  11.364
 4088W        W 7832   2.329   3.841   2.652
 4089W        W 7833   4.948   4.197   0.949
 4090W        W 7834   4.642   4.933   9.906
 4091W        W 7835   2.820   1.149   3.227
 4092W        W 7836   8.987   8.424   2.577
 4093W        W 7837   3.288   2.383  10.127
 4094W        W 7838   1.789   6.231  11.328
 4095W        W 7839   4.626   7.626  10.271
 4096W        W 7840   6.489   3.033  10.503
 4097W        W 7841   7.333   1.042   9.406
 4098W        W 7842   7.036   7.452   9.435
 4099W        W 7843   4.097  10.101   0.358
 4100W        W 7844   8.389   1.983  10.972
 4101W        W 7845   5.673   1.134   0.727
 4102W        W 7846   8.184   6.615   1.635
 4103W        W 7847   9.390   3.112  11.264
 4104W        W 7848   0.287   7.830   0.263
 4105W        W 7849   0.288   1.748   8.891
 4106W        W 7850   4.464   1.036  10.996
 4107W        W 7851   7.476   2.742   1.803
 4108W        W 7852   8.333   0.920   9.229
 4109W        W 7853   4.683   3.030   0.113
 4110W        W 7854   5.867   2.388   0.048
 4111W        W 7855   7.376   5.024  11.355
 4112W        W 7856   7.449   3.260   1.885
 4113W        W 7857   1.234   7.427   2.160
 4114W        W 7858   4.179   0.778  10.400
 4115W        W 7859   6.732   1.465  11.948
 4116W        W 7860   2.659   3.875  11.490
 4117W        W 7861   6.948   0.974   0.273
 4118W        W 7862   1.437   8.681  10.465
 4119W        W 7863   8.318   9.812  10.198
 4120W        W 7864   8.051   6.017   0.008
 4121W        W 7865   1.899   8.532  11.076
 4122W        W 7866   9.783   9.853   9.819
 4123W        W 7867   3.788   1.808   9.020
 4124W        W 7868   4.461   8.121   0.098
 4125W        W 7869   5.141   9.418   1.149
 4126W        W 7870   1.307  10.312   9.785
 4127W        W 7871   6.531   3.650   3.219
 4128W        W 7872   2.811   8.559  10.611
 4129W        W 7873   5.551   6.409  11.117
 4130W        W 7874   7.058   8.659   1.111
 4131W        W 7875   5.121   8.960   0.863
 4132W        W 7876  10.152  10.281   1.416
 4133W        W 7877   1.472   9.079   2.665
 4134W        W 7878   4.615   5.541   1.888
 4135W        W 7879   1.277   8.448   8.752
 4136W        W 7880   4.479  10.456  11.429
 4137W        W 7881  10.401   3.648   2.143
 4138W        W 7882   8.073   7.493   9.607
 4139W        W 7883   4.061   6.824  11.535
 4140W        W 7884   7.413   7.601   3.228
 4141W        W 7885  10.068   6.831   2.413
 4142W        W 7886   2.806   4.515  10.484
 4143W        W 7887   6.109   0.200  11.759
 4144W        W 7888   0.287   0.344   2.299
 4145W        W 7889   2.782   5.525   0.750
 4146W        W 7890   4.587  10.335  10.548
 4147W        W 7891   6.168   0.293   8.807
 4148W        W 7892   5.648  10.394   1.464
 4149W        W 7893   6.926   3.803  10.043
 4150W        W 7894   2.893   8.866   2.822
 4151W        W 7895   7.575   5.266   1.386
 4152W        W 7896   2.316   5.676   0.488
 4153W        W 7897   9.423   7.622  11.047
 4154W        W 7898   7.411   9.116   2.460
 4155W        W 7899   8.669   2.400  11.886
 4156W        W 7900   8.961   5.917   9.908
 4157W        W 7901   8.924  10.051   1.763
 4158W        W 7902   3.721   8.091  10.459
 4159W        W 7903   3.299   2.142   0.898
 4160W        W 7904   0.056   2.875   0.812
 4161W        W 7905   0.763   2.902   1.492
 4162W        W 7906   4.135   8.824   9.438
 4163W        W 7907   3.611   8.055   9.060
 4164W        W 7908   1.582   2.281   2.290
 4165W        W 7909   0.270   5.976   3.202
 4166W        W 7910   4.786  10.378  11.003
 4167W        W 7911   0.247   6.036   2.683
 4168W        W 7912   0.929   5.486   9.681
 4169W        W 7913   5.040   6.508   2.659
 4170W        W 7914   1.887   9.899   9.393
 4171W        W 7915   7.993   8.826   9.562
 4172W        W 7916   5.130   1.330  10.011
 4173W        W 7917   4.798   2.043   1.011
 4174W        W 7918   6.627   4.252   2.315
 4175W        W 7919   2.739   0.678   1.501
 4176W        W 7920   3.365   8.583   2.840
 4177W        W 7921   6.137   0.471  11.287
 4178W        W 7922   7.759   0.426  10.995
 4179W        W 7923   2.509   7.005   0.838
 4180W        W 7924   9.971   5.509   8.966
 4181W        W 7925   8.102   3.034  11.735
 4182W        W 7926   5.491   0.771   2.497
 4183W        W 7927   5.546   7.292   0.682
 4184W        W 7928   2.245   8.592   2.804
 4185W        W 7929   3.299   3.720   1.190
 4186W        W 7930   7.227   3.910   8.946
 4187W        W 7931   2.685   8.529   9.706
 4188W        W 7932   6.069   3.843  10.696
 4189W        W 7933   7.658   4.231   3.526
 4190W        W 7934   2.355   4.820   3.174
 4191W        W 7935   0.299   1.243  11.260
 4192W        W 7936   8.000   7.372  11.037
 4193W        W 7937   6.469   5.860  10.393
 4194W        W 7938   0.257   9.511  10.040
 4195W        W 7939   5.047   6.657  11.258
 4196W        W 7940   2.150   6.020   2.801
 4197W        W 7941   9.250   9.039   0.944
 4198W        W 7942   0.075   3.738   9.418
 4199W        W 7943   2.202   3.315   2.359
 4200W        W 7944   7.091   1.156   3.395
 4201W        W 7945   3.207   7.723   2.663
 4202W        W 7946   9.418   5.057   2.322
 4203W        W 7947   8.692   1.773  10.594
 4204W        W 7948   3.177   5.583  10.988
 4205W        W 7949   1.783   0.286   2.618
 4206W        W 7950  10.003   2.784   2.266
 4207W        W 7951   6.742   4.838   1.292
 4208W        W 7952   3.062   8.805  11.455
 4209W        W 7953   8.789   8.909  11.484
 4210W        W 7954   2.130   8.981  10.915
 4211W        W 7955   5.876   7.658   0.570
 4212W        W 7956   8.484   8.131   3.098
 4213W        W 7957   3.628   5.615   0.308
 4214W        W 7958   5.003   6.861   0.883
 4215W        W 7959   2.315   9.336   1.638
 4216W        W 7960   2.623   2.390  11.406
 4217W        W 7961   2.860   5.080   9.855
 4218W        W 7962   8.003   2.350   9.538
 4219W        W 7963   6.698   2.330   9.776
 4220W        W 7964   0.928   8.313   3.286
 4221W        W 7965   8.878   4.610   9.829
 4222W        W 7966   1.858   6.528   0.571
 4223W        W 7967   3.438   8.195   1.791
 4224W        W 7968   4.267  10.271   1.860
 4225W        W 7969   3.359   5.782  10.553
 4226W        W 7970   6.031   1.706  10.269
 4227W        W 7971   1.390   3.714   1.852
 4228W        W 7972   3.410   9.596   0.690
 4229W        W 7973   7.096   6.559   3.295
 4230W        W 7974   5.457   1.990   1.733
 4231W        W 7975   2.120   4.665   0.529
 4232W        W 7976   4.951   1.456   3.454
 4233W        W 7977   9.267   8.471  10.417
 4234W        W 7978   8.556   8.067   1.531
 4235W        W 7979   3.782   3.187   1.876
 4236W        W 7980   0.241   6.476   9.443
 4237W        W 7981   6.004   1.738  10.767
 4238W        W 7982   3.704   4.905   3.142
 4239W        W 7983   2.114   1.323   0.193
 4240W        W 7984   2.740   2.376  10.810
 4241W        W 7985   8.004   1.353   0.485
 4242W        W 7986   6.973   4.188   0.271
 4243W        W 7987   5.619   0.477  11.891
 4244W        W 7988   2.280   6.732   1.271
 4245W        W 7989   9.808   9.275   0.360
 4246W        W 7990   4.072   9.000  10.760
 4247W        W 7991   7.170   1.846   2.963
 4248W        W 7992   6.977   8.418   9.280
 4249W        W 7993   8.865   4.065  11.404
 4250W        W 7994   2.250   4.462  10.327
 4251W        W 7995  10.026   5.547   0.887
 4252W        W 7996   6.928   7.123   1.464
 4253W        W 7997   3.090   5.011   9.381
 4254W        W 7998   8.064   8.919   2.826
 4255W        W 7999   9.227   0.568   2.315
 4256W        W 8000   5.650   0.395   9.223
 4257W        W 8001   2.704   3.598   9.140
 4258W        W 8002   8.943   1.474  10.241
 4259W        W 8003   0.688   9.302   2.734
 4260W        W 8004   7.840   5.040   3.263
 4261W        W 8005   0.793   1.822   1.241
 4262W        W 8006   6.619   8.575   3.223
 4263W        W 8007   7.451   3.436   2.410
 4264W        W 8008   0.003   5.570   0.222
 4265W        W 8009   4.637   5.556   1.374
 4266W        W 8010   3.179   5.131  11.884
 4267W        W 8011   3.325   0.477   9.566
 4268W        W 8012   7.622   4.747  10.347
 4269W        W 8013   4.345   4.932  11.280
 4270W        W 8014   1.630   8.834   9.997
 4271W        W 8015   6.016   6.606  10.313
 4272W        W 8016   4.295   1.763  10.651
 4273W        W 8017   8.477   6.683  10.982
 4274W        W 8018   0.291   8.639  11.982
 4275W        W 8019   7.395  10.496   0.986
 4276W        W 8020   6.562   9.863   9.263
 4277W        W 8021   7.205   0.911   9.980
 4278W        W 8022   6.263   2.870   2.374
 4279W        W 8023   3.726   8.222   0.267
 4280W        W 8024   8.425   3.207   9.214
 4281W        W 8025  10.365   0.354   2.623
 4282W        W 8026   4.007   4.284   9.543
 4283W        W 8027   4.152   3.531   1.725
 4284W        W 8028   6.760   3.717   9.037
 4285W        W 8029   9.596   7.609  11.889
 4286W        W 8030   3.829   2.820   2.268
 4287W        W 8031   0.539   9.330   1.229
 4288W        W 8032   6.302   3.182   3.232
 4289W        W 8033   9.868   4.253  10.482
 4290W        W 8034   7.718   2.721  11.891
 4291W        W 8035   3.664   6.885   2.280
 4292W        W 8036   1.220   8.734   1.916
 4293W        W 8037   4.195   3.960   1.478
 4294W        W 8038   4.067   9.927   2.881
 4295W        W 8039   2.626   5.947  10.850
 4296W        W 8040   8.399   0.555   2.723
 4297W        W 8041   5.697   0.344   1.710
 4298W        W 8042   0.997   7.497  10.788
 4299W        W 8043   6.655   0.489   3.109
 4300W        W 8044   6.107   8.134   3.668
 4301W        W 8045   2.848   8.787   0.788
 4302W        W 8046   2.183   7.651   3.566
 4303W        W 8047   5.986   7.210   0.341
 4304W        W 8048   6.687   9.633   3.473
 4305W        W 8049   4.271   9.933  10.496
 4306W        W 8050   9.398   7.797   9.028
 4307W        W 8051   4.187   3.128  11.734
 4308W        W 8052   6.464   4.067   1.848
 4309W        W 8053   6.264   7.906  11.598
 4310W        W 8054   3.308   0.231   3.220
 4311W        W 8055   4.242   8.118  11.320
 4312W        W 8056   1.390   5.796  10.461
 4313W        W 8057   5.856   1.871   1.406
 4314W        W 8058   2.110   5.125  10.800
 4315W        W 8059   7.956   2.282   0.442
 4316W        W 8060   5.711   9.352   3.585
 4317W        W 8061   8.501   2.734   1.687
 4318W        W 8062   4.129  10.406  11.899
 4319W        W 8063   8.763   6.609  11.810
 4320W        W 8064   6.926   0.437   0.279
 4321W        W 8065   0.362   1.481   2.711
 4322W        W 8066   0.230   6.049   9.010
 4323W        W 8067   2.820   0.360   1.086
 4324W        W 8068   3.833   3.852   0.487
 4325W        W 8069   2.986   7.910  11.704
 4326W        W 8070   3.961   8.279  10.032
 4327W        W 8071   2.712   6.878  10.730
 4328W        W 8072   4.104   0.077   9.952
 4329W        W 8073   3.783   9.555   8.988
 4330W        W 8074   2.800   8.051   0.181
 4331W        W 8075   4.662   2.039   9.522
 4332W        W 8076   5.987   5.001   0.963
 4333W        W 8077   2.641   6.600  11.441
 4334W        W 8078   6.626   0.248   2.639
 4335W        W 8079   2.651   2.261   9.065
 4336W        W 8080   0.440   1.714   2.223
 4337W        W 8081   9.812   7.963   0.207
 4338W        W 8082   2.634   8.027  11.363
 4339W        W 8083   9.900   7.970   3.235
 4340W        W 8084   4.449   2.395  11.046
 4341W        W 8085  10.392   8.944   1.757
 4342W        W 8086   2.630   5.998   3.899
 4343W        W 8087   8.877   8.748   0.763
 4344W        W 8088   4.061   8.015   2.818
 4345W        W 8089   5.665   6.230   1.868
 4346W        W 8090  10.446   6.608  10.118
 4347W        W 8091   9.895   3.736   2.161
 4348W        W 8092   3.856   5.090   9.764
 4349W        W 8093   0.818   4.174   9.063
 4350W        W 8094   3.302   8.966   1.918
 4351W        W 8095   8.529   6.752   9.072
 4352W        W 8096   9.410   9.382  11.018
 4353W        W 8097   6.046  10.010   0.368
 4354W        W 8098   3.169  10.447  11.885
 4355W        W 8099   9.798   7.449   8.924
 4356W        W 8100   6.071   9.330   9.146
 4357W        W 8101   1.934   1.775   0.048
 4358W        W 8102   2.554   8.517   1.866
 4359W        W 8103   7.604   5.663  10.363
 4360W        W 8104   5.152   5.237  10.072
 4361W        W 8105  10.326   0.914   0.958
 4362W        W 8106   8.096   3.160   0.716
 4363W        W 8107   9.129   8.608   0.306
 4364W        W 8108   3.609   4.226   2.726
 4365W        W 8109   0.525   1.333   1.384
 4366W        W 8110   0.998   6.119  10.348
 4367W        W 8111   9.342   4.929  11.405
 4368W        W 8112   0.843   9.645   1.840
 4369W        W 8113   0.423   9.825   3.285
 4370W        W 8114   2.701   4.692  11.742
 4371W        W 8115   5.266   7.682   0.485
 4372W        W 8116   9.368   9.547   1.035
 4373W        W 8117   2.826   3.657   9.628
 4374W        W 8118   1.762   2.933   1.226
 4375W        W 8119   1.385   2.704   0.976
 4376W        W 8120   4.664   0.083   9.037
 4377W        W 8121   9.841   3.553   0.230
 4378W        W 8122   2.799   7.180   1.845
 4379W        W 8123   1.153   2.826  11.218
 4380W        W 8124   1.876   9.530   1.452
 4381W        W 8125   7.602   2.325   1.383
 4382W        W 8126   4.939   2.230  10.973
 4383W        W 8127  10.229   8.036   0.930
 4384W        W 8128   8.349   7.100   3.622
 4385W        W 8129   5.915   3.960   0.272
 4386W        W 8130   7.522   8.455   0.977
 4387W        W 8131   3.713   4.520   3.581
 4388W        W 8132   9.040   5.512  10.752
 4389W        W 8133   0.536   5.731  11.516
 4390W        W 8134   6.115   2.863   0.175
 4391W        W 8135   1.631   4.128  10.273
 4392W        W 8136   4.361   2.192   1.900
 4393W        W 8137   3.401  10.068   9.538
 4394W        W 8138   3.838   2.624   1.407
 4395W        W 8139   9.699   0.178  11.769
 4396W        W 8140   9.872   8.858   3.020
 4397W        W 8141   5.459   7.236   1.998
 4398W        W 8142   2.112   3.956  10.219
 4399W        W 8143   7.984   5.612   0.334
 4400W        W 8144   2.338   7.871  10.598
 4401W        W 8145   2.253   5.518  10.458
 4402W        W 8146   8.594   5.775   2.212
 4403W        W 8147   4.909   0.727   3.154
 4404W        W 8148   0.436   2.194   3.153
 4405W        W 8149   8.200   4.730   0.676
 4406W        W 8150   3.684   1.430   1.969
 4407W        W 8151   0.792  10.172   3.404
 4408W        W 8152   8.107   8.524   2.120
 4409W        W 8153   2.833   4.522   2.411
 4410W        W 8154   0.757   3.109   0.287
 4411W        W 8155   2.806   3.759   2.848
 4412W        W 8156   9.512   9.031   2.302
 4413W        W 8157   8.686   6.731   2.369
 4414W        W 8158   6.436   4.136   9.187
 4415W        W 8159   7.230   9.235   8.734
 4416W        W 8160   9.992   5.124   9.604
 4417W        W 8161   3.160  10.498   2.770
 4418W        W 8162   6.896   5.504   2.557
 4419W        W 8163   3.658   1.266   2.945
 4420W        W 8164   3.822   9.037   9.043
 4421W        W 8165   6.981   3.159   1.702
 4422W        W 8166   0.810   8.946   9.890
 4423W        W 8167   3.386   3.087  11.508
 4424W        W 8168   4.023   7.534   1.767
 4425W        W 8169   0.340   6.615   1.832
 4426W        W 8170   9.394   4.402  11.343
 4427W        W 8171   3.192   5.344   0.395
 4428W        W 8172   6.213   3.940   3.527
 4429W        W 8173   4.719   7.095   0.128
 4430W        W 8174   4.738   3.509  11.951
 4431W        W 8175   5.647   1.768   9.002
 4432W        W 8176   8.873   4.750   3.394
 4433W        W 8177   1.372   5.227   9.795
 4434W        W 8178   8.372   3.246   9.735
 4435W        W 8179   7.956   9.118  11.074
 4436W        W 8180   0.791   1.257   2.858
 4437W        W 8181   3.316   8.846   9.273
 4438W        W 8182   7.560   2.003   0.673
 4439W        W 8183   7.471   8.198   8.591
 4440W        W 8184   7.440   7.881   0.428
 4441W        W 8185   8.509   6.548  10.461
 4442W        W 8186   0.666   6.848   9.381
 4443W        W 8187   5.630   5.077   9.335
 4444W        W 8188   5.988   1.282   3.229
 4445W        W 8189   5.111   0.813   8.717
 4446W        W 8190   5.623   0.039   3.408
 4447W        W 8191   5.929   7.319   1.001
 4448W        W 8192   1.288   9.907   1.798
 4449W        W 8193   6.893   5.151   2.928
 4450W        W 8194   7.939   9.734   9.812
 4451W        W 8195   6.395   6.963   0.519
 4452W        W 8196   9.517   9.999   8.933
 4453W        W 8197   9.795   4.675  11.471
 4454W        W 8198   5.984   2.768   3.250
 4455W        W 8199   4.652  10.092   8.871
 4456W        W 8200   4.418   3.651   8.614
 4457W        W 8201   8.984   6.584   3.141
 4458W        W 8202   4.686   6.917   2.646
 4459W        W 8203   2.695   7.461   3.428
 4460W        W 8204   5.655   0.783   0.318
 4461W        W 8205   3.402   5.955   4.050
 4462W        W 8206   9.705   5.716   1.381
 4463W        W 8207   1.779   4.614  10.203
 4464W        W 8208   9.167   9.810  11.162
 4465W        W 8209   7.931   8.977   2.317
 4466W        W 8210   6.988   2.182   9.354
 4467W        W 8211   4.789   1.761   0.504
 4468W        W 8212   4.795   7.329   2.951
 4469W        W 8213   1.397   1.266   9.377
 4470W        W 8214   9.787  10.479   1.711
 4471W        W 8215  10.205   5.138   8.670
 4472W        W 8216   7.627   6.566   9.557
 4473W        W 8217   2.212   2.208   0.139
 4474W        W 8218   8.471   2.904   0.344
 4475W        W 8219   8.309   6.538   0.584
 4476W        W 8220   5.640   5.694   2.745
 4477W        W 8221   5.176   4.361  10.359
 4478W        W 8222   6.384   2.205   8.810
 4479W        W 8223   3.281   9.111   0.799
 4480W        W 8224   4.324   3.384  10.393
 4481W        W 8225   4.891   1.551   1.214
 4482W        W 8226   7.519   1.822  11.807
 4483W        W 8227   8.079   3.974   3.615
 4484W        W 8228   3.653   2.713   9.533
 4485W        W 8229   2.837   4.331  11.400
 4486W        W 8230   9.415   1.899   9.082
 4487W        W 8231   3.396   4.438   4.007
 4488W        W 8232   9.265   3.292  10.334
 4489W        W 8233   7.765   3.232  10.985
 4490W        W 8234   1.371   5.581   1.965
 4491W        W 8235   1.823   8.188   2.210
 4492W        W 8236   7.914   3.711  10.792
 4493W        W 8237   5.295   4.682   2.677
 4494W        W 8238   1.882   7.143   0.049
 4495W        W 8239   6.945   1.293   1.256
 4496W        W 8240   5.442   7.445  11.688
 4497W        W 8241   1.754   4.619   9.167
 4498W        W 8242   8.637   4.186  10.040
 4499W        W 8243   5.147   8.010  11.352
 4500W        W 8244  10.231   6.668   2.907
 4501W        W 8245   4.729  10.139   1.183
 4502W        W 8246  10.248   7.275   2.171
 4503W        W 8247   4.588   3.263   0.566
 4504W        W 8248   1.900   4.754   2.855
 4505W        W 8249   0.196   7.484   3.287
 4506W        W 8250   3.943   9.915  11.905
 4507W        W 8251   8.103   8.249   1.689
 4508W        W 8252   9.379   7.197   8.691
 4509W        W 8253   3.140   0.938   9.480
 4510W        W 8254   1.974   3.258   0.547
 4511W        W 8255   5.911   2.116   9.663
 4512W        W 8256   5.235   7.537   8.539
 4513W        W 8257   6.765   8.882  11.448
 4514W        W 8258   9.192   3.186   3.366
 4515W        W 8259  10.107   2.217   1.141
 4516W        W 8260   1.380   7.123   0.910
 4517W        W 8261   8.633   2.179   8.768
 4518W        W 8262   7.312   2.226   1.781
 4519W        W 8263   8.469   0.291   1.225
 4520W        W 8264  10.379   0.861   9.203
 4521W        W 8265   0.840   2.968   3.610
 4522W        W 8266   9.883   6.630   3.329
 4523W        W 8267   3.839   5.677   2.681
 4524W        W 8268   8.450  10.251   1.814
 4525W        W 8269   8.623   4.164  10.954
 4526W        W 8270   4.163   9.882   8.861
 4527W        W 8271   1.109   2.349   2.182
 4528W        W 8272   6.914   7.599   8.949
 4529W        W 8273   1.450   3.117   9.579
 4530W        W 8274   2.797  10.413  11.072
 4531W        W 8275   8.251   5.970  10.457
 4532W        W 8276   6.685   1.557   1.685
 4533W        W 8277   3.805   8.612  10.430
 4534W        W 8278   4.244   0.338   0.751
 4535W        W 8279   2.472   7.666  11.027
 4536W        W 8280   3.193   2.963   2.909
 4537W        W 8281   1.769   0.217   2.105
 4538W        W 8282   8.506   6.156   8.594
 4539W        W 8283   7.494   2.154   0.201
 4540W        W 8284   6.936   7.447  11.708
 4541W        W 8285   3.297   6.516   9.960
 4542W        W 8286   6.053   3.780  11.731
 4543W        W 8287   2.067   4.738  11.163
 4544W        W 8288   2.429   5.109   1.916
 4545W        W 8289   3.228   7.900  10.380
 4546W        W 8290   0.730   7.888   0.531
 4547W        W 8291  10.234   7.035  10.290
 4548W        W 8292   2.034   5.046   9.475
 4549W        W 8293   4.649   5.130   1.100
 4550W        W 8294   2.302   0.702  11.494
 4551W        W 8295   4.075   9.084   2.587
 4552W        W 8296   7.126   9.305   9.759
 4553W        W 8297   9.855   6.119   3.359
 4554W        W 8298   9.697  10.467   9.099
 4555W        W 8299   7.462   7.442   8.950
 4556W        W 8300   5.708   4.153  11.841
 4557W        W 8301   6.609   7.592   3.189
 4558W        W 8302  10.089   5.594  11.304
 4559W        W 8303   8.978   8.887   2.814
 4560W        W 8304   2.369   3.659  10.554
 4561W        W 8305   5.676   0.320   2.233
 4562W        W 8306   0.234  10.450  11.720
 4563W        W 8307  10.278   1.705   3.438
 4564W        W 8308   0.323   0.141   0.682
 4565W        W 8309   3.284   3.808   1.693
 4566W        W 8310   7.105   9.021  10.455
 4567W        W 8311   7.370   7.148   1.137
 4568W        W 8312   4.586   6.134   2.708
 4569W        W 8313   8.676   6.974  11.397
 4570W        W 8314   5.979   8.605  11.047
 4571W        W 8315   1.260   3.169   1.157
 4572W        W 8316   8.216   9.419   2.242
 4573W        W 8317   6.476   4.071   0.344
 4574W        W 8318   3.187   9.857   1.982
 4575W        W 8319   2.650   7.662   9.052
 4576W        W 8320   0.714   4.326  11.714
 4577W        W 8321   4.221   9.110  11.580
 4578W        W 8322   7.991   7.509   9.041
 4579W        W 8323   3.289   1.246  11.967
 4580W        W 8324   8.143   6.622   8.725
 4581W        W 8325   3.544   1.419  11.544
 4582W        W 8326   3.925   9.615  10.282
 4583W        W 8327   1.670   2.762  11.298
 4584W        W 8328   5.359   9.556   2.493
 4585W        W 8329   9.218  10.317   9.256
 4586W        W 8330   7.275   8.503   0.282
 4587W        W 8331   8.010  10.099   0.844
 4588W        W 8332   9.515   2.823  10.380
 4589W        W 8333   5.127   0.352  10.123
 4590W        W 8334   7.335   8.523   2.280
 4591W        W 8335   7.158   5.038   2.501
 4592W        W 8336   3.098  10.424  10.442
 4593W        W 8337   2.449   3.304   9.759
 4594W        W 8338   2.435   5.587   2.700
 4595W        W 8339   7.863   5.521   3.522
 4596W        W 8340  10.424   6.564   3.409
 4597W        W 8341   7.769   8.769  11.406
 4598W        W 8342   7.849   3.159   2.614
 4599W        W 8343   2.311   0.249   0.383
 4600W        W 8344   0.799   3.961   0.682
 4601W        W 8345   3.860   4.075  10.010
 4602W        W 8346   1.377   6.513  11.542
 4603W        W 8347   6.674   2.306   1.232
 4604W        W 8348   1.211   1.529  11.714
 4605W        W 8349   2.225   9.865   3.573
 4606W        W 8350   9.476   7.040   0.474
 4607W        W 8351   1.358   2.318   1.737
 4608W        W 8352  10.324   9.248   0.425
 4609W        W 8353   0.131   1.778   3.070
 4610W        W 8354   4.702   3.622  11.465
 4611W        W 8355   5.092   1.770   9.735
 4612W        W 8356   7.697   3.595   1.584
 4613W        W 8357   1.170   0.569  11.910
 4614W        W 8358   5.419   7.958   9.106
 4615W        W 8359   9.615   2.317   8.805
 4616W        W 8360   2.207   6.670   3.281
 4617W        W 8361   2.732   7.063  11.627
 4618W        W 8362   6.105   6.568   2.390
 4619W        W 8363   4.468   4.372   0.215
 4620W        W 8364   6.907   0.676   2.610
 4621W        W 8365   5.241   3.019   1.612
 4622W        W 8366   1.309   2.374   2.738
 4623W        W 8367   0.161   5.180   0.555
 4624W        W 8368   6.993   2.693   9.528
 4625W        W 8369   3.572   6.385   3.113
 4626W        W 8370   0.083   7.963   9.404
 4627W        W 8371   1.418   8.929   1.482
 4628W        W 8372   1.686   4.046   0.171
 4629W        W 8373   6.673   7.468  10.776
 4630W        W 8374  10.040   2.633   8.859
 4631W        W 8375  10.057  10.035   8.808
 4632W        W 8376   8.963   9.633  10.307
 4633W        W 8377   3.674   3.108   0.949
 4634W        W 8378   0.869   4.078   9.941
 4635W        W 8379   2.363   4.236  11.226
 4636W        W 8380   1.891   6.407   1.094
 4637W        W 8381   9.067   5.030   1.955
 4638W        W 8382   0.721   1.365  11.540
 4639W        W 8383   3.327   9.267   9.001
 4640W        W 8384   5.407   7.587  11.196
 4641W        W 8385   6.962   2.362  11.194
 4642W        W 8386   5.411   8.544   2.424
 4643W        W 8387   9.333  10.274  11.329
 4644W        W 8388   3.789   1.357   2.456
 4645W        W 8389   5.345   3.619   8.163
 4646W        W 8390   6.423   9.500   2.358
 4647W        W 8391   2.888   3.208   2.099
 4648W        W 8392   5.721   8.826   3.563
 4649W        W 8393   8.538   6.092  11.310
 4650W        W 8394   1.034   1.377   0.406
 4651W        W 8395  10.459   9.615   0.098
 4652W        W 8396   0.217   1.117  10.264
 4653W        W 8397   3.966   6.604   1.966
 4654W        W 8398   3.423   5.194   1.939
 4655W        W 8399   2.754   7.197  10.319
 4656W        W 8400   6.273   1.700   1.125
 4657W        W 8401   6.648   9.104   3.163
 4658W        W 8402   4.110   9.187   0.204
 4659W        W 8403   2.337   1.247   9.578
 4660W        W 8404   4.287   0.349  11.712
 4661W        W 8405   7.436   4.966   4.047
 4662W        W 8406   7.763  10.210   9.077
 4663W        W 8407   0.684   6.849   0.286
 4664W        W 8408   8.055   6.131  11.515
 4665W        W 8409   6.223   6.993  11.946
 4666W        W 8410   7.174   1.406  10.288
 4667W        W 8411   0.805   2.602   0.337
 4668W        W 8412   0.936   4.775  10.437
 4669W        W 8413   9.420   8.984  10.667
 4670W        W 8414   6.049   2.873  11.245
 4671W        W 8415   3.222   1.870   2.658
 4672W        W 8416   6.447   5.470  11.301
 4673W        W 8417   3.893   3.145  10.289
 4674W        W 8418   2.871   8.283   0.914
 4675W        W 8419   4.547   3.176   8.437
 4676W        W 8420   4.562   4.107   8.395
 4677W        W 8421   8.008   6.070  11.008
 4678W        W 8422   8.223   7.442  11.914
 4679W        W 8423   8.146   1.174   9.637
 4680W        W 8424   9.357   6.298   2.478
 4681W        W 8425   7.444   3.599   9.365
 4682W        W 8426   1.197   8.901   9.057
 4683W        W 8427   0.696   4.348  11.210
 4684W        W 8428   8.373   8.968   2.028
 4685W        W 8429   7.836   0.914   0.238
 4686W        W 8430  10.420   7.110   2.661
 4687W        W 8431   4.013   1.662   0.837
 4688W        W 8432   4.376   3.973   4.035
 4689W        W 8433   8.684   9.968   0.494
 4690W        W 8434   9.450   3.278   8.957
 4691W        W 8435   0.199   1.414   0.300
 4692W        W 8436   8.405   4.776   1.165
 4693W        W 8437   3.234   9.419   1.676
 4694W        W 8438   2.551   9.099   8.621
 4695W        W 8439   5.157   6.967   2.875
 4696W        W 8440   9.558   1.050   9.460
 4697W        W 8441   4.087   8.754  11.931
 4698W        W 8442   7.632   3.056  11.466
 4699W        W 8443   6.326   6.920   1.009
 4700W        W 8444   5.254   8.064   1.778
 4701W        W 8445   0.065   6.877   2.223
 4702W        W 8446   9.686   5.946   0.919
 4703W        W 8447   3.645   4.371  11.562
 4704W        W 8448   9.863   3.873  11.824
 4705W        W 8449   4.628   2.668   8.311
 4706W        W 8450   7.712   5.430   9.940
 4707W        W 8451   7.624   7.888  11.567
 4708W        W 8452   8.368  10.222  11.283
 4709W        W 8453   0.926   2.118  10.975
 4710W        W 8454   7.568   6.059   1.738
 4711W        W 8455   4.902   8.174   1.367
 4712W        W 8456   4.054   1.581   3.149
 4713W        W 8457   1.621   0.323  11.721
 4714W        W 8458   4.119   5.736   1.855
 4715W        W 8459   7.480   1.773  10.990
 4716W        W 8460   7.749   6.349  10.027
 4717W        W 8461   7.064   3.254   8.458
 4718W        W 8462   3.706   6.036   9.930
 4719W        W 8463   1.366   2.890  10.317
 4720W        W 8464   2.397   8.349   0.053
 4721W        W 8465   8.129   7.626   0.814
 4722W        W 8466   3.595   6.389   2.250
 4723W        W 8467   2.660   6.476   3.121
 4724W        W 8468   5.280   0.418  11.400
 4725W        W 8469   0.336   8.406   2.380
 4726W        W 8470   3.711   2.332  10.880
 4727W        W 8471   5.117   8.497   1.993
 4728W        W 8472   5.219   0.337   2.444
 4729W        W 8473   4.177   5.620   9.775
 4730W        W 8474   3.751   5.455  10.655
 4731W        W 8475   0.468   2.965   2.700
 4732W        W 8476   9.267   4.379   2.937
 4733W        W 8477   2.240   6.166   3.281
 4734W        W 8478   8.996   4.560  11.593
 4735W        W 8479   7.024   5.199  11.041
 4736W        W 8480   7.995   5.507  11.823
 4737W        W 8481   2.621   9.946  11.409
 4738W        W 8482  10.023  10.268   3.640
 4739W        W 8483   9.007   9.881   9.035
 4740W        W 8484   4.649  10.038   2.183
 4741W        W 8485   5.557   9.386  11.238
 4742W        W 8486   3.159   8.636  10.964
 4743W        W 8487   9.560   6.565   0.658
 4744W        W 8488   2.627  10.482  10.581
 4745W        W 8489   2.143   2.575   1.108
 4746W        W 8490   7.015   1.362   2.924
 4747W        W 8491   8.419   9.404   1.758
 4748W        W 8492   4.794   4.472  10.014
 4749W        W 8493   9.370   7.929   1.485
 4750W        W 8494   3.543   7.950   9.974
 4751W        W 8495   5.961   4.176   1.709
 4752W        W 8496   9.863   2.990  11.566
 4753W        W 8497   6.876   3.222  10.788
 4754W        W 8498   8.896   9.926   8.532
 4755W        W 8499  10.357   6.135  10.291
 4756W        W 8500   2.313   0.324   0.929
 4757W        W 8501   0.716   6.001  11.903
 4758W        W 8502   6.010   5.206  11.136
 4759W        W 8503  10.326   3.648   9.869
 4760W        W 8504   5.747   8.953  11.467
 4761W        W 8505   9.908   6.391  10.030
 4762W        W 8506   4.894   1.169  11.742
 4763W        W 8507   9.919   4.381  11.911
 4764W        W 8508   8.889   7.183   9.454
 4765W        W 8509   4.725   0.354   0.545
 4766W        W 8510   7.412   5.305   3.056
 4767W        W 8511   3.924  10.081   9.585
 4768W        W 8512   8.739   0.913  10.977
 4769W        W 8513   1.384   5.495   1.409
 4770W        W 8514   6.664   1.497   0.834
 4771W        W 8515   0.945   7.689   1.362
 4772W        W 8516  10.277   7.520  11.450
 4773W        W 8517   3.591   9.975   2.643
 4774W        W 8518   5.904   2.422   0.927
 4775W        W 8519   2.162   4.022  11.654
 4776W        W 8520   3.097   8.100   1.394
 4777W        W 8521   1.303   2.799   2.444
 4778W        W 8522   7.046   8.419   2.949
 4779W        W 8523   2.251   3.052   0.947
 4780W        W 8524   7.875   9.959   0.297
 4781W        W 8525   7.008   8.588  10.169
 4782W        W 8526   6.143   8.848   0.787
 4783W        W 8527   9.436   3.773   8.748
 4784W        W 8528   3.220   3.609   2.165
 4785W        W 8529   8.516   9.768  11.954
 4786W        W 8530   5.602   8.548  10.431
 4787W        W 8531   9.115   9.314   2.492
 4788W        W 8532   2.549   0.920  11.909
 4789W        W 8533   1.270  10.250   3.214
 4790W        W 8534   5.639   5.987   2.319
 4791W        W 8535   1.481   8.156  10.525
 4792W        W 8536   9.493   4.552   1.478
 4793W        W 8537   5.955   8.430   2.345
 4794W        W 8538   5.871   8.895   0.344
 4795W        W 8539   4.294   1.880   0.471
 4796W        W 8540   6.062   9.826   9.116
 4797W        W 8541   8.900   1.214   0.778
 4798W        W 8542   4.653   4.988   2.141
 4799W        W 8543   6.721   1.136  10.566
 4800W        W 8544   3.382   3.171   9.093
 4801W        W 8545   8.145   9.327   8.736
 4802W        W 8546   3.740   2.305  10.334
 4803W        W 8547   7.405   7.072   2.155
 4804W        W 8548   8.980   3.685   3.345
 4805W        W 8549   5.061   9.461  11.245
 4806W        W 8550   7.423  10.300   8.268
 4807W        W 8551   0.781   3.809   1.165
 4808W        W 8552   5.461   6.860  10.135
 4809W        W 8553   2.952   7.706  11.089
 4810W        W 8554   9.876   0.294   9.529
 4811W        W 8555   6.784   3.701   0.146
 4812W        W 8556   4.974   7.396   1.840
 4813W        W 8557   9.391   6.043   3.566
 4814W        W 8558   7.410   9.711   2.481
 4815W        W 8559  10.127   8.472  11.397
 4816W        W 8560   5.517   2.196   9.327
 4817W        W 8561   3.337   5.505   2.376
 4818W        W 8562   1.461   4.654   3.174
 4819W        W 8563   7.745   5.629   9.467
 4820W        W 8564   0.697   8.310  10.362
 4821W        W 8565  10.267   1.154   0.419
 4822W        W 8566   4.760   9.626   0.140
 4823W        W 8567   8.868   6.370  10.144
 4824W        W 8568   0.265  10.150   0.850
 4825W        W 8569   6.384   2.726   8.985
 4826W        W 8570   4.967   6.626  11.770
 4827W        W 8571   2.618   7.662   9.577
 4828W        W 8572   5.589   0.793   9.547
 4829W        W 8573   9.992   7.379  11.010
 4830W        W 8574   6.796   4.218   8.813
 4831W        W 8575  10.342   9.530  11.610
 4832W        W 8576   3.142   8.128   3.040
 4833W        W 8577   8.488   9.760   8.809
 4834W        W 8578   3.216   5.484  11.501
 4835W        W 8579   0.585   7.616   2.666
 4836W        W 8580   9.360   5.358   2.726
 4837W        W 8581   3.365   9.391  10.446
 4838W        W 8582   7.698   1.999   8.480
 4839W        W 8583   5.477   6.702  11.550
 4840W        W 8584   6.907   6.952   9.468
 4841W        W 8585   0.393   1.579   0.929
 4842W        W 8586  10.198   0.683   1.831
 4843W        W 8587   1.820   8.633   1.337
 4844W        W 8588   3.085   5.196   3.599
 4845W        W 8589   3.805   1.871  10.605
 4846W        W 8590   0.886   9.457  10.864
 4847W        W 8591   0.148   0.442   9.991
 4848W        W 8592   4.271   1.690  11.997
 4849W        W 8593   5.449   7.769   9.961
 4850W        W 8594   0.415   8.753  10.483
 4851W        W 8595   7.131   5.953  11.558
 4852W        W 8596   0.367   9.482  10.823
 4853W        W 8597   3.575   0.767   3.105
 4854W        W 8598   0.120   8.235   1.212
 4855W        W 8599   4.152   5.539  11.054
 4856W        W 8600   9.763   1.693   3.411
 4857W        W 8601   7.614   2.746  10.872
 4858W        W 8602   5.565   3.121   0.701
 4859W        W 8603   3.219   2.993   0.722
 4860W        W 8604   3.618   4.893  11.714
 4861W        W 8605   2.348   9.440   3.290
 4862W        W 8606   5.703   3.433  10.312
 4863W        W 8607   0.749   9.770  11.731
 4864W        W 8608   8.534   2.868  11.000
 4865W        W 8609   4.808   2.555   0.245
 4866W        W 8610   9.950   3.855   3.147
 4867W        W 8611   5.481   1.403   3.370
 4868W        W 8612   4.196   5.009   3.002
 4869W        W 8613   3.594   8.126   2.550
 4870W        W 8614   0.862  10.439   9.060
 4871W        W 8615   7.471   0.940   2.022
 4872W        W 8616   9.355   8.763   3.227
 4873W        W 8617  10.150   9.877  11.295
 4874W        W 8618   0.458   3.919   9.684
 4875W        W 8619   1.254   1.432   2.735
 4876W        W 8620   0.975   7.493   0.905
 4877W        W 8621   5.633   3.815  11.440
 4878W        W 8622   7.094   8.320   0.723
 4879W        W 8623   3.835   0.404  11.979
 4880W        W 8624   6.010   0.185  10.400
 4881W        W 8625   6.314   5.149   1.337
 4882W        W 8626   7.897   2.360  11.039
 4883W        W 8627   8.901   0.962  10.319
 4884W        W 8628   3.610   5.252   0.693
 4885W        W 8629   3.737   7.899  10.948
 4886W        W 8630   4.937   9.389   2.196
 4887W        W 8631   1.112   4.111   9.497
 4888W        W 8632   4.139   9.258   2.114
 4889W        W 8633   6.511   6.524   0.276
 4890W        W 8634   7.020   3.033  10.340
 4891W        W 8635   3.113  10.291   0.369
 4892W        W 8636   4.929   4.224   0.388
 4893W        W 8637   5.183  10.441   9.236
 4894W        W 8638   0.834   2.422   1.260
 4895W        W 8639   0.512   3.468  11.441
 4896W        W 8640   2.439   9.018   3.008
 4897W        W 8641   0.644   2.186   2.267
 4898W        W 8642   5.391   0.298   1.283
 4899W        W 8643   0.158   2.247   9.825
 4900W        W 8644   0.033   3.112   3.373
 4901W        W 8645   6.260   4.744  10.752
 4902W        W 8646   4.383   5.369  11.635
 4903W        W 8647   2.417   0.264   1.444
 4904W        W 8648   3.804   2.148   0.859
 4905W        W 8649   2.895   8.547   0.314
 4906W        W 8650   6.577   3.250   2.297
 4907W        W 8651   2.462   7.978   1.596
 4908W        W 8652   9.703   7.484   3.208
 4909W        W 8653   8.113   5.496  10.275
 4910W        W 8654   2.454   2.155   3.261
 4911W        W 8655   1.923   1.206   2.971
 4912W        W 8656   4.412   0.303  10.325
 4913W        W 8657   9.394   6.237   1.971
 4914W        W 8658   4.794   1.755  11.983
 4915W        W 8659   9.144   9.892   0.725
 4916W        W 8660   6.423   7.245   1.374
 4917W        W 8661   3.774   5.656   0.939
 4918W        W 8662   8.390   5.686  11.027
 4919W        W 8663   6.593   8.780   9.355
 4920W        W 8664   0.494   3.109  11.855
 4921W        W 8665   3.730   6.507   0.947
 4922W        W 8666   0.877   5.756  11.128
 4923W        W 8667   9.779   3.015   3.265
 4924W        W 8668   7.599   4.517   1.799
 4925W        W 8669   9.592   0.625   9.797
 4926W        W 8670   0.312   8.981  10.028
 4927W        W 8671   7.594   8.517  10.941
 4928W        W 8672   1.849   5.444   9.179
 4929W        W 8673   1.768   3.642   2.317
 4930W        W 8674   5.197   0.178  11.857
 4931W        W 8675   1.891   5.602   2.699
 4932W        W 8676   7.657   6.986  11.413
 4933W        W 8677   8.327   1.972   3.422
 4934W        W 8678  10.336   5.130  11.111
 4935W        W 8679   2.338   7.338  10.627
 4936W        W 8680   8.988   1.983   1.743
 4937W        W 8681   5.993   3.296  11.911
 4938W        W 8682   7.151   2.133   1.234
 4939W        W 8683   4.576   2.234   9.029
 4940W        W 8684   6.114  10.362  11.335
 4941W        W 8685   2.642  10.184   2.122
 4942W        W 8686   3.352   7.870  11.325
 4943W        W 8687   4.323   6.232   1.959
 4944W        W 8688   1.615   7.810   3.581
 4945W        W 8689   9.878   0.894   9.064
 4946W        W 8690   4.620   8.799   0.785
 4947W        W 8691   2.794   8.386  11.744
 4948W        W 8692   7.978   0.223   1.969
 4949W        W 8693   3.289   5.691   3.606
 4950W        W 8694   0.265   6.698   2.908
 4951W        W 8695   7.302   2.633   9.134
 4952W        W 8696   5.454   3.918   3.959
 4953W        W 8697   1.916   0.387   1.327
 4954W        W 8698   4.279   6.371  11.470
 4955W        W 8699   9.072   2.679  11.755
 4956W        W 8700   0.507   4.638   9.087
 4957W        W 8701   0.026   7.510   0.611
 4958W        W 8702   7.726   1.615  11.404
 4959W        W 8703   3.516   4.873   9.089
 4960W        W 8704   8.941   1.394   2.962
 4961W        W 8705   1.876   3.373   8.858
 4962W        W 8706   2.663   0.791   9.485
 4963W        W 8707   7.095   9.823   3.185
 4964W        W 8708   4.240  10.316   1.261
 4965W        W 8709   8.372   0.500   2.182
 4966W        W 8710   2.377   7.245   2.162
 4967W        W 8711   9.239   6.517  11.628
 4968W        W 8712  10.373   8.922  11.383
 4969W        W 8713   4.083   0.828  11.791
 4970W        W 8714   2.279   3.794   2.145
 4971W        W 8715   3.114   5.701   8.761
 4972W        W 8716   0.462   5.966   9.496
 4973W        W 8717   0.824   6.646   3.359
 4974W        W 8718   5.616   2.347   1.384
 4975W        W 8719   2.112   0.269   9.066
 4976W        W 8720   9.007   9.939   0.051
 4977W        W 8721   0.930   6.599   9.789
 4978W        W 8722  10.468   6.526   1.076
 4979W        W 8723   9.450   4.621  11.858
 4980W        W 8724   5.936   6.056  11.043
 4981W        W 8725   6.624   5.032   1.727
 4982W        W 8726   8.501   7.921  11.465
 4983W        W 8727   5.670   0.237   2.739
 4984W        W 8728   6.164   1.763   3.213
 4985W        W 8729   0.790   3.069   3.127
 4986W        W 8730   6.583  10.239  10.609
 4987W        W 8731   5.547   3.833   9.946
 4988W        W 8732   9.916   8.218   2.374
 4989W        W 8733   5.988   6.419   2.885
 4990W        W 8734   5.059  10.321   0.820
 4991W        W 8735   5.567   1.754  11.027
 4992W        W 8736   5.269   8.890   8.866
 4993W        W 8737   8.294   0.510  10.907
 4994W        W 8738   5.079   8.860   9.856
 4995W        W 8739   8.851   1.869  11.157
 4996W        W 8740   3.114  10.102   2.431
 4997W        W 8741   9.559   0.991  10.508
 4998W        W 8742   1.634   7.173   1.366
 4999W        W 8743   5.721   7.565   8.355
 5000W        W 8744   4.758   4.125  11.416
 5001W        W 8745   1.259  10.252   1.401
 5002W        W 8746   3.538  10.475   0.733
 5003W        W 8747   6.577   9.090   2.602
 5004W        W 8748   5.875  10.354   3.005
 5005W        W 8749   4.869   8.310   8.530
 5006W        W 8750   2.681   1.558   1.753
 5007W        W 8751   1.899   2.598   0.261
 5008W        W 8752   1.690   8.897   0.892
 5009W        W 8753   2.213   8.495   9.891
 5010W        W 8754   7.573   6.025  11.300
 5011W        W 8755   8.927   3.751  10.064
 5012W        W 8756   0.970   6.519  10.710
 5013W        W 8757   5.151   8.547   3.290
 5014W        W 8758   4.565   3.264   2.263
 5015W        W 8759   7.650   6.483   8.561
 5016W        W 8760   0.257   4.258  10.945
 5017W        W 8761   0.426   3.398   9.586
 5018W        W 8762   5.515   8.533  11.317
 5019W        W 8763   5.336   1.171   2.005
 5020W        W 8764   6.443   6.798   3.608
 5021W        W 8765   4.242   3.861   3.195
 5022W        W 8766   5.231   1.874  11.728
 5023W        W 8767   1.766   8.157   2.731
 5024W        W 8768   6.444   7.825   9.060
 5025W        W 8769   8.845   5.260   2.790
 5026W        W 8770  10.306   8.800  10.533
 5027W        W 8771   0.672   9.832   0.768
 5028W        W 8772   1.261  10.485   2.723
 5029W        W 8773   7.968   2.492  11.520
 5030W        W 8774   5.151   7.710   2.189
 5031W        W 8775   2.791   6.386   9.419
 5032W        W 8776   2.860   0.353   2.495
 5033W        W 8777   7.423   2.137   2.606
 5034W        W 8778   5.142   9.399   8.990
 5035W        W 8779   1.369   4.838   8.883
 5036W        W 8780   9.421   3.854   2.065
 5037W        W 8781   1.383   7.613  10.315
 5038W        W 8782   9.460   8.552  10.889
 5039W        W 8783   5.118   3.014   9.901
 5040W        W 8784   9.806   5.029   9.034
 5041W        W 8785   0.684   4.369   9.514
 5042W        W 8786   7.819   0.880   9.371
 5043W        W 8787   8.905   8.008   0.717
 5044W        W 8788   9.866   1.351  11.696
 5045W        W 8789  10.496   7.854  10.453
 5046W        W 8790   3.162   1.482   2.996
 5047W        W 8791   8.620   8.715  11.026
 5048W        W 8792  10.429   7.660  11.941
 5049W        W 8793   4.274   7.266  11.946
 5050W        W 8794   5.342   2.394   0.170
 5051W        W 8795   0.274   2.567  11.297
 5052W        W 8796   6.192   8.362   0.910
 5053W        W 8797   6.967   6.875   1.942
 5054W        W 8798   4.790   1.307   0.232
 5055W        W 8799   3.258   8.208   0.034
 5056W        W 8800   0.450   4.658   3.051
 5057W        W 8801   4.712   0.304   1.070
 5058W        W 8802   2.170   0.663  11.004
 5059W        W 8803   9.806   3.137   0.555
 5060W        W 8804   0.553   8.824   2.596
 5061W        W 8805   6.132   2.415   0.457
 5062W        W 8806   2.644   9.092  11.505
 5063W        W 8807   5.708   6.341   0.416
 5064W        W 8808   0.203   7.897  10.913
 5065W        W 8809   0.953   9.947  10.916
 5066W        W 8810   6.142   9.359   2.758
 5067W        W 8811   6.975   6.995   2.994
 5068W        W 8812  10.314   6.254  11.747
 5069W        W 8813   3.261   7.348  11.261
 5070W        W 8814   1.719   1.254   2.503
 5071W        W 8815   0.378   2.659   2.255
 5072W        W 8816   7.453   0.428   0.753
 5073W        W 8817  10.004   7.397   2.624
 5074W        W 8818   8.905   3.814   1.239
 5075W        W 8819   6.937   9.585   8.970
 5076W        W 8820   1.212   0.424  10.902
 5077W        W 8821   6.737   4.163   3.561
 5078W        W 8822   9.802   6.679  10.441
 5079W        W 8823   9.750   3.176   2.475
 5080W        W 8824   1.891   9.450   0.838
 5081W        W 8825   9.975   2.736  10.603
 5082W        W 8826   0.921  10.489  10.070
 5083W        W 8827   6.140   0.175   3.499
 5084W        W 8828   9.350   8.039   0.468
 5085W        W 8829   1.806  10.251  10.027
 5086W        W 8830   3.062   4.951  10.398
 5087W        W 8831   2.565   9.458  10.225
 5088W        W 8832   3.644   4.132  10.505
 5089W        W 8833   2.405   8.578   0.933
 5090W        W 8834   6.099   3.900   2.168
 5091W        W 8835   3.212   8.101  10.884
 5092W        W 8836  10.122   9.388   3.471
 5093W        W 8837   3.720   1.367   8.732
 5094W        W 8838   6.013   5.509   2.434
 5095W        W 8839   5.991   3.261   1.427
 5096W        W 8840   4.100   6.082  11.088
 5097W        W 8841   4.726   8.969  11.503
 5098W        W 8842   2.140   4.439   9.457
 5099W        W 8843   7.424   3.698   8.516
 5100W        W 8844   4.772   7.392   2.405
 5101W        W 8845   8.392   5.524   2.631
 5102W        W 8846   5.037   8.869  11.886
 5103W        W 8847   7.105   3.188   9.405
 5104W        W 8848   0.371   7.979   3.239
 5105W        W 8849   4.352   2.793  11.379
 5106W        W 8850   9.884   3.206   1.500
 5107W        W 8851   3.723   3.626   3.378
 5108W        W 8852   2.959   9.838   0.783
 5109W        W 8853   2.513   4.872   9.530
 5110W        W 8854   2.705   1.276   2.219
 5111W        W 8855   6.188   1.366  11.055
 5112W        W 8856   2.597   3.228  10.343
 5113W        W 8857   4.335   7.495   8.956
 5114W        W 8858   6.531   7.347   3.669
 5115W        W 8859   1.308   6.075   2.159
 5116W        W 8860   9.252   5.951  10.324
 5117W        W 8861   5.029   9.407   1.663
 5118W        W 8862   3.883   1.129   3.417
 5119W        W 8863   3.658   9.628   9.482
 5120W        W 8864   9.793   0.477   2.418
 5121W        W 8865   5.164   2.327  11.410
 5122W        W 8866   1.929   1.722   1.045
 5123W        W 8867   6.950   9.412   2.382
 5124W        W 8868   9.263  10.438   8.730
 5125W        W 8869   5.066   5.600   1.663
 5126W        W 8870   1.486   7.147   9.378
 5127W        W 8871   8.790   0.922   0.330
 5128W        W 8872   9.413   7.550   9.652
 5129W        W 8873   9.060   0.870   1.224
 5130W        W 8874   6.562   6.204   1.306
 5131W        W 8875   0.848   4.811  11.801
 5132W        W 8876   6.588   3.556  11.234
 5133W        W 8877   8.840   7.202   1.146
 5134W        W 8878   6.455   8.431  11.350
 5135W        W 8879   4.319   0.420   8.733
 5136W        W 8880   9.392   3.650  11.956
 5137W        W 8881   2.460   0.860   0.507
 5138W        W 8882   1.278   0.081   2.214
 5139W        W 8883   8.254  10.482   9.291
 5140W        W 8884   8.276   1.389   2.714
 5141W        W 8885   4.118   7.524   8.494
 5142W        W 8886   2.393   6.492  10.606
 5143W        W 8887   5.746   6.527   9.886
 5144W        W 8888   3.326   6.450   0.595
 5145W        W 8889   4.713   1.148   9.754
 5146W        W 8890   6.714   6.460  10.776
 5147W        W 8891   2.281   6.945  10.979
 5148W        W 8892   3.624   7.670   0.260
 5149W        W 8893   5.186   4.177  11.751
 5150W        W 8894   0.434   7.033   3.313
 5151W        W 8895   6.552   0.712  11.491
 5152W        W 8896   2.737   5.525   0.255
 5153W        W 8897   3.785   0.598   8.761
 5154W        W 8898   4.597   7.796   1.069
 5155W        W 8899   8.591   2.893  11.838
 5156W        W 8900   8.886   7.251   8.476
 5157W        W 8901   4.586   6.289   9.454
 5158W        W 8902  10.066  10.270   9.957
 5159W        W 8903   1.934   5.235  11.295
 5160W        W 8904  10.068   4.006   0.879
 5161W        W 8905   8.033   5.906   1.885
 5162W        W 8906   2.004   0.020   1.686
 5163W        W 8907   6.115   0.823   1.651
 5164W        W 8908   4.304   7.232   2.445
 5165W        W 8909   2.191   1.132   2.284
 5166W        W 8910   7.811   6.026   8.415
 5167W        W 8911   7.657   4.616   0.270
 5168W        W 8912   2.727   8.130   8.876
 5169W        W 8913   6.924   5.882   1.440
 5170W        W 8914   9.050   9.440   9.307
 5171W        W 8915   7.476   2.590   0.447
 5172W        W 8916   5.617   1.263   2.872
 5173W        W 8917   0.127   6.145  10.764
 5174W        W 8918   4.153   2.391  10.640
 5175W        W 8919   3.332  10.092   3.469
 5176W        W 8920   6.086   7.847   9.439
 5177W        W 8921   1.439   7.561   0.628
 5178W        W 8922   8.160   6.981  11.321
 5179W        W 8923   5.202   2.691  11.783
 5180W        W 8924   0.371   3.618  11.907
 5181W        W 8925   4.574   7.554   3.847
 5182W        W 8926   8.976   2.631   2.345
 5183W        W 8927   2.711   5.455  10.762
 5184W        W 8928   6.961   2.643   3.015
 5185W        W 8929   0.357   7.999  11.778
 5186W        W 8930  10.252   1.674   0.420
 5187W        W 8931   1.414   6.231   1.192
 5188W        W 8932   2.427   3.752   0.011
 5189W        W 8933   2.727   3.216   0.768
 5190W        W 8934   8.528   8.140   2.044
 5191W        W 8935   6.528   0.454   9.221
 5192W        W 8936   3.127   3.108  11.942
 5193W        W 8937   2.385   3.000  11.551
 5194W        W 8938   0.317   2.342   0.204
 5195W        W 8939   4.876   8.808   0.351
 5196W        W 8940   6.702   7.722   2.494
 5197W        W 8941   4.774   0.811  11.325
 5198W        W 8942   1.925   1.384  10.891
 5199W        W 8943   9.571   4.227  10.905
 5200W        W 8944   3.760   1.854  10.081
 5201W        W 8945   0.944  10.274  10.529
 5202W        W 8946   7.449   1.348   1.190
 5203W        W 8947   5.135   8.810  10.539
 5204W        W 8948   5.813   8.432   8.625
 5205W        W 8949   8.157   0.898   0.661
 5206W        W 8950   4.522   4.274   3.207
 5207W        W 8951   8.444  10.010   2.503
 5208W        W 8952  10.437   8.784   0.301
 5209W        W 8953   1.939   9.068   2.309
 5210W        W 8954   5.728   6.922  11.929
 5211W        W 8955   4.668   2.329   1.497
 5212W        W 8956   5.130   4.796   9.788
 5213W        W 8957   3.375   8.883  10.301
 5214W        W 8958   2.912   0.967   9.940
 5215W        W 8959   6.977   3.760  11.533
 5216W        W 8960   1.340   2.463   8.831
 5217W        W 8961   3.760   7.046   1.761
 5218W        W 8962  10.357   9.925   0.640
 5219W        W 8963   2.715  10.383   1.253
 5220W        W 8964   3.641   9.599   2.028
 5221W        W 8965   5.473   4.596  11.872
 5222W        W 8966   1.692   4.116   2.133
 5223W        W 8967  10.454   5.559   1.869
 5224W        W 8968   0.482   7.154   9.751
 5225W        W 8969   2.446   7.427   8.633
 5226W        W 8970   2.603   4.967  10.677
 5227W        W 8971   5.338   0.335   9.636
 5228W        W 8972   0.780   8.770  10.849
 5229W        W 8973   9.550   0.950   2.487
 5230W        W 8974   4.283   0.387   9.253
 5231W        W 8975   9.767   1.835   1.969
 5232W        W 8976   8.088   6.640   1.078
 5233W        W 8977   6.555   6.713  11.712
 5234W        W 8978   0.480   5.574   8.796
 5235W        W 8979   3.269   1.989   0.395
 5236W        W 8980   5.448   8.892  10.980
 5237W        W 8981   0.910   8.954   8.628
 5238W        W 8982   9.312   8.939  11.515
 5239W        W 8983   6.090   0.819   0.671
 5240W        W 8984   6.116   6.613   1.755
 5241W        W 8985   1.201   1.783   9.354
 5242W        W 8986   5.479   8.010   8.590
 5243W        W 8987   4.805   3.143   1.823
 5244W        W 8988   0.014   1.305   8.972
 5245W        W 8989   2.907   5.698   2.580
 5246W        W 8990   9.400   7.035   1.943
 5247W        W 8991   0.094   7.625   2.794
 5248W        W 8992   0.409   0.016   2.661
 5249W        W 8993   2.429   8.947  10.486
 5250W        W 8994   9.614   9.434   9.491
 5251W        W 8995   7.673   8.039   9.419
 5252W        W 8996   6.389   3.902   8.708
 5253W        W 8997   8.849   2.382  10.098
 5254W        W 8998   2.887   3.879   0.159
 5255W        W 8999   3.491   2.981   1.404
 5256W        W 9000   7.583   0.075   3.271
 5257W        W 9001   1.352   3.811   3.240
 5258W        W 9002   8.715   0.855   9.554
 5259W        W 9003   4.677   5.965   2.214
 5260W        W 9004   2.680   5.348   9.456
 5261W        W 9005   6.468   1.797  10.994
 5262W        W 9006   5.677   9.977  10.591
 5263W        W 9007   1.721   9.923   2.118
 5264W        W 9008   4.248   5.270   2.077
 5265W        W 9009   5.533   8.879  10.065
 5266W        W 9010   5.416   7.135   8.267
 5267W        W 9011   5.533   8.898  11.928
 5268W        W 9012   3.096   4.274   1.807
 5269W        W 9013   1.659   5.989   3.003
 5270W        W 9014   3.029   7.436   9.365
 5271W        W 9015   3.590   6.148   3.592
 5272W        W 9016   9.446   8.905   1.410
 5273W        W 9017   0.341  10.252   9.523
 5274W        W 9018   1.515   7.316   2.661
 5275W        W 9019   8.830   2.237   2.706
 5276W        W 9020   6.604   1.019   2.384
 5277W        W 9021   6.186  10.192   9.452
 5278W        W 9022   8.343   9.048  10.742
 5279W        W 9023   0.603   8.249   0.165
 5280W        W 9024   2.325   1.684   1.372
 5281W        W 9025   0.010   6.734   0.088
 5282W        W 9026   4.335   6.065   0.226
 5283W        W 9027   2.923   9.888   9.503
 5284W        W 9028   7.001   5.809   2.167
 5285W        W 9029   9.035   5.056  10.043
 5286W        W 9030  10.298   4.855   0.842
 5287W        W 9031   2.448   9.925   0.945
 5288W        W 9032   4.293   2.098   0.956
 5289W        W 9033   0.794   1.854   8.884
 5290W        W 9034   6.487   3.244   1.510
 5291W        W 9035   5.349   3.306   8.569
 5292W        W 9036   5.435   9.866   3.801
 5293W        W 9037   5.126   8.981   1.428
 5294W        W 9038   5.245   2.898   3.904
 5295W        W 9039   7.888   1.799   0.259
 5296W        W 9040   7.851   6.375   2.034
 5297W        W 9041   1.656   6.026  10.857
 5298W        W 9042   0.309   0.885   8.908
 5299W        W 9043   5.757   2.874   1.108
 5300W        W 9044   8.649   5.694   8.345
 5301W        W 9045   0.535   5.505   0.466
 5302W        W 9046   7.504   4.710   3.598
 5303W        W 9047   7.964   5.714   0.855
 5304W        W 9048   7.874   2.307   0.967
 5305W        W 9049   0.276  10.395  11.173
 5306W        W 9050   8.208   5.885   3.369
 5307W        W 9051   7.014   8.074  10.385
 5308W        W 9052   7.935  10.258   1.738
 5309W        W 9053   6.099  10.406   0.693
 5310W        W 9054   7.319   4.545   9.977
 5311W        W 9055   3.553   2.601   0.949
 5312W        W 9056   4.742   2.269   3.432
 5313W        W 9057   3.909   3.948   2.404
 5314W        W 9058   2.300   7.057  10.108
 5315W        W 9059   7.439  10.053   9.749
 5316W        W 9060   1.353   1.877   2.489
 5317W        W 9061   5.786   4.653   1.899
 5318W        W 9062   9.495   2.653  11.471
 5319W        W 9063   3.188   3.500   0.745
 5320W        W 9064   9.485   3.909   2.930
 5321W        W 9065   5.742   4.641   2.415
 5322W        W 9066   0.471   3.794   2.599
 5323W        W 9067   4.146   7.319  11.465
 5324W        W 9068   8.410   4.286   2.319
 5325W        W 9069  10.496   5.690   0.699
 5326W        W 9070   0.894   0.143   9.573
 5327W        W 9071   8.504   5.748  10.080
 5328W        W 9072  10.472   2.631  10.437
 5329W        W 9073   5.582   1.468   1.672
 5330W        W 9074   8.928   6.418   8.855
 5331W        W 9075   7.914   4.918   1.077
 5332W        W 9076   7.560   4.433   4.014
 5333W        W 9077   3.800   5.416   2.216
 5334W        W 9078  10.287   1.382  11.972
 5335W        W 9079   8.992   8.396   2.067
 5336W        W 9080   5.552   3.928   9.072
 5337W        W 9081   8.077   9.366   1.332
 5338W        W 9082   8.913   4.170   9.529
 5339W        W 9083   9.023   8.597   9.962
 5340W        W 9084   3.765   3.098   8.734
 5341W        W 9085   7.029   6.929   2.471
 5342W        W 9086   5.444  10.034   8.616
 5343W        W 9087   7.655   9.267  11.448
 5344W        W 9088   9.222   6.999   1.466
 5345W        W 9089   0.113   5.013   2.831
 5346W        W 9090   6.764   6.526   9.771
 5347W        W 9091   9.751   9.420   3.101
 5348W        W 9092   9.575   6.954   2.602
 5349W        W 9093   4.216   6.378  10.643
 5350W        W 9094   3.807   0.546   2.028
 5351W        W 9095   5.874   3.243   8.573
 5352W        W 9096   8.532   4.315   0.298
 5353W        W 9097   8.590   5.191  10.949
 5354W        W 9098   0.307   5.092   9.307
 5355W        W 9099   5.522   6.160   9.234
 5356W        W 9100   9.273   0.044   2.458
 5357W        W 9101   7.136   8.965   1.505
 5358W        W 9102   9.430   4.716   3.303
 5359W        W 9103   5.052   6.005  10.587
 5360W        W 9104   1.387   4.595   1.656
 5361W        W 9105   9.204   0.009   1.130
 5362W        W 9106   0.295   3.148   1.453
 5363W        W 9107   6.990   0.702  11.835
 5364W        W 9108   0.301   3.612   1.220
 5365W        W 9109   0.897   6.497  11.789
 5366W        W 9110   0.494   3.575   0.755
 5367W        W 9111   0.577   9.628  11.253
 5368W        W 9112   3.318   1.799   9.246
 5369W        W 9113   1.426  10.474  10.773
 5370W        W 9114   5.033   1.994   1.454
 5371W        W 9115   4.890   8.069   3.169
 5372W        W 9116   3.201   2.296   9.125
 5373W        W 9117   5.409   5.617  10.477
 5374W        W 9118  10.296   4.011   1.354
 5375W        W 9119   7.584   5.330   0.883
 5376W        W 9120   1.981   6.393  10.292
 5377W        W 9121   6.983   4.713  10.886
 5378W        W 9122   0.847   9.974   1.475
 5379W        W 9123   5.634   3.622   9.476
 5380W        W 9124  10.321   0.339  11.408
 5381W        W 9125   6.484   1.155   1.406
 5382W        W 9126   3.683   8.543   9.503
 5383W        W 9127   6.444   0.930  11.010
 5384W        W 9128   0.990   1.846   0.768
 5385W        W 9129   1.288   2.697   9.825
 5386W        W 9130   6.157   6.433   0.698
 5387W        W 9131   2.768   6.519   1.188
 5388W        W 9132   3.151   3.211   3.633
 5389W        W 9133  10.325   1.293  11.457
 5390W        W 9134   9.170   6.212   0.481
 5391W        W 9135   9.891   1.223   3.155
 5392W        W 9136   8.532   5.220  10.101
 5393W        W 9137   3.750   7.376  11.022
 5394W        W 9138   7.988   0.852  11.730
 5395W        W 9139   8.872   4.054   2.159
 5396W        W 9140   7.956  10.233   3.160
 5397W        W 9141   3.613  10.428   9.822
 5398W        W 9142   0.878   7.245  11.976
 5399W        W 9143   7.414   8.437   9.570
 5400W        W 9144   3.669   4.596   9.782
 5401W        W 9145   9.021   1.360  11.207
 5402W        W 9146   7.643   8.675   2.660
 5403W        W 9147   1.879   6.902   0.956
 5404W        W 9148   3.852   0.387  10.315
 5405W        W 9149   9.143   3.998  10.983
 5406W        W 9150   9.802   9.634  10.285
 5407W        W 9151   5.036   6.013   2.949
 5408W        W 9152   3.719   9.210   0.533
 5409W        W 9153   8.478   7.993   0.437
 5410W        W 9154   9.738   4.726   9.457
 5411W        W 9155   7.507   2.436   2.206
 5412W        W 9156   7.812   4.387  11.338
 5413W        W 9157   8.454   4.763   2.133
 5414W        W 9158   8.902   1.777   2.311
 5415W        W 9159   1.596   4.217   9.436
 5416W        W 9160   5.536   5.321   1.798
 5417W        W 9161   5.422   4.208   0.253
 5418W        W 9162   8.984   1.268  10.705
 5419W        W 9163   3.067   6.867  11.254
 5420W        W 9164   9.782   7.831   2.764
 5421W        W 9165   4.186   3.550   1.179
 5422W        W 9166   1.338   4.825  10.118
 5423W        W 9167   2.330   9.191   0.230
 5424W        W 9168   5.682   2.730   0.384
 5425W        W 9169   3.155   5.242   0.958
 5426W        W 9170   8.770   6.318   0.815
 5427W        W 9171   7.657  10.050   2.772
 5428W        W 9172   1.800   5.489   9.681
 5429W        W 9173   8.737   8.329   3.560
 5430W        W 9174   9.222   0.303  11.934
 5431W        W 9175   4.193   1.243   2.789
 5432W        W 9176   0.775   9.979   0.242
 5433W        W 9177   7.911   0.477   0.504
 5434W        W 9178   1.854  10.397  11.024
 5435W        W 9179   0.368   2.466   2.733
 5436W        W 9180   4.287   5.514   0.926
 5437W        W 9181   5.517   8.866   9.563
 5438W        W 9182   5.622   5.451   8.969
 5439W        W 9183   3.406   4.082   2.256
 5440W        W 9184   6.672   7.967  11.257
 5441W        W 9185   7.795   5.200  10.525
 5442W        W 9186   3.241   9.510   1.168
 5443W        W 9187   1.658   0.230  10.014
 5444W        W 9188   4.944   5.776  11.394
 5445W        W 9189   6.460   8.095   3.282
 5446W        W 9190   2.332   4.645   1.668
 5447W        W 9191   9.981   0.966   0.003
 5448W        W 9192   4.977   7.588  11.585
 5449W        W 9193   5.379   1.672   1.280
 5450W        W 9194   2.824   3.398   1.573
 5451W        W 9195   1.404   0.378  10.433
 5452W        W 9196   4.673   8.082  10.541
 5453W        W 9197   1.610   3.015   0.237
 5454W        W 9198   5.558   8.313  10.866
 5455W        W 9199   7.627   7.403   1.713
 5456W        W 9200   2.631   8.464   2.391
 5457W        W 9201   1.831   2.220   0.939
 5458W        W 9202   3.343   3.834   0.377
 5459W        W 9203   8.513   2.296   9.269
 5460W        W 9204   1.625   1.341  11.324
 5461W        W 9205   3.598   1.900   3.017
 5462W        W 9206   1.172   9.522  10.428
 5463W        W 9207   1.796   0.186   8.629
 5464W        W 9208   0.168   9.206  10.464
 5465W        W 9209   3.913  10.414   2.685
 5466W        W 9210   4.418   7.625   2.738
 5467W        W 9211   0.717   3.297   1.164
 5468W        W 9212   3.601   5.699   1.696
 5469W        W 9213   4.112   9.345   9.353
 5470W        W 9214   4.070   7.502  10.630
 5471W        W 9215   1.935   1.357   3.445
 5472W        W 9216   4.983  10.009   3.444
 5473W        W 9217   0.225   7.385   2.336
 5474W        W 9218   1.797   5.463   2.187
 5475W        W 9219   4.686   0.629   9.055
 5476W        W 9220   0.468   3.868   3.103
 5477W        W 9221   4.323   5.141   9.568
 5478W        W 9222   1.880   2.901   8.368
 5479W        W 9223   8.180   5.040  11.802
 5480W        W 9224   8.043   8.633   0.764
 5481W        W 9225   3.239   7.375  10.332
 5482W        W 9226   7.124   0.777   3.061
 5483W        W 9227   0.708   3.094  10.915
 5484W        W 9228  10.485   9.425   2.004
 5485W        W 9229   6.163   9.079   3.417
 5486W        W 9230   1.103   0.435   9.174
 5487W        W 9231   6.150   6.178   2.047
 5488W        W 9232   4.025   9.821   3.433
 5489W        W 9233   7.025   4.587   3.745
 5490W        W 9234   9.243   3.389   9.814
 5491W        W 9235   4.593   4.150  10.913
 5492W        W 9236   5.046   2.384   9.511
 5493W        W 9237   1.226   4.203  11.027
 5494W        W 9238   8.644   6.719   8.578
 5495W        W 9239   9.365   0.908   8.977
 5496W        W 9240   8.889   1.722   8.825
 5497W        W 9241   5.075   6.108   9.552
 5498W        W 9242   6.101   1.955   0.253
 5499W        W 9243   0.905   6.271   3.030
 5500W        W 9244   4.254   3.645  11.721
 5501W        W 9245   3.297   6.159   8.586
 5502W        W 9246   0.672   8.887   9.101
 5503W        W 9247   6.294   1.366   8.443
 5504W        W 9248   4.613   9.237   0.462
 5505W        W 9249   0.960   1.772   0.110
 5506W        W 9250  10.453   4.549   2.588
 5507W        W 9251   8.628   7.564   0.841
 5508W        W 9252   9.361   1.523   9.548
 5509W        W 9253   9.880   1.350  11.191
 5510W        W 9254   4.287   3.129   2.734
 5511W        W 9255   2.869   2.157  10.356
 5512W        W 9256   4.241   5.235   1.380
 5513W        W 9257   7.605   8.805   0.575
 5514W        W 9258   4.739   1.736  10.365
 5515W        W 9259   6.171   7.579   8.089
 5516W        W 9260   9.274   6.238   0.966
 5517W        W 9261   8.478   6.071   2.643
 5518W        W 9262   3.217   7.135   1.159
 5519W        W 9263   2.782   9.723   2.271
 5520W        W 9264   9.448   3.574   2.496
 5521W        W 9265   6.427   2.306  10.978
 5522W        W 9266   6.174   9.663  11.841
 5523W        W 9267   6.454   2.159  11.460
 5524W        W 9268   5.971   4.649  11.754
 5525W        W 9269   7.221   6.682   8.357
 5526W        W 9270   7.131   1.972  11.495
 5527W        W 9271   1.492   7.902   1.909
 5528W        W 9272   9.079   6.998  11.731
 5529W        W 9273   9.180   2.242  10.938
 5530W        W 9274   0.447   6.943  11.852
 5531W        W 9275   7.386   7.994   2.219
 5532W        W 9276   1.210  10.083   0.508
 5533W        W 9277   0.444   7.645   1.876
 5534W        W 9278   3.433   3.657  10.979
 5535W        W 9279   5.754  10.345  10.958
 5536W        W 9280   2.633   8.822  11.957
 5537W        W 9281   1.307   0.962   2.593
 5538W        W 9282   4.599  10.381   3.363
 5539W        W 9283   9.104   8.901  11.058
 5540W        W 9284   2.214   2.520   9.219
 5541W        W 9285   9.405   8.198   3.056
 5542W        W 9286   6.406   5.357  10.409
 5543W        W 9287   6.538   1.734   0.388
 5544W        W 9288   3.255   2.382  10.641
 5545W        W 9289   5.669   8.379   9.940
 5546W        W 9290   7.436   1.522   2.668
 5547W        W 9291   7.896   8.000  10.267
 5548W        W 9292  10.245   2.738   9.336
 5549W        W 9293   1.607   5.067  10.940
 5550W        W 9294   7.134   9.693   3.692
 5551W        W 9295   1.254   4.154   0.905
 5552W        W 9296   9.777   2.809   9.539
 5553W        W 9297   0.878   0.397   1.447
 5554W        W 9298   6.481   0.799   8.814
 5555W        W 9299   4.738  10.091   1.688
 5556W        W 9300   7.493   9.043   3.472
 5557W        W 9301   8.942   1.436   3.471
 5558W        W 9302   8.053   8.032   2.257
 5559W        W 9303   5.600   2.630   2.454
 5560W        W 9304   2.032   8.941   3.308
 5561W        W 9305   7.158   9.727  11.971
 5562W        W 9306   0.673   0.069  11.432
 5563W        W 9307   8.533   3.188   1.400
 5564W        W 9308   9.019   6.048  11.475
 5565W        W 9309   8.319   2.451  10.778
 5566W        W 9310   3.270   7.301   0.197
 5567W        W 9311   8.312   7.130   0.702
 5568W        W 9312   4.243   0.306   1.784
 5569W        W 9313   0.771   4.746   1.488
 5570W        W 9314   0.928  10.239   8.562
 5571W        W 9315   3.410  10.021   0.994
 5572W        W 9316   5.637   4.130   1.200
 5573W        W 9317   7.372   3.162  10.692
 5574W        W 9318   3.639   3.522   2.440
 5575W        W 9319   8.071   9.816   3.441
 5576W        W 9320   9.806   4.723   2.384
 5577W        W 9321   6.526   6.082   0.665
 5578W        W 9322   9.970   4.510  11.020
 5579W        W 9323  10.307   6.115  11.184
 5580W        W 9324   4.201   0.843   8.973
 5581W        W 9325   1.833   7.417   0.961
 5582W        W 9326   4.225   9.497   1.101
 5583W        W 9327   0.886   2.262  11.968
 5584W        W 9328   5.632   7.240   2.821
 5585W        W 9329   4.736   6.468  10.806
 5586W        W 9330   5.552   2.693  11.390
 5587W        W 9331   7.481   8.953   1.052
 5588W        W 9332   2.811   9.068   0.379
 5589W        W 9333   8.095   4.202   3.162
 5590W        W 9334   8.100   5.097   2.572
 5591W        W 9335   6.557   2.658  11.356
 5592W        W 9336   8.102   4.973   1.565
 5593W        W 9337   1.373   1.657   1.191
 5594W        W 9338   9.690   2.269   2.240
 5595W        W 9339   8.357   2.421  10.277
 5596W        W 9340   3.744   0.429   9.819
 5597W        W 9341   8.795   3.156   2.443
 5598W        W 9342   4.038   9.467   8.448
 5599W        W 9343   7.513   1.921   2.156
 5600W        W 9344   8.945   2.638   0.240
 5601W        W 9345   7.034   6.945  11.709
 5602W        W 9346   5.051   2.362  10.496
 5603W        W 9347   5.976   7.914   2.443
 5604W        W 9348   0.059   2.390   0.955
 5605W        W 9349   6.249   4.659   1.593
 5606W        W 9350   2.439   3.416   2.951
 5607W        W 9351   1.954   4.506   3.287
 5608W        W 9352   7.641   6.440   3.394
 5609W        W 9353   7.081  10.184  10.918
 5610W        W 9354   2.224  10.301   9.279
 5611W        W 9355   7.869   0.239   9.515
 5612W        W 9356   2.925   8.484   3.329
 5613W        W 9357   3.129   0.706  10.885
 5614W        W 9358   2.428  10.255   1.669
 5615W        W 9359   8.560   9.324   9.056
 5616W        W 9360   0.696  10.095  11.329
 5617W        W 9361   7.584   2.823  10.367
 5618W        W 9362   8.545   6.474   9.576
 5619W        W 9363   6.957  10.418   1.213
 5620W        W 9364   4.549   0.328  11.053
 5621W        W 9365   0.350   4.484   1.417
 5622W        W 9366   0.704  10.264  11.825
 5623W        W 9367   2.721   8.566   9.190
 5624W        W 9368   3.069   4.301   0.365
 5625W        W 9369   4.605   0.070   1.511
 5626W        W 9370   0.431   9.381   1.774
 5627W        W 9371   0.998   4.650   9.183
 5628W        W 9372  10.188   2.244  10.652
 5629W        W 9373   7.006   9.920  10.005
 5630W        W 9374   4.632   7.204  11.579
 5631W        W 9375   5.545   3.074  10.632
 5632W        W 9376  10.292   1.559   1.347
 5633W        W 9377   4.090   2.584   0.957
 5634W        W 9378   0.922   2.154   3.299
 5635W        W 9379   1.744   0.739  11.381
 5636W        W 9380   3.199   8.704  11.938
 5637W        W 9381   5.792   8.083   4.065
 5638W        W 9382   8.457   8.499   1.266
 5639W        W 9383   8.634   5.290  11.805
 5640W        W 9384   2.233   4.526  11.640
 5641W        W 9385   9.368   4.210  10.441
 5642W        W 9386   2.400   2.963   8.454
 5643W        W 9387   5.610   7.547   9.366
 5644W        W 9388   6.504   3.415   1.028
 5645W        W 9389   8.067   1.649   9.779
 5646W        W 9390   3.281   3.273   1.762
 5647W        W 9391   4.536  10.414   0.785
 5648W        W 9392   1.796   4.700   0.935
 5649W        W 9393   2.620   4.252   2.832
 5650W        W 9394   1.303   1.947   8.874
 5651W        W 9395   4.724   0.428   2.477
 5652W        W 9396   5.786   5.998   3.150
 5653W        W 9397   1.751   4.357  11.772
 5654W        W 9398   4.702   8.031  11.077
 5655W        W 9399   0.834   5.662  10.147
 5656W        W 9400   0.436  10.220  10.394
 5657W        W 9401   2.349   6.990   1.705
 5658W        W 9402   9.771   8.602  10.454
 5659W        W 9403   3.822  10.040   1.650
 5660W        W 9404   5.095   2.570   2.706
 5661W        W 9405   5.203   1.651   8.709
 5662W        W 9406   8.422   0.702   3.261
 5663W        W 9407   6.997   1.198   1.925
 5664W        W 9408   9.109   2.193  11.990
 5665W        W 9409   2.332   9.425   2.241
 5666W        W 9410   3.366   0.968   8.695
 5667W        W 9411   5.316   8.487   1.495
 5668W        W 9412   2.466   6.187   0.422
 5669W        W 9413   3.082   0.782  11.890
 5670W        W 9414   7.458   0.661  11.382
 5671W        W 9415   0.524   6.050   2.227
 5672W        W 9416   7.310   6.115   3.153
 5673W        W 9417   5.642   4.100  10.977
 5674W        W 9418   4.361   8.584   1.332
 5675W        W 9419  10.342   7.023  11.260
 5676W        W 9420   5.910   7.081  10.475
 5677W        W 9421   4.988   8.011   0.802
 5678W        W 9422   6.455   3.643   9.909
 5679W        W 9423   1.703   3.525   9.329
 5680W        W 9424   2.760   1.948   0.391
 5681W        W 9425   2.885   6.940   9.403
 5682W        W 9426   0.920   6.660   8.928
 5683W        W 9427   7.960   2.678   2.333
 5684W        W 9428   4.026   2.661   2.711
 5685W        W 9429   0.929   6.153   2.503
 5686W        W 9430  10.286   7.922   0.413
 5687W        W 9431   8.521   0.209   3.224
 5688W        W 9432   0.201   0.959   3.389
 5689W        W 9433   3.471   0.562   3.556
 5690W        W 9434   4.606   4.112   7.885
 5691W        W 9435   7.350   6.536   0.302
 5692W        W 9436   3.162  10.014   2.961
 5693W        W 9437   6.974   9.871   2.688
 5694W        W 9438   7.679   1.863   2.946
 5695W        W 9439  10.414   8.888   9.682
 5696W        W 9440   3.799   2.750  10.567
 5697W        W 9441   9.375   9.084   0.037
 5698W        W 9442   0.018   2.625   8.627
 5699W        W 9443   8.867   5.815   0.336
 5700W        W 9444   5.013   0.825   2.658
 5701W        W 9445   6.635   6.453   1.797
 5702W        W 9446   8.970   7.440   1.575
 5703W        W 9447   5.318   2.758   3.417
 5704W        W 9448  10.032   0.860   9.591
 5705W        W 9449   2.435   5.673   3.189
 5706W        W 9450   6.444   1.149   1.918
 5707W        W 9451   2.709   8.388   2.889
 5708W        W 9452   7.883   7.437  11.521
 5709W        W 9453   6.143   2.064   2.790
 5710W        W 9454   4.162   7.130   1.463
 5711W        W 9455   8.846   8.876   3.334
 5712W        W 9456   3.409   2.683   2.541
 5713W        W 9457   2.949   0.680   8.566
 5714W        W 9458   9.310   3.035   9.405
 5715W        W 9459   8.817   7.518   3.064
 5716W        W 9460   5.146   5.250   9.062
 5717W        W 9461   9.732   5.590  11.683
 5718W        W 9462  10.023   2.113   3.215
 5719W        W 9463  10.433   2.676   2.574
 5720W        W 9464   6.420   6.065  10.865
 5721W        W 9465   7.225   9.765   8.516
 5722W        W 9466   8.625   4.464   0.800
 5723W        W 9467   4.197   3.103   0.911
 5724W        W 9468   4.359   9.504   2.833
 5725W        W 9469   6.127   8.554   3.376
 5726W        W 9470   7.351  10.245   8.766
 5727W        W 9471   9.371   7.967   0.976
 5728W        W 9472   4.750   4.528   9.073
 5729W        W 9473   2.898   6.694  10.303
 5730W        W 9474   3.583   2.366   0.459
 5731W        W 9475   1.441   8.545   0.134
 5732W        W 9476  10.066   6.483   0.144
 5733W        W 9477   6.198  10.047  10.893
 5734W        W 9478   1.605   8.311   3.544
 5735W        W 9479   4.591   9.081   1.420
 5736W        W 9480   9.047   9.094   0.450
 5737W        W 9481   7.373   3.254   1.355
 5738W        W 9482   5.973   2.589   9.411
 5739W        W 9483   3.674   6.280   8.946
 5740W        W 9484   8.051   2.840   9.737
 5741W        W 9485   0.225   3.049  11.416
 5742W        W 9486   2.113   3.425  10.148
 5743W        W 9487   0.873   2.390  11.443
 5744W        W 9488   1.841   3.379   1.029
 5745W        W 9489   1.712   4.147   1.122
 5746W        W 9490   9.724   4.281   2.136
 5747W        W 9491   1.030   0.505   3.312
 5748W        W 9492   2.662   5.879   8.566
 5749W        W 9493   6.149   1.731   8.795
 5750W        W 9494   9.426   5.482   8.897
 5751W        W 9495   4.073   0.935   2.364
 5752W        W 9496   2.380   4.254   2.365
 5753W        W 9497   8.922   9.950   9.533
 5754W        W 9498   8.715   2.375  11.079
 5755W        W 9499   6.007   3.871   9.262
 5756W        W 9500   1.597   0.797   3.270
 5757W        W 9501   1.435   4.612   2.183
 5758W        W 9502   2.264   2.335  10.629
 5759W        W 9503   6.143   9.359  10.030
 5760W        W 9504   8.980   8.876   2.280
 5761W        W 9505   9.384   7.306  11.482
 5762W        W 9506   1.110   7.928   9.966
 5763W        W 9507   9.293   5.054   0.754
 5764W        W 9508   3.740   3.607   0.931
 5765W        W 9509   9.969   9.566   2.136
 5766W        W 9510   9.581   4.815   3.802
 5767W        W 9511   6.923   6.557   3.772
 5768W        W 9512   9.459   4.825   2.783
 5769W        W 9513   3.334   3.230   9.602
 5770W        W 9514   7.418   2.341   3.076
 5771W        W 9515   4.083   8.257  11.798
 5772W        W 9516   8.994   7.523   8.877
 5773W        W 9517   2.498   0.719  10.089
 5774W        W 9518   9.447   9.105   2.826
 5775W        W 9519   0.237   9.549   2.840
 5776W        W 9520   8.353   6.262  10.034
 5777W        W 9521  10.010   4.532   9.072
 5778W        W 9522   8.402   6.990   1.893
 5779W        W 9523  10.259   4.088   1.888
 5780W        W 9524   1.759   0.778   2.751
 5781W        W 9525   1.074   9.986   1.010
 5782W        W 9526   5.834   0.314   9.722
 5783W        W 9527   3.713   2.249   2.666
 5784W        W 9528   2.348   6.243   1.295
 5785W        W 9529   2.313   2.999   9.341
 5786W        W 9530   9.769   7.685  10.626
 5787W        W 9531   4.629   1.346   1.592
 5788W        W 9532   2.428   9.377  10.749
 5789W        W 9533   9.373   5.858   2.710
 5790W        W 9534   9.452   0.310   1.498
 5791W        W 9535   5.911   6.889   0.735
 5792W        W 9536   7.554   4.562   8.608
 5793W        W 9537   3.149   7.030   9.968
 5794W        W 9538   1.887   9.453   1.962
 5795W        W 9539   5.581   9.916   2.213
 5796W        W 9540   9.095   7.211   0.189
 5797W        W 9541   5.135   5.565   2.677
 5798W        W 9542   6.528   0.291  10.462
 5799W        W 9543   2.216   4.984  10.318
 5800W        W 9544   8.507   8.419   0.744
 5801W        W 9545   9.836   2.659   0.419
 5802W        W 9546   9.572   0.817   1.376
 5803W        W 9547   8.334   0.478  11.772
 5804W        W 9548   7.555   0.591  10.379
 5805W        W 9549   8.152   7.935   9.316
 5806W        W 9550   2.262   0.181  10.915
 5807W        W 9551   2.336   1.625   2.180
 5808W        W 9552   1.851   9.487   3.414
 5809W        W 9553   1.158   9.065  10.685
 5810W        W 9554   6.460   7.809  10.297
 5811W        W 9555   3.593   5.067   0.207
 5812W        W 9556   8.074   6.936  10.798
 5813W        W 9557   6.507   3.231   9.128
 5814W        W 9558   9.010   4.064   8.620
 5815W        W 9559   4.209   5.758   2.342
 5816W        W 9560   0.711   7.494   3.169
 5817W        W 9561   0.700   2.122   0.444
 5818W        W 9562   7.596   1.843   1.152
 5819W        W 9563   3.274   4.209   3.556
 5820W        W 9564   5.957   8.035   8.327
 5821W        W 9565   9.615   5.064   9.996
 5822W        W 9566   8.695   5.783   3.532
 5823W        W 9567   4.895   9.509   9.960
 5824W        W 9568   9.731   3.346  10.135
 5825W        W 9569   4.513   1.848   1.416
 5826W        W 9570   4.276   0.681  11.319
 5827W        W 9571   4.146   7.756  11.783
 5828W        W 9572   2.525   1.716   9.474
 5829W        W 9573   8.082   4.670   9.453
 5830W        W 9574   0.468   5.575   2.438
 5831W        W 9575   6.433   7.420  11.779
 5832W        W 9576   3.212   9.554   3.194
 5833W        W 9577   0.855   8.352   9.058
 5834W        W 9578   8.473   9.915   1.000
 5835W        W 9579   9.068   5.015  11.839
 5836W        W 9580   8.202   4.268   9.122
 5837W        W 9581   3.473   8.447  10.009
 5838W        W 9582   9.366   5.847   9.541
 5839W        W 9583   9.632   9.381   1.451
 5840W        W 9584   6.035   3.058   2.816
 5841W        W 9585   5.761   7.851  11.743
 5842W        W 9586   1.449   3.240  11.342
 5843W        W 9587   9.134   6.637   2.146
 5844W        W 9588   5.217   1.897   0.264
 5845W        W 9589   0.698   4.270   2.765
 5846W        W 9590  10.147   9.084  10.919
 5847W        W 9591   0.376   0.301   9.532
 5848W        W 9592   3.221   7.177   2.619
 5849W        W 9593   7.848   6.925   1.907
 5850W        W 9594   8.966   0.470   3.307
 5851W        W 9595   8.933   3.665   2.487
 5852W        W 9596   4.111   0.921   9.489
 5853W        W 9597   4.477   7.188  10.511
 5854W        W 9598   3.326   3.614  11.924
 5855W        W 9599   2.721   9.858   2.756
 5856W        W 9600   3.625   9.833   3.136
 5857W        W 9601   6.432   9.587   8.834
 5858W        W 9602   3.143   9.776   0.297
 5859W        W 9603   0.188   8.059   1.686
 5860W        W 9604   4.362   5.666   2.822
 5861W        W 9605   6.263   1.468   3.636
 5862W        W 9606   1.837   7.799  10.455
 5863W        W 9607   9.358   2.514   9.438
 5864W        W 9608   7.959   7.728   8.546
 5865W        W 9609   2.516   6.555   4.124
 5866W        W 9610   5.510   5.504   2.273
 5867W        W 9611   6.117  10.191   3.712
 5868W        W 9612   3.194   9.386   2.190
 5869W        W 9613   0.239   5.429  11.812
 5870W        W 9614   0.306   2.860   3.733
 5871W        W 9615   5.423  10.372   2.439
 5872W        W 9616   1.027   0.892   2.185
 5873W        W 9617   0.823   3.572   9.868
 5874W        W 9618   8.294   1.402   2.200
 5875W        W 9619   3.800   4.128   3.247
 5876W        W 9620   8.781  10.377   1.392
 5877W        W 9621   4.072   6.252   2.394
 5878W        W 9622   7.531   3.140   8.651
 5879W        W 9623   4.110   4.124   8.670
 5880W        W 9624   6.930   8.938  10.955
 5881W        W 9625   5.465   2.670   9.648
 5882W        W 9626   3.222   9.353   9.516
 5883W        W 9627   8.909   7.945  11.152
 5884W        W 9628   6.463   5.174   9.874
 5885W        W 9629   1.250  10.069   2.311
 5886W        W 9630   1.192   6.700   9.347
 5887W        W 9631   6.501   7.558   9.550
 5888W        W 9632   8.557   3.053   0.895
 5889W        W 9633   7.385   5.001  10.739
 5890W        W 9634  10.281   2.505   3.797
 5891W        W 9635   3.156   7.134   3.278
 5892W        W 9636   7.145   4.698   2.889
 5893W        W 9637  10.344   6.535   0.576
 5894W        W 9638   0.387   8.465   0.830
 5895W        W 9639   1.890   8.665   3.742
 5896W        W 9640   7.024   7.498   2.872
 5897W        W 9641   6.077  10.045   2.064
 5898W        W 9642   1.640   8.969  11.905
 5899W        W 9643   4.822   6.976  10.837
 5900W        W 9644   0.572   3.121  10.014
 5901W        W 9645   0.250   8.541   1.863
 5902W        W 9646   5.170   3.668  11.666
 5903W        W 9647   5.715   2.834  11.847
 5904W        W 9648   2.264   6.008  11.291
 5905W        W 9649   4.695   5.560  10.711
 5906W        W 9650   4.296   3.400   0.178
 5907W        W 9651   5.460   9.616   9.326
 5908W        W 9652   3.876   5.272   1.726
 5909W        W 9653   4.150   7.512   3.537
 5910W        W 9654   4.163   7.905   9.219
 5911W        W 9655   0.833   1.889  11.622
 5912W        W 9656   5.543   2.924  10.134
 5913W        W 9657   3.473   2.190  11.929
 5914W        W 9658   9.137   7.186   9.917
 5915W        W 9659   3.855   7.187   9.354
 5916W        W 9660   6.769   7.974   1.528
 5917W        W 9661   6.184   9.353   0.828
 5918W        W 9662   0.974   7.456   0.415
 5919W        W 9663   8.619   8.642   0.305
 5920W        W 9664   2.681  10.460   0.114
 5921W        W 9665   8.806   3.279  10.556
 5922W        W 9666   1.209   7.724  11.781
 5923W        W 9667   7.381   5.648   2.565
 5924W        W 9668   8.366  10.223   9.775
 5925W        W 9669   6.754  10.459   3.032
 5926W        W 9670   5.582   9.156   9.165
 5927W        W 9671   3.955   0.609   3.428
 5928W        W 9672   2.077   1.113  11.283
 5929W        W 9673   4.019  10.331   0.802
 5930W        W 9674   6.827   7.924   9.401
 5931W        W 9675   8.819   5.026  11.396
 5932W        W 9676   6.127   0.852   2.282
 5933W        W 9677  10.432   3.723   2.673
 5934W        W 9678  10.036   0.968   2.275
 5935W        W 9679   9.342   1.622   8.610
 5936W        W 9680   2.753   4.074   8.967
 5937W        W 9681   2.789   5.064   0.528
 5938W        W 9682   0.867   3.159  10.435
 5939W        W 9683   8.946   6.417  10.687
 5940W        W 9684   4.764   8.988   3.384
 5941W        W 9685   0.807   2.314  10.514
 5942W        W 9686   0.845   9.736   3.000
 5943W        W 9687   7.555  10.446  10.896
 5944W        W 9688   2.563   0.811   1.019
 5945W        W 9689   0.702   8.795   3.107
 5946W        W 9690   1.830   7.387   3.069
 5947W        W 9691  10.363   0.457   9.506
 5948W        W 9692   2.852   0.374  10.325
 5949W        W 9693   8.888   9.771   2.590
 5950W        W 9694   6.128   8.490   9.027
 5951W        W 9695   5.581   5.378  11.383
 5952W        W 9696   2.266   2.386   8.703
 5953W        W 9697   0.426  10.486   9.953
 5954W        W 9698   2.831   3.159   9.438
 5955W        W 9699   5.060   1.810  11.257
 5956W        W 9700   5.762   5.545  11.829
 5957W        W 9701   2.231   0.270   2.332
 5958W        W 9702   7.472   6.582   2.946
 5959W        W 9703   5.206   9.222  10.238
 5960W        W 9704   5.549   5.593   9.460
 5961W        W 9705   6.935   8.366  11.489
 5962W        W 9706   7.047   1.644   8.962
 5963W        W 9707   5.611   1.252   9.768
 5964W        W 9708   2.354   6.916  11.978
 5965W        W 9709   7.530   9.397  11.923
 5966W        W 9710   0.873   3.640   3.253
 5967W        W 9711   4.005   3.565  10.032
 5968W        W 9712   3.682   5.159  10.244
 5969W        W 9713   8.883   9.432   0.826
 5970W        W 9714   4.975   8.170   9.274
 5971W        W 9715   0.950   5.619  10.644
 5972W        W 9716   1.864   6.519  10.777
 5973W        W 9717   9.787   7.661   1.314
 5974W        W 9718   6.606   7.246   9.161
 5975W        W 9719   2.658   5.122  11.985
 5976W        W 9720   7.514   7.513   8.435
 5977W        W 9721   3.558   0.006   0.212
 5978W        W 9722  10.259   8.673  11.845
 5979W        W 9723   4.245   7.243   0.987
 5980W        W 9724   0.965   3.335  11.271
 5981W        W 9725   2.149   4.925   1.289
 5982W        W 9726   4.302   8.848   8.943
 5983W        W 9727   9.548   2.199  11.276
 5984W        W 9728   1.800   5.978   2.024
 5985W        W 9729   5.613  10.054   9.105
 5986W        W 9730   0.186   8.308  10.431
 5987W        W 9731   0.754   7.422  11.495
 5988W        W 9732   9.196   2.178   2.188
 5989W        W 9733   8.572   1.965  10.134
 5990W        W 9734   7.901   1.452   1.460
 5991W        W 9735   3.382   4.729   2.709
 5992W        W 9736   7.865   7.090  11.888
 5993W        W 9737   8.618   3.890   0.575
 5994W        W 9738   5.531   5.796   1.624
 5995W        W 9739   0.415   6.656   0.877
 5996W        W 9740   6.084   4.792   9.833
 5997W        W 9741   6.429   7.022   9.616
 5998W        W 9742   8.826   3.667   9.575
 5999W        W 9743   7.112   3.640   1.574
 6000W        W 9744   2.501   0.712   2.385
 6001W        W 9745   9.885   8.742   2.517
 6002W        W 9746   8.745   8.378  10.359
 6003W        W 9747   4.079   5.586   0.043
 6004W        W 9748   1.381   0.882   9.020
 6005W        W 9749   8.311   3.273   2.418
 6006W        W 9750   2.901   2.628   2.652
 6007W        W 9751   4.664   8.499   3.537
 6008W        W 9752   4.799   2.132  10.031
 6009W        W 9753   9.964   7.476   0.396
 6010W        W 9754   7.528  10.032   3.316
 6011W        W 9755   0.652  10.315   1.154
 6012W        W 9756   3.948   4.767   9.372
 6013W        W 9757   0.728   5.431   1.298
 6014W        W 9758   0.275   3.843   0.381
 6015W        W 9759   6.615   1.002   0.832
 6016W        W 9760   9.522   9.393  11.547
 6017W        W 9761   7.444   9.047  10.895
 6018W        W 9762   3.345   6.049   0.268
 6019W        W 9763   8.946   1.252   9.783
 6020W        W 9764   3.229   0.179  10.868
 6021W        W 9765   4.662   5.056   1.615
 6022W        W 9766   0.415   5.715   0.984
 6023W        W 9767   4.927   8.891  11.039
 6024W        W 9768  10.003   6.866   9.882
 6025W        W 9769   8.596   7.787  11.965
 6026W        W 9770   5.813   4.337  10.002
 6027W        W 9771   8.101   4.258  10.926
 6028W        W 9772   0.335   8.960   3.487
 6029W        W 9773  10.242   2.258  10.128
 6030W        W 9774   0.916   9.092   0.451
 6031W        W 9775   8.384   8.968   1.496
 6032W        W 9776   3.932   4.515   1.020
 6033W        W 9777   1.174   1.790   3.555
 6034W        W 9778  10.240   3.695   0.511
 6035W        W 9779   6.817   0.795   1.242
 6036W        W 9780   3.002   1.721   0.795
 6037W        W 9781   4.254   8.807   3.397
 6038W        W 9782   3.070   9.234  10.031
 6039W        W 9783   0.040   5.508   8.490
 6040W        W 9784   1.542   3.360  11.848
 6041W        W 9785   7.575   1.279   9.017
 6042W        W 9786   5.233   3.569  10.713
 6043W        W 9787   4.830   3.691  10.992
 6044W        W 9788   1.048   5.867   1.237
 6045W        W 9789   1.979   1.794   3.727
 6046W        W 9790   7.873   5.577   2.664
 6047W        W 9791   1.326   5.997  11.335
 6048W        W 9792   0.610   3.835   3.626
 6049W        W 9793   0.961   3.341   0.710
 6050W        W 9794   5.249   8.413   0.984
 6051W        W 9795   4.405   1.154  11.491
 6052W        W 9796   3.101   3.996   0.789
 6053W        W 9797   2.772   8.933   1.646
 6054W        W 9798   0.369   1.073   0.985
 6055W        W 9799   7.636   6.843   9.990
 6056W        W 9800   6.908   3.764   8.550
 6057W        W 9801   8.320   7.549   3.203
 6058W        W 9802   5.683   9.200   2.624
 6059W        W 9803   1.122   0.014   0.985
 6060W        W 9804   0.055   1.135   1.387
 6061W        W 9805   0.701   5.224  10.416
 6062W        W 9806   6.205   5.605  10.854
 6063W        W 9807   3.144   9.171  10.908
 6064W        W 9808   9.152   6.906  11.240
 6065W        W 9809   9.766  10.490   2.213
 6066W        W 9810   3.155   7.072   8.557
 6067W        W 9811   4.986   6.617   9.438
 6068W        W 9812  10.147   4.137   2.388
 6069W        W 9813   0.086   3.724   1.670
 6070W        W 9814   7.861   7.314   3.204
 6071W        W 9815   1.380   6.446   3.240
 6072W        W 9816   0.888   4.448   0.688
 6073W        W 9817   7.881   2.167   3.293
 6074W        W 9818   7.778   7.988   8.938
 6075W        W 9819   3.579   8.077   1.203
 6076W        W 9820   7.654   5.238   2.342
 6077W        W 9821   6.074   2.269   3.248
 6078W        W 9822   2.441   2.431  10.151
 6079W        W 9823   8.610   7.287   9.969
 6080W        W 9824   4.560   8.054   9.515
 6081W        W 9825   3.639   4.057  11.993
 6082W        W 9826   2.582   2.804  11.117
 6083W        W 9827   3.374   4.161   9.843
 6084W        W 9828   0.406   8.151  11.294
 6085W        W 9829   6.617   4.346   1.431
 6086W        W 9830   3.057   6.769   1.566
 6087W        W 9831   1.180   9.908  10.085
 6088W        W 9832   0.829   1.425   8.567
 6089W        W 9833   1.534  10.208   0.878
 6090W        W 9834   8.925   4.838   1.046
 6091W        W 9835   5.289   4.287   9.873
 6092W        W 9836   4.608   2.260   0.589
 6093W        W 9837   3.125   6.552   3.323
 6094W        W 9838   8.924   2.226   9.608
 6095W        W 9839  10.169   1.732  10.963
 6096W        W 9840   1.277   7.408   3.561
 6097W        W 9841   8.368   4.199  10.492
 6098W        W 9842   0.519   9.984   9.133
 6099W        W 9843   6.203   7.645  10.819
 6100W        W 9844   0.246   7.550   9.107
 6101W        W 9845   6.256   7.807   2.876
 6102W        W 9846   8.819   1.793   0.189
 6103W        W 9847   2.602   5.090   1.017
 6104W        W 9848   8.835   6.252   2.311
 6105W        W 9849   2.720   7.220  11.104
 6106W        W 9850   4.504   0.664   1.444
 6107W        W 9851   1.923   4.653  10.689
 6108W        W 9852   0.770   5.071   3.274
 6109W        W 9853   9.385   4.005   3.432
 6110W        W 9854   0.896   5.663   0.791
 6111W        W 9855   8.632   2.724   2.731
 6112W        W 9856   1.662   6.481   1.998
 6113W        W 9857   3.755   6.598   0.367
 6114W        W 9858   8.906   4.238   3.331
 6115W        W 9859   2.387   3.389   1.314
 6116W        W 9860   7.599   9.612   3.034
 6117W        W 9861   9.637   9.522   3.588
 6118W        W 9862   6.551  10.005   9.767
 6119W        W 9863   3.145   4.172  11.836
 6120W        W 9864   8.925   1.014   1.690
 6121W        W 9865   7.847  10.326   2.261
 6122W        W 9866   6.205   0.269   2.986
 6123W        W 9867   5.978   3.171   3.637
 6124W        W 9868   9.925   0.791   0.476
 6125W        W 9869   3.342   8.884   9.792
 6126W        W 9870   7.581   9.936   2.042
 6127W        W 9871   8.787   2.211   0.986
 6128W        W 9872   0.413   8.473   9.980
 6129W        W 9873   3.207   3.556  11.439
 6130W        W 9874   1.422   4.666  10.614
 6131W        W 9875   3.867   1.853   1.271
 6132W        W 9876   5.872   3.658   3.796
 6133W        W 9877   1.334   5.077   0.228
 6134W        W 9878   1.317   3.268   9.085
 6135W        W 9879   7.627   7.519   0.765
 6136W        W 9880   3.814   4.436   2.264
 6137W        W 9881   6.193   7.688   3.453
 6138W        W 9882   6.585   9.462   0.159
 6139W        W 9883   8.075   0.712  10.197
 6140W        W 9884   4.160   7.664  11.099
 6141W        W 9885   6.634   0.703   1.724
 6142W        W 9886   7.707   8.657   0.086
 6143W        W 9887   7.439   8.400   9.054
 6144W        W 9888   8.410   2.844   3.228
 6145W        W 9889   9.303   5.717  11.163
 6146W        W 9890   3.734   4.365   9.065
 6147W        W 9891   3.376   8.509   2.223
 6148W        W 9892   1.865   8.992   1.744
 6149W        W 9893   9.790   8.999   8.930
 6150W        W 9894   5.605   0.611   0.803
 6151W        W 9895   3.717   8.364   0.771
 6152W        W 9896   8.459   2.378   9.775
 6153W        W 9897   2.309   9.781  11.043
 6154W        W 9898   8.605   1.183  11.410
 6155W        W 9899   4.013   0.770   2.874
 6156W        W 9900   6.953   7.462   0.227
 6157W        W 9901   6.535   8.300  11.848
 6158W        W 9902   4.106   4.175   2.833
 6159W        W 9903   3.316   4.580   2.157
 6160W        W 9904   7.352  10.265   2.398
 6161W        W 9905   6.023   6.691   0.281
 6162W        W 9906   3.372   4.484   9.397
 6163W        W 9907   6.572   1.804   9.142
 6164W        W 9908   5.723   5.952   0.740
 6165W        W 9909   0.289   3.411   2.976
 6166W        W 9910  10.000   1.736   0.940
 6167W        W 9911   8.461   1.513   3.196
 6168W        W 9912   6.756   0.750  10.225
 6169W        W 9913   8.827   9.377   3.456
 6170W        W 9914   4.874   2.683   3.150
 6171W        W 9915   0.659   9.495   0.160
 6172W        W 9916   4.831   2.805   1.426
 6173W        W 9917   7.604   3.739   3.395
 6174W        W 9918   6.080   0.702  11.791
 6175W        W 9919   5.932   9.378   2.202
 6176W        W 9920   8.763   2.275  10.585
 6177W        W 9921   7.605   4.112  10.891
 6178W        W 9922   9.062   8.472  11.353
 6179W        W 9923   7.422   6.130   2.236
 6180W        W 9924   2.590   7.487   1.477
 6181W        W 9925   5.266   6.461   0.646
 6182W        W 9926   1.594   9.889  11.581
 6183W        W 9927   0.866   7.521   9.801
 6184W        W 9928  10.006   5.350   0.045
 6185W        W 9929  10.337   2.331   0.029
 6186W        W 9930   6.843   6.120  10.100
 6187W        W 9931   2.496  10.374   0.737
 6188W        W 9932   3.337   2.839  10.413
 6189W        W 9933   0.327   0.271   1.434
 6190W        W 9934   5.257   6.254  11.531
 6191W        W 9935   1.726   1.658   2.825
 6192W        W 9936   3.266   7.953   9.530
 6193W        W 9937   5.332   6.017   0.366
 6194W        W 9938   1.105   3.162   9.969
 6195W        W 9939   7.342  10.162   0.179
 6196W        W 9940   7.406   0.705   2.471
 6197W        W 9941   3.657  10.423  11.712
 6198W        W 9942   0.379   6.128  10.318
 6199W        W 9943   2.714   0.801  10.550
 6200W        W 9944   4.039   5.081  11.959
 6201W        W 9945   1.358   9.813   3.768
 6202W        W 9946  10.015   8.980   1.378
 6203W        W 9947   5.787   1.562   0.999
 6204W        W 9948   1.479   5.987   0.301
 6205W        W 9949   9.640   8.116  10.295
 6206W        W 9950   4.696   4.092   3.655
 6207W        W 9951   7.287   2.811   9.950
 6208W        W 9952   5.732   7.346  10.873
 6209W        W 9953   1.157   6.127   0.738
 6210W        W 9954   2.781   5.583   3.568
 6211W        W 9955  10.223   4.248   3.405
 6212W        W 9956   2.333   5.236   9.862
 6213W        W 9957   6.759   0.298  10.001
 6214W        W 9958   5.139   3.871  10.254
 6215W        W 9959   3.783   3.751   2.882
 6216W        W 9960   0.321   6.483   2.427
 6217W        W 9961   8.779   1.388   2.007
 6218W        W 9962  10.129   1.683   2.936
 6219W        W 9963   6.983   6.523   2.785
 6220W        W 9964   9.489   1.392   9.059
 6221W        W 9965   3.799   2.667   3.511
 6222W        W 9966   6.479   8.797  11.926
 6223W        W 9967   2.024   1.703   9.588
 6224W        W 9968   3.287   8.586   0.932
 6225W        W 9969  10.419   7.674   1.885
 6226W        W 9970   1.211   2.128   0.355
 6227W        W 9971   6.197   4.186   2.618
 6228W        W 9972   9.599   8.509  11.385
 6229W        W 9973   8.457   2.628  11.443
 6230W        W 9974   9.351   7.407  10.598
 6231W        W 9975   3.690   9.225   3.389
 6232W        W 9976   5.925   8.072   3.206
 6233W        W 9977   3.529   4.873   1.013
 6234W        W 9978   4.308   9.828   9.361
 6235W        W 9979   2.230   3.500   9.318
 6236W        W 9980   7.420   1.949   3.427
 6237W        W 9981   2.313   8.892   9.048
 6238W        W 9982   9.452   1.741  10.012
 6239W        W 9983   5.925   7.370  11.783
 6240W        W 9984   7.875  10.364  11.440
 6241W        W 9985   0.585   8.169   1.984
 6242W        W 9986  10.310   7.762   2.387
 6243W        W 9987   9.002   4.523   0.103
 6244W        W 9988   3.830   6.159   1.772
 6245W        W 9989   0.827   2.603   2.516
 6246W        W 9990  10.345   9.551  10.961
 6247W        W 9991   2.865   1.078   1.777
 6248W        W 9992   9.633   5.970   9.974
 6249W        W 9993   9.451   1.189  11.434
 6250W        W 9994   1.502   5.487   3.475
 6251W        W 9995   1.447   3.209   1.641
 6252W        W 9996   6.003   9.784   2.485
 6253W        W 9997   5.804   8.722   2.724
 6254W        W 9998   7.189   0.853   1.599
 6255W        W 9999   6.921   5.648   9.341
 6256W        W10000   7.603   1.567  10.544
 6257W        W10001   2.140   2.994   2.962
 6258W        W10002   8.872  10.208   2.264
 6259W        W10003   1.012   7.925  10.476
 6260W        W10004   0.416   6.663   9.874
 6261W        W10005   4.077   7.005  10.818
 6262W        W10006   9.995   0.888  11.466
 6263W        W10007   5.194   1.655   9.227
 6264W        W10008   5.059   6.082  10.074
 6265W        W10009   2.818   7.628  10.597
 6266W        W10010   3.486   7.658   8.509
 6267W        W10011   6.428   4.168   3.122
 6268W        W10012   5.923  10.324   2.467
 6269W        W10013  10.244   4.071   9.171
 6270W        W10014   9.772   5.188   2.986
 6271W        W10015   9.932   3.240   2.005
 6272W        W10016   1.776   9.384   9.512
 6273W        W10017   0.397   0.860  11.563
 6274W        W10018  10.238   3.273   2.443
 6275W        W10019   9.323   6.584   3.553
 6276W        W10020   0.003   4.696   9.067
 6277W        W10021   0.792   1.458   9.467
 6278W        W10022   8.081   7.884   1.323
 6279W        W10023   6.302   7.888   1.771
 6280W        W10024   9.237   0.775  10.935
 6281W        W10025   6.528   6.865  10.095
 6282W        W10026   7.133  10.339   3.361
 6283W        W10027   4.308   4.283   2.385
 6284W        W10028   0.899   0.815  10.755
 6285W        W10029   0.929   4.652   3.517
 6286W        W10030   8.474   7.711   2.304
 6287W        W10031   0.477   2.549   0.706
 6288W        W10032   8.586   7.459   1.871
 6289W        W10033   2.259   1.457   2.683
 6290W        W10034   9.546   1.953  10.481
 6291W        W10035   9.090   7.635  11.896
 6292W        W10036   9.375   8.419   1.275
 6293W        W10037   1.300   8.028   1.440
 6294W        W10038   4.401   9.025   2.975
 6295W        W10039   6.742   1.363  11.033
 6296W        W10040   0.410   3.724   2.066
 6297W        W10041   9.363   6.724   8.982
 6298W        W10042  10.449   2.269  11.547
 6299W        W10043   1.609   0.821  11.882
 6300W        W10044   5.210   3.327  10.288
 6301W        W10045   3.793   7.390  11.879
 6302W        W10046  10.487   3.597  10.457
 6303W        W10047   1.923   0.065   0.047
 6304W        W10048   7.407   1.665   0.271
 6305W        W10049   7.421   9.287   0.684
 6306W        W10050  10.447   9.616   9.070
 6307W        W10051   7.821   6.968   2.421
 6308W        W10052   2.669   1.662   3.123
 6309W        W10053   7.027   0.693   2.098
 6310W        W10054  10.238   4.673   9.517
 6311W        W10055   7.947   5.652  11.297
 6312W        W10056   5.697   0.776   2.018
 6313W        W10057  10.039   5.606   8.474
 6314W        W10058   1.734   1.192  10.372
 6315W        W10059   9.430   1.604  11.806
 6316W        W10060   8.161   4.544  11.686
 6317W        W10061   1.609   8.968  10.955
 6318W        W10062   7.356   4.313  10.463
 6319W        W10063  10.483   1.895   0.984
 6320W        W10064   2.390   9.054   9.540
 6321W        W10065   6.771   5.076  10.611
 6322W        W10066   7.432   3.628  10.945
 6323W        W10067   8.905   7.498  11.413
 6324W        W10068   7.858   5.093   9.600
 6325W        W10069   7.420   4.223   2.154
 6326W        W10070   1.922   8.430   0.865
 6327W        W10071   4.568   0.700   9.560
 6328W        W10072   9.954   1.784  11.958
 6329W        W10073   3.707   9.102   9.533
 6330W        W10074   2.203   9.926  10.063
 6331W        W10075   4.825   1.759   2.450
 6332W        W10076   9.046   3.700   0.765
 6333W        W10077   0.442   3.145   1.980
 6334W        W10078  10.463   5.071   0.086
 6335W        W10079   8.888   6.468  11.210
 6336W        W10080   8.859   8.510   8.871
 6337W        W10081   1.485   6.994   2.270
 6338W        W10082   2.640   7.348   8.173
 6339W        W10083   0.288   7.660  11.389
 6340W        W10084   2.230  10.239   0.301
 6341W        W10085   4.087   1.793   1.724
 6342W        W10086   5.654   2.135   2.374
 6343W        W10087   7.579   7.514   9.445
 6344W        W10088   5.084   2.109   9.054
 6345W        W10089   9.043   6.197  11.989
 6346W        W10090   5.315   6.783   3.604
 6347W        W10091   9.322   3.858   9.646
 6348W        W10092   5.355   4.760  10.635
 6349W        W10093   2.233   9.836   1.944
 6350W        W10094   3.462   6.638   1.836
 6351W        W10095   6.644   3.262   9.615
 6352W        W10096   6.028   0.715   9.057
 6353W        W10097   1.642   1.775   3.329
 6354W        W10098   4.328  10.420   8.653
 6355W        W10099   4.610   7.641  11.958
 6356W        W10100   2.246   6.473  11.118
 6357W        W10101   1.012  10.444  11.073
 6358W        W10102   2.193   2.047  11.630
 6359W        W10103   2.378   3.341   1.860
 6360W        W10104   6.496   2.060   3.474
 6361W        W10105   5.096   6.900   1.854
 6362W        W10106   5.447   2.578   0.803
 6363W        W10107   1.886   6.714   8.837
 6364W        W10108   5.605   9.754   0.463
 6365W        W10109   1.866   2.301   1.862
 6366W        W10110   6.493   4.035  11.370
 6367W        W10111   5.046  10.366  10.273
 6368W        W10112   8.011   4.592   3.457
 6369W        W10113   8.543   3.219   8.722
 6370W        W10114   1.337  10.464   8.776
 6371W        W10115  10.346  10.032   9.591
 6372W        W10116   0.825   0.781   2.664
 6373W        W10117   5.952   9.084   1.219
 6374W        W10118   4.295   0.522   0.219
 6375W        W10119   1.068   4.688  10.975
 6376W        W10120   7.570   6.386  10.882
 6377W        W10121   0.450   5.654  10.504
 6378W        W10122   7.680   5.759   3.108
 6379W        W10123   3.975   9.624   2.460
 6380W        W10124   1.807   5.079   0.411
 6381W        W10125   1.579   7.582   9.115
 6382W        W10126   6.170   2.820   1.672
 6383W        W10127   3.172  10.201   9.993
 6384W        W10128   6.619   8.871  10.550
 6385W        W10129   8.897  10.361   3.274
 6386W        W10130   6.266   7.065   2.296
 6387W        W10131   1.425   2.236   3.242
 6388W        W10132   8.776  10.004  10.013
 6389W        W10133   1.588   1.201   0.371
 6390W        W10134   3.639   8.989   0.079
 6391W        W10135   5.921   7.171   8.686
 6392W        W10136   8.308   4.160  11.379
 6393W        W10137   7.582   6.953  10.901
 6394W        W10138   0.024   8.405   9.621
 6395W        W10139   8.271   0.952   2.439
 6396W        W10140   9.781   7.599  11.410
 6397W        W10141  10.237   2.233   9.543
 6398W        W10142   4.062   0.936   8.448
 6399W        W10143   6.580   0.437  11.041
 6400W        W10144   7.548   1.800   8.951
 6401W        W10145   8.459   1.788   9.120
 6402W        W10146   2.691   6.091  11.543
 6403W        W10147   0.842   7.008   3.012
 6404W        W10148  10.238   5.369   2.833
 6405W        W10149   3.617   0.956   9.591
 6406W        W10150   9.924   4.966   1.721
 6407W        W10151   8.132   7.097   9.965
 6408W        W10152   7.258   8.707  11.276
 6409W        W10153   1.902  10.026  11.967
 6410W        W10154   8.023   7.570   8.073
 6411W        W10155   4.618   8.498  10.824
 6412W        W10156   3.055   8.544   1.826
 6413W        W10157   9.778   6.499   2.722
 6414W        W10158   0.822   3.770  10.351
 6415W        W10159   1.320   6.726   1.324
 6416W        W10160   5.221   1.386   0.499
 6417W        W10161  10.389   4.164   0.272
 6418W        W10162   0.709   1.698  11.166
 6419W        W10163   3.660   4.628  10.279
 6420W        W10164   4.395   2.357   9.838
 6421W        W10165   3.939   2.324   3.114
 6422W        W10166   1.164   6.674  10.260
 6423W        W10167   8.806   7.989   8.801
 6424W        W10168   0.620   8.003   9.973
 6425W        W10169   8.502  10.020   9.260
 6426W        W10170   1.288   8.726   0.576
 6427W        W10171   5.557   2.835   8.668
 6428W        W10172   4.401   8.068   1.452
 6429W        W10173   8.259   3.251   2.937
 6430W        W10174  10.359   5.177   1.515
 6431W        W10175   3.569   1.823   1.689
 6432W        W10176   0.922   6.946  11.575
 6433W        W10177   8.323   2.161   0.831
 6434W        W10178   4.616   5.997  10.952
 6435W        W10179   8.283   8.880  11.399
 6436W        W10180   1.862   9.921   2.680
 6437W        W10181   7.197   1.348  10.802
 6438W        W10182   4.602   9.619   1.845
 6439W        W10183   7.637   0.058   2.745
 6440W        W10184   6.935   6.309   0.487
 6441W        W10185   2.980   6.408   0.226
 6442W        W10186   5.104   7.167   3.328
 6443W        W10187   4.261  10.331  10.943
 6444W        W10188   0.842  10.407   2.412
 6445W        W10189   5.337   8.812   2.892
 6446W        W10190   6.063   4.189   8.383
 6447W        W10191   3.348   0.612   9.073
 6448W        W10192   0.853   4.337   1.200
 6449W        W10193   1.673   1.346  11.870
 6450W        W10194   0.529   6.655  11.435
 6451W        W10195   0.501   2.429   9.466
 6452W        W10196   8.135  10.035  11.733
 6453W        W10197   5.121   2.853  10.433
 6454W        W10198  10.476   3.809  10.962
 6455W        W10199   8.058   1.953   1.370
 6456W        W10200   6.725   2.712  10.856
 6457W        W10201   2.286   8.051   0.887
 6458W        W10202   3.170   6.613  10.796
 6459W        W10203   1.851   9.062  11.420
 6460W        W10204   6.682   9.836  10.919
 6461W        W10205   4.237   2.007  11.588
 6462W        W10206   1.638   7.005   0.486
 6463W        W10207   8.955   3.127  11.541
 6464W        W10208   1.401   0.227   1.478
 6465W        W10209   4.670   3.548   3.945
 6466W        W10210   2.287   8.770  11.343
 6467W        W10211   2.785   2.389   1.918
 6468W        W10212   1.408   5.697   0.939
 6469W        W10213   9.141   4.195   9.986
 6470W        W10214   9.833   2.354   9.257
 6471W        W10215   0.553   2.760  10.521
 6472W        W10216   0.866   2.151   2.758
 6473W        W10217   0.930   5.702   2.220
 6474W        W10218   4.851   8.648   1.198
 6475W        W10219   7.572   0.488   1.773
 6476W        W10220   2.160   6.031   0.844
 6477W        W10221   9.343   6.889   9.486
 6478W        W10222   7.004   9.743   9.510
 6479W        W10223   3.284   5.738   1.281
 6480W        W10224   8.448   4.103   1.840
 6481W        W10225   2.281   0.940   9.166
 6482W        W10226   2.404   4.539  10.817
 6483W        W10227   1.803   9.499  11.868
 6484W        W10228   4.362   8.450   8.567
 6485W        W10229   6.030   2.558   2.750
 6486W        W10230   7.261   0.395  10.917
 6487W        W10231   0.157  10.279   1.372
 6488W        W10232   0.405  10.194   2.240
 6489W        W10233   1.336   4.756   0.653
 6490W        W10234   8.068   9.771   1.875
 6491W        W10235   8.903   2.992   1.961
 6492W        W10236   7.435   9.484   1.171
 6493W        W10237   6.239   9.607   9.563
 6494W        W10238   3.585   9.374   9.949
 6495W        W10239   1.686   2.452   1.363
 6496W        W10240   7.364   7.086   9.639
 6497W        W10241   4.278   7.472   9.482
 6498W        W10242   1.912   7.266   2.372
 6499W        W10243   6.376   7.401   0.864
 6500W        W10244   1.410   9.370   8.734
 6501W        W10245   4.611   4.121   1.731
 6502W        W10246   6.646   9.508   9.862
 6503W        W10247   0.517   5.535   3.358
 6504W        W10248   2.283  10.328  11.779
 6505W        W10249   6.038   1.382   1.450
 6506W        W10250   6.202   5.202   0.523
 6507W        W10251   5.282   6.122   8.245
 6508W        W10252   0.905   3.876  11.266
 6509W        W10253   3.081   7.588   1.371
 6510W        W10254   7.518   5.277  11.928
 6511W        W10255   5.716   1.284  11.272
 6512W        W10256   7.815   2.267   1.833
 6513W        W10257   4.512   7.701   3.214
 6514W        W10258   3.803   4.539  10.781
 6515W        W10259   9.553   5.657  10.626
 6516W        W10260   5.984   2.133   1.824
 6517W        W10261   2.155   7.507   9.040
 6518W        W10262   0.183   7.349   1.545
 6519W        W10263   1.981   6.047   0.347
 6520W        W10264   5.666   4.367  10.523
 6521W        W10265   2.309   8.133   3.045
 6522W        W10266   7.448   1.427   2.177
 6523W        W10267   2.385   3.262   8.889
 6524W        W10268   6.420   5.700   1.390
 6525W        W10269   5.127   9.954   0.447
 6526W        W10270   4.643   2.341   2.360
 6527W        W10271  10.054   9.550   0.708
 6528W        W10272   4.146   7.713   2.344
 6529W        W10273   8.974   6.723   9.797
 6530W        W10274   7.875   8.467  10.386
 6531W        W10275   8.139   3.648   1.921
 6532W        W10276   8.347   5.254  11.380
 6533W        W10277   3.284   2.283   1.806
 6534W        W10278   0.339   9.463  11.749
 6535W        W10279   5.964   3.298   0.423
 6536W        W10280   3.822   6.569   1.453
 6537W        W10281   5.609   7.547   2.375
 6538W        W10282   7.465   6.052   0.333
 6539W        W10283   6.558   9.852  10.275
 6540W        W10284   7.385   0.656   0.310
 6541W        W10285   0.829   7.320   1.728
 6542W        W10286   5.073   3.737   3.679
 6543W        W10287   0.998   9.412   0.911
 6544W        W10288   5.049   5.132   2.419
 6545W        W10289   5.145   6.530   3.153
 6546W        W10290   4.757   6.258  11.392
 6547W        W10291   9.145   7.423   3.869
 6548W        W10292  10.320   4.114  11.729
 6549W        W10293   3.593   2.695   9.010
 6550W        W10294   2.107   5.123   0.830
 6551W        W10295   6.953   0.608   3.505
 6552W        W10296   1.715   9.938   3.205
 6553W        W10297   6.709   1.714  11.456
 6554W        W10298   1.118   5.148  10.768
 6555W        W10299   9.973   0.836   2.768
 6556W        W10300   0.619   9.322   3.225
 6557W        W10301   6.101   9.153  10.513
 6558W        W10302   7.407   1.169   0.336
 6559W        W10303   9.915   2.677   1.330
 6560W        W10304   9.711   4.297   2.654
 6561W        W10305   9.074   6.538   1.648
 6562W        W10306   8.829   3.125   2.962
 6563W        W10307   3.706   2.268   9.260
 6564W        W10308   1.284   6.260   9.963
 6565W        W10309   0.349  10.028   2.758
 6566W        W10310   8.932   0.748   8.486
 6567W        W10311   8.483   3.190  11.399
 6568W        W10312  10.369   0.402  10.475
 6569W        W10313   5.083   5.088   2.927
 6570W        W10314   6.465   0.871   9.824
 6571W        W10315   9.396   9.048   9.248
 6572W        W10316   8.943   5.521  10.241
 6573W        W10317  10.488   7.161  11.739
 6574W        W10318   3.854   1.889   2.178
 6575W        W10319   4.407   8.212   3.176
 6576W        W10320   7.972   8.371   1.205
 6577W        W10321   5.559   2.741   2.948
 6578W        W10322   5.205   3.996  11.242
 6579W        W10323   7.987   7.874   0.347
 6580W        W10324   7.163   9.673  11.020
 6581W        W10325   7.621   4.938   2.753
 6582W        W10326   5.688  10.418   9.449
 6583W        W10327   0.036   7.661   1.113
 6584W        W10328   6.217   1.584  11.512
 6585W        W10329   0.483   9.276   9.641
 6586W        W10330   0.569  10.364   1.659
 6587W        W10331   5.618   2.314   3.440
 6588W        W10332   8.372   4.936   3.435
 6589W        W10333   0.861   4.840   0.997
 6590W        W10334   4.578   1.240   3.160
 6591W        W10335   5.537   0.866   9.013
 6592W        W10336   5.084   7.603   4.005
 6593W        W10337   6.127   1.933   2.299
 6594W        W10338   2.190   2.446   2.862
 6595W        W10339   5.259   1.881   3.372
 6596W        W10340   8.656   6.942   0.210
 6597W        W10341   9.409   0.450   2.783
 6598W        W10342   9.393   3.088  11.784
 6599W        W10343   0.906   4.172   8.422
 6600W        W10344   4.780   5.585   0.809
 6601W        W10345   2.314   7.983   9.289
 6602W        W10346   5.036   5.602   2.172
 6603W        W10347  10.023   7.887  11.740
 6604W        W10348  10.223   8.689   8.719
 6605W        W10349   6.724   8.055   0.988
 6606W        W10350   1.274   9.453   9.758
 6607W        W10351   0.660   4.319  10.346
 6608W        W10352   5.674   3.135   4.061
 6609W        W10353   1.478   6.315  10.468
 6610W        W10354   8.170   4.164   8.207
 6611W        W10355   6.914   4.795  11.374
 6612W        W10356   0.093   8.768   1.179
 6613W        W10357   7.678   4.121   8.864
 6614W        W10358   9.046   5.269   1.480
 6615W        W10359   0.923   9.364   8.950
 6616W        W10360   6.956   8.866   2.355
 6617W        W10361   3.072   3.698   8.786
 6618W        W10362   4.121   2.624  10.158
 6619W        W10363   4.345   1.912   2.343
 6620W        W10364   0.262   9.055   2.962
 6621W        W10365   1.864   4.166  11.248
 6622W        W10366   9.293   7.037   0.952
 6623W        W10367   6.131   0.422   1.971
 6624W        W10368   7.449   3.784   1.197
 6625W        W10369   0.774   8.133   1.523
 6626W        W10370   5.572   3.880  10.512
 6627W        W10371  10.287   8.686   9.238
 6628W        W10372   8.095  10.317   2.693
 6629W        W10373   2.304   5.277   9.081
 6630W        W10374   8.564   6.115  11.827
 6631W        W10375   4.771   7.905   1.819
 6632W        W10376   2.372   4.972   8.624
 6633W        W10377   0.315   2.134  10.297
 6634W        W10378   6.419   6.536   9.386
 6635W        W10379   6.107  10.187  10.405
 6636W        W10380   8.893   0.375   9.654
 6637W        W10381   1.889   7.895   3.169
 6638W        W10382   2.587   6.062   2.382
 6639W        W10383   5.218   2.912   1.106
 6640W        W10384   2.798   1.497  11.188
 6641W        W10385   3.523   1.016  10.977
 6642W        W10386   5.518   3.843   3.449
 6643W        W10387  10.058   3.405  11.786
 6644W        W10388   3.067   8.974   1.238
 6645W        W10389   1.697   8.048  10.981
 6646W        W10390   8.769   5.977  10.461
 6647W        W10391   7.979   5.896  10.000
 6648W        W10392   3.536   1.891  11.059
 6649W        W10393   5.286   9.057   3.399
 6650W        W10394   9.342   9.861  11.642
 6651W        W10395   4.980   9.713   9.498
 6652W        W10396   3.380   5.940  11.355
 6653W        W10397   8.491   0.987   9.999
 6654W        W10398   5.248   2.623  10.929
 6655W        W10399   7.967   9.867   1.338
 6656W        W10400   4.890   7.781   2.751
 6657W        W10401   1.416   1.338  10.795
 6658W        W10402   4.232   8.733   2.218
 6659W        W10403   6.536   2.731   0.411
 6660W        W10404   2.247   5.610  10.961
 6661W        W10405   5.984   5.169  10.644
 6662W        W10406   1.453   9.711   0.804
 6663W        W10407   7.372   2.846   3.246
 6664W        W10408   1.905   5.387   1.236
 6665W        W10409   4.581   9.472  11.449
 6666W        W10410  10.101   0.004  10.981
 6667W        W10411   7.404   0.355  11.809
 6668W        W10412   3.670   5.858  10.952
 6669W        W10413   0.777   0.809   1.749
 6670W        W10414   3.969   1.784   2.678
 6671W        W10415  10.080   3.629   9.388
 6672W        W10416   9.452   6.009  11.766
 6673W        W10417   4.014   0.109   0.369
 6674W        W10418   7.971   9.215   1.830
 6675W        W10419   7.498   3.549  11.468
 6676W        W10420   6.212   4.698   2.567
 6677W        W10421  10.210   7.424   1.431
 6678W        W10422   8.027   1.315  10.622
 6679W        W10423   6.721   3.889   2.807
 6680W        W10424   2.627   9.977  10.454
 6681W        W10425   9.412   2.034   9.591
 6682W        W10426   0.199   0.607   1.844
 6683W        W10427   8.929   6.068   1.833
 6684W        W10428   4.616   5.953   9.845
 6685W        W10429   7.043   6.041   2.625
 6686W        W10430   1.445   6.268   9.484
 6687W        W10431   2.805   1.899   2.122
 6688W        W10432   7.296   2.337  10.265
 6689W        W10433   3.336   6.301  10.421
 6690W        W10434   0.811   4.089  10.769
 6691W        W10435   9.627   5.909   9.075
 6692W        W10436   8.545   6.586   2.846
 6693W        W10437   2.137   0.474   1.841
 6694W        W10438   9.313  10.321   1.586
 6695W        W10439   9.797   8.150   1.210
 6696W        W10440   6.357   9.107   9.652
 6697W        W10441   3.193   8.779   8.763
 6698W        W10442   1.736   2.681   2.736
 6699W        W10443   9.332   8.466   0.766
 6700W        W10444   4.254   0.238   3.266
 6701W        W10445   2.203   5.246   2.399
 6702W        W10446   1.743   0.700   9.846
 6703W        W10447   3.070   2.268  11.617
 6704W        W10448   2.569   4.000   8.492
 6705W        W10449   8.007   9.590  11.930
 6706W        W10450   5.053   0.791  10.418
 6707W        W10451   9.277   3.052   2.359
 6708W        W10452   1.427   8.416   9.777
 6709W        W10453   2.683   4.157   1.010
 6710W        W10454  10.375   1.274   9.472
 6711W        W10455   7.168   0.238   2.626
 6712W        W10456   1.372   6.976  11.216
 6713W        W10457   5.910   5.716   1.967
 6714W        W10458   2.708   7.024   1.314
 6715W        W10459   2.180   1.459  10.451
 6716W        W10460   4.951   4.588  11.974
 6717W        W10461   4.257   3.295   9.492
 6718W        W10462   8.067   0.179  10.072
 6719W        W10463   8.962   8.395   1.569
 6720W        W10464   6.662   2.752   1.458
 6721W        W10465   4.377   8.754   0.346
 6722W        W10466   2.414   8.967   2.502
 6723W        W10467   1.260   0.939   1.630
 6724W        W10468   7.130   5.695  11.115
 6725W        W10469   8.390   2.344   3.044
 6726W        W10470  10.166  10.443   9.313
 6727W        W10471   1.176   9.497   2.684
 6728W        W10472   2.632   2.852   9.882
 6729W        W10473   3.358   7.604  10.781
 6730W        W10474   0.992   1.081   9.743
 6731W        W10475   3.882   8.715   0.428
 6732W        W10476   6.087  10.179  11.824
 6733W        W10477   5.211   9.051   2.461
 6734W        W10478   5.176   2.381   2.241
 6735W        W10479   7.073   6.171   1.832
 6736W        W10480   1.490   0.246   3.270
 6737W        W10481   4.969   7.644   3.499
 6738W        W10482   5.204   5.679   9.824
 6739W        W10483   7.663   3.261   3.611
 6740W        W10484  10.221   0.284   2.146
 6741W        W10485   6.530   9.255   1.559
 6742W        W10486   5.093   9.978   9.952
 6743W        W10487   3.781   0.522   1.508
 6744W        W10488   5.725   5.039   0.008
 6745W        W10489   4.185   1.895   9.752
 6746W        W10490   8.059   5.234   0.692
 6747W        W10491   2.161   4.279   8.970
 6748W        W10492   7.048   3.308   9.908
 6749W        W10493   7.006   0.598   9.099
 6750W        W10494   5.667   7.335  10.093
 6751W        W10495   5.933   0.890  11.006
 6752W        W10496   4.967   7.064   8.535
 6753W        W10497   1.929   0.505   3.609
 6754W        W10498   5.527   6.002  11.893
 6755W        W10499   7.474   5.945   9.891
 6756W        W10500   9.239   4.159   9.079
 6757W        W10501   4.815   2.735   3.652
 6758W        W10502   5.142   5.191   3.431
 6759W        W10503   3.441   3.313   0.338
 6760W        W10504   0.887   4.574   9.960
 6761W        W10505   2.846   6.202  10.011
 6762W        W10506   8.295   5.065  10.534
 6763W        W10507   2.340   9.453   1.106
 6764W        W10508   6.228   0.818   3.167
 6765W        W10509   7.959   4.054   1.646
 6766W        W10510   1.789   7.308   3.580
 6767W        W10511   8.915   8.960   9.122
 6768W        W10512   5.159   4.012   1.907
 6769W        W10513  10.234   0.033  11.855
 6770W        W10514   7.935   6.102   0.510
 6771W        W10515   1.849   4.632   1.891
 6772W        W10516   9.992   8.596   2.031
 6773W        W10517   0.598   5.507   9.300
 6774W        W10518   4.023   2.766  11.007
 6775W        W10519   4.731   1.538   9.410
 6776W        W10520   8.741   0.016  10.022
 6777W        W10521   1.273   5.950   9.089
 6778W        W10522   0.418   3.971  11.468
 6779W        W10523   1.296   7.504   1.656
 6780W        W10524   8.031   2.787   9.240
 6781W        W10525   4.944   1.007  10.861
 6782W        W10526   4.087  10.414  10.446
 6783W        W10527   2.666   2.910   1.751
 6784W        W10528   3.224   3.635   9.287
 6785W        W10529   3.700   3.087   2.713
 6786W        W10530   6.631   7.988  10.746
 6787W        W10531   0.263   4.999   2.335
 6788W        W10532   7.020   6.440   2.277
 6789W        W10533   8.312   8.421  10.088
 6790W        W10534   0.429   3.733   9.030
 6791W        W10535   9.701   2.323  10.805
 6792W        W10536   2.222   2.925  10.185
 6793W        W10537   0.733   4.875  11.312
 6794W        W10538   2.270   1.968   2.692
 6795W        W10539   0.981   5.433   2.681
 6796W        W10540   3.618   5.323   1.275
 6797W        W10541   5.677   0.491   8.692
 6798W        W10542   5.628   0.411  10.159
 6799W        W10543   5.540   8.007   0.776
 6800W        W10544   5.242   0.771   1.159
 6801W        W10545   1.311   4.612   1.153
 6802W        W10546   1.424   6.607   0.830
 6803W        W10547   5.625   8.563   9.154
 6804W        W10548   4.281   2.207   2.756
 6805W        W10549   9.584   5.116  11.838
 6806W        W10550   0.697   0.299   0.986
 6807W        W10551   9.457   1.411   0.623
 6808W        W10552   6.437   3.677   9.412
 6809W        W10553   5.039   8.170   2.365
 6810W        W10554   9.461   1.427   2.917
 6811W        W10555   3.292   7.393   0.712
 6812W        W10556   7.959   3.821   8.556
 6813W        W10557   5.778   1.830   3.562
 6814W        W10558   8.440   0.823  10.531
 6815W        W10559   0.194   2.038   9.362
 6816W        W10560   3.832   7.611   8.937
 6817W        W10561   0.981   6.596  11.212
 6818W        W10562   6.382   8.760   1.664
 6819W        W10563   7.166   8.218  11.055
 6820W        W10564   0.301   9.754   9.576
 6821W        W10565   8.356   4.601   9.885
 6822W        W10566   2.153  10.376   2.671
 6823W        W10567   5.554   1.679  10.023
 6824W        W10568   0.393  10.374   3.160
 6825W        W10569   5.072   7.473   0.066
 6826W        W10570   2.675  10.331   9.525
 6827W        W10571   3.739   7.148   0.325
 6828W        W10572   4.027   5.689   1.370
 6829W        W10573   4.056   5.784   0.542
 6830W        W10574   1.364   0.482   8.683
 6831W        W10575   4.718   8.592   3.031
 6832W        W10576   9.040   5.384   2.339
 6833W        W10577   4.739   6.462   9.928
 6834W        W10578   8.483   9.844   1.512
 6835W        W10579   1.408   4.687   2.677
 6836W        W10580   1.701   5.506  10.181
 6837W        W10581   6.367   4.644   1.015
 6838W        W10582   3.035   7.693   8.157
 6839W        W10583   7.354   6.178   1.281
 6840W        W10584   6.899   1.326   9.354
 6841W        W10585   0.867   8.815  11.396
 6842W        W10586   3.057   0.298  11.321
 6843W        W10587   5.097   5.227  10.606
 6844W        W10588   3.484  10.496   2.363
 6845W        W10589   3.730  10.405   1.216
 6846W        W10590   8.976   2.719   9.726
 6847W        W10591   7.057   9.419   0.358
 6848W        W10592   7.654   8.369   1.917
 6849W        W10593   2.830   6.419   0.712
 6850W        W10594   5.728   0.925   3.528
 6851W        W10595   3.117   5.521   9.237
 6852W        W10596   6.197   3.465  10.347
 6853W        W10597   2.119   6.308   2.311
 6854W        W10598   6.487   9.712   0.602
 6855W        W10599   1.903   3.557   3.277
 6856W        W10600   2.668   9.994   0.392
 6857W        W10601   1.772   0.908  10.823
 6858W        W10602   4.198   1.454   1.320
 6859W        W10603   3.498   9.038  11.611
 6860W        W10604   1.063   2.734  10.697
 6861W        W10605   0.744   5.970   9.045
 6862W        W10606   0.548   8.710   0.428
 6863W        W10607   7.744   7.865   1.879
 6864W        W10608   8.897   9.375   2.948
 6865W        W10609   6.325   7.570   2.169
 6866W        W10610   0.426   6.400   1.346
 6867W        W10611   9.784   4.948   0.291
 6868W        W10612  10.254  10.056  10.401
 6869W        W10613   6.495   3.198   0.041
 6870W        W10614   0.685   1.250   2.358
 6871W        W10615   6.914   2.214   2.720
 6872W        W10616   6.734   5.222   2.171
 6873W        W10617   7.939   8.425   8.706
 6874W        W10618   3.279   4.466   0.833
 6875W        W10619   0.811   6.348   0.267
 6876W        W10620   1.510   2.458   0.575
 6877W        W10621   7.041   4.706   8.647
 6878W        W10622   6.840   7.067  10.437
 6879W        W10623   1.430   6.418   8.975
 6880W        W10624   2.339   8.966   1.992
 6881W        W10625   9.831   4.250   1.248
 6882W        W10626   9.557   8.457   9.939
 6883W        W10627   8.820   0.421  11.119
 6884W        W10628   2.088   6.890  10.521
 6885W        W10629   3.863   5.722  11.430
 6886W        W10630   1.993   7.638  10.901
 6887W        W10631   9.869   8.354   0.734
 6888W        W10632   4.503   4.529   1.989
 6889W        W10633   4.905  10.438   2.507
 6890W        W10634   9.715   7.941   9.813
 6891W        W10635   7.702   1.339  11.948
 6892W        W10636   7.588   9.149  10.241
 6893W        W10637  10.409   2.521   1.433
 6894W        W10638   0.487   0.721  10.457
 6895W        W10639   2.117   6.494   0.137
 6896W        W10640   4.130   9.772   1.980
 6897W        W10641   8.006   8.848  10.081
 6898W        W10642   2.238   6.904  11.494
 6899W        W10643   7.085   4.489   2.423
 6900W        W10644   4.622   4.089   2.741
 6901W        W10645   8.895   0.475   2.796
 6902W        W10646   9.033   1.841   1.193
 6903W        W10647   9.438   2.756  10.892
 6904W        W10648   0.340   7.138  11.380
 6905W        W10649   6.979   3.628   1.070
 6906W        W10650   3.066   0.235   8.834
 6907W        W10651   9.850  10.001   2.382
 6908W        W10652   9.593   8.170   9.355
 6909W        W10653   5.027   4.124   1.442
 6910W        W10654   9.728   9.215   0.883
 6911W        W10655   6.514   1.235   0.392
 6912W        W10656   1.406   7.361   0.150
 6913W        W10657  10.112   9.084   2.189
 6914W        W10658  10.425   6.943   1.725
 6915W        W10659   2.541   0.528   8.984
 6916W        W10660   0.384   1.124   1.827
 6917W        W10661   3.341   7.566  11.751
 6918W        W10662   8.754   0.779   2.382
 6919W        W10663   4.084   4.549   3.207
 6920W        W10664   9.118   1.111   3.878
 6921W        W10665   2.797   5.546   1.249
 6922W        W10666   8.485   6.198  10.832
 6923W        W10667   9.444   7.499   1.748
 6924W        W10668   1.697   5.071  10.448
 6925W        W10669   5.554   2.259  11.703
 6926W        W10670   2.711  10.453  10.042
 6927W        W10671   9.050   9.019   9.650
 6928W        W10672   7.233   4.081   3.772
 6929W        W10673   3.892   1.070  11.363
 6930W        W10674   2.612   1.660  10.708
 6931W        W10675   0.669   5.803   2.897
 6932W        W10676   7.614   9.121   1.503
 6933W        W10677   5.968   9.910   8.577
 6934W        W10678   6.795   6.145   3.083
 6935W        W10679   6.465   2.321   9.308
 6936W        W10680   6.328   4.349  10.026
 6937W        W10681   7.167   0.912  10.489
 6938W        W10682   7.894   0.853  11.220
 6939W        W10683   3.123   3.228   1.176
 6940W        W10684   8.367   1.379   1.688
 6941W        W10685   9.103   0.790  11.935
 6942W        W10686   7.897   1.223   0.996
 6943W        W10687   5.294   5.623   0.688
 6944W        W10688   4.545   5.137   0.614
 6945W        W10689   9.700   3.210  10.639
 6946W        W10690   3.872   4.894   1.376
 6947W        W10691   8.815   0.407  11.628
 6948W        W10692   2.607   2.475   1.283
 6949W        W10693   9.412  10.038   1.158
 6950W        W10694   5.240   7.004   0.004
 6951W        W10695   5.841   6.769   3.688
 6952W        W10696   9.427   2.923   9.896
 6953W        W10697   9.036   4.052  11.892
 6954W        W10698   6.900   2.420   0.757
 6955W        W10699   4.872   2.107   1.934
 6956W        W10700   2.460   8.329   8.265
 6957W        W10701   9.976   6.854  10.935
 6958W        W10702   1.740   7.651   1.490
 6959W        W10703   2.811   9.931  10.927
 6960W        W10704   1.101   7.188   1.322
 6961W        W10705   1.936   7.438   0.467
 6962W        W10706  10.173   3.179  10.347
 6963W        W10707   4.584   1.648  11.532
 6964W        W10708   3.545   6.354  11.041
 6965W        W10709   7.220   6.584   8.869
 6966W        W10710   2.352   8.721   0.400
 6967W        W10711   0.295   9.706   2.338
 6968W        W10712   2.332   7.513   0.799
 6969W        W10713   0.191   2.690  11.805
 6970W        W10714   6.044   8.198  11.996
 6971W        W10715   9.321   1.744  11.325
 6972W        W10716   5.027   0.524  10.978
 6973W        W10717   9.741   6.769   8.623
 6974W        W10718   1.716   7.844   0.281
 6975W        W10719   7.956   9.839   2.400
 6976W        W10720   4.807   1.613   8.334
 6977W        W10721   9.943   1.418   1.725
 6978W        W10722   6.424   8.041   9.792
 6979W        W10723  10.444   5.653  10.460
 6980W        W10724   7.078   9.920   1.271
 6981W        W10725   3.042   4.601   9.026
 6982W        W10726   5.325   2.868   2.075
 6983W        W10727   1.182   7.992   0.870
 6984W        W10728   8.972   3.974   2.903
 6985W        W10729   1.266   1.935  11.331
 6986W        W10730   7.100   1.152   2.445
 6987W        W10731   6.035   1.586   2.749
 6988W        W10732   5.744   9.065   3.114
 6989W        W10733   0.505   3.074   0.732
 6990W        W10734   8.587   2.241   1.538
 6991W        W10735   4.362   1.194  11.993
 6992W        W10736   8.946   7.014   8.944
 6993W        W10737   5.180   3.070   3.041
 6994W        W10738   5.819   1.382  11.766
 6995W        W10739   3.239   6.647   1.054
 6996W        W10740   0.448   7.541  10.087
 6997W        W10741   8.936   7.819   1.221
 6998W        W10742   0.624   0.832   3.134
 6999W        W10743   7.061   1.772   2.462
 7000W        W10744   0.175   9.910  11.406
 7001W        W10745   0.788   4.160   0.206
 7002W        W10746  10.480   2.941   2.129
 7003W        W10747   8.062   3.738  10.297
 7004W        W10748   7.015  10.367  10.379
 7005W        W10749   7.947   5.657  10.736
 7006W        W10750   7.674   3.599   0.345
 7007W        W10751   9.802   7.860   0.709
 7008W        W10752   3.269   9.278   0.296
 7009W        W10753   0.017   3.232  11.846
 7010W        W10754   9.498  10.019   0.272
 7011W        W10755   3.152   4.601   8.179
 7012W        W10756   3.429   4.474   3.151
 7013W        W10757   0.984   3.840   2.760
 7014W        W10758   9.163  10.330   9.794
 7015W        W10759   2.624   6.500   1.662
 7016W        W10760   1.451   9.796   1.323
 7017W        W10761   4.263   0.478   2.269
 7018W        W10762   9.991   6.689   1.429
 7019W        W10763   4.918   7.152   3.796
 7020W        W10764   3.847   9.034  11.220
 7021W        W10765   4.599   0.900   2.263
 7022W        W10766   0.660   9.988   9.956
 7023W        W10767   3.150   7.137  10.784
 7024W        W10768   5.757   4.663  10.945
 7025W        W10769   7.322   0.865   1.110
 7026W        W10770   4.690   6.462   0.806
 7027W        W10771   5.426   5.421   0.216
 7028W        W10772  10.329   0.813  10.194
 7029W        W10773   6.851  10.274   9.462
 7030W        W10774   3.802   1.440  10.895
 7031W        W10775   9.885   4.077   0.396
 7032W        W10776   2.828   6.678   9.816
 7033W        W10777   2.371   8.542  10.864
 7034W        W10778   9.779   3.602   0.768
 7035W        W10779   5.170   9.819   2.953
 7036W        W10780   9.212   7.428   3.377
 7037W        W10781   4.708   3.616   2.954
 7038W        W10782   9.836   6.363  10.936
 7039W        W10783   2.724   1.712   2.587
 7040W        W10784   0.356   3.575  10.093
 7041W        W10785   7.558   4.430   2.645
 7042W        W10786   2.196   2.895   2.004
 7043W        W10787   1.576   3.664   1.384
 7044W        W10788   8.972   8.362  10.842
 7045W        W10789   1.777   3.141  10.451
 7046W        W10790   7.297   3.364   3.248
 7047W        W10791   1.907   8.858   9.537
 7048W        W10792   7.354   4.540  11.532
 7049W        W10793   2.206   5.554   1.901
 7050W        W10794   8.092   1.582  11.053
 7051W        W10795   2.644   4.662  10.039
 7052W        W10796   2.937  10.225   1.698
 7053W        W10797   8.962   1.772   9.835
 7054W        W10798   6.072   3.314   9.415
 7055W        W10799  10.081   0.414   9.063
 7056W        W10800   6.163   0.650   3.642
 7057W        W10801  10.325   1.380  10.464
 7058W        W10802   3.580   9.928  11.547
 7059W        W10803   5.012   9.968  11.205
 7060W        W10804   7.569   5.042   1.849
 7061W        W10805   8.697   3.720   9.063
 7062W        W10806   6.273   0.853  10.357
 7063W        W10807   2.500   3.995   9.413
 7064W        W10808   8.516   3.357  11.997
 7065W        W10809   3.792   0.303   3.023
 7066W        W10810   9.726   0.352  10.807
 7067W        W10811   6.928   5.976  10.641
 7068W        W10812   0.890   3.836   1.848
 7069W        W10813   8.134   4.623  10.341
 7070W        W10814   1.283   3.822   2.334
 7071W        W10815   6.972   8.277   9.772
 7072W        W10816  10.037   1.824  10.439
 7073W        W10817  10.267   6.004   1.762
 7074W        W10818   5.892   0.686   2.782
 7075W        W10819   0.903   9.023   3.535
 7076W        W10820   4.094   4.098  10.787
 7077W        W10821   4.725   8.653   1.696
 7078W        W10822  10.465   3.838   3.182
 7079W        W10823   1.652   1.950   1.479
 7080W        W10824   6.636   6.230   4.050
 7081W        W10825   8.601   1.736   0.887
 7082W        W10826   0.160   0.888   0.574
 7083W        W10827   1.004   4.677   0.253
 7084W        W10828   0.147   2.198   2.334
 7085W        W10829   1.799   7.144  10.919
 7086W        W10830   8.937   7.465  10.332
 7087W        W10831   8.560   2.130  11.487
 7088W        W10832   6.538   0.978  11.940
 7089W        W10833   9.676   8.962  11.114
 7090W        W10834   2.789   9.554  11.660
 7091W        W10835   7.802   6.580   0.651
 7092W        W10836   8.490   3.708  11.556
 7093W        W10837   0.351   5.022   1.358
 7094W        W10838   3.686   4.116  11.081
 7095W        W10839   6.207   7.130  10.931
 7096W        W10840   0.801   2.223   1.750
 7097W        W10841   2.374   3.794   1.642
 7098W        W10842   0.351   1.842   3.552
 7099W        W10843   8.392   7.421  11.427
 7100W        W10844   7.596   3.751   2.045
 7101W        W10845   6.608   1.223  11.499
 7102W        W10846   2.788   7.347   2.871
 7103W        W10847   0.604   4.588  10.777
 7104W        W10848   0.810   0.916   8.730
 7105W        W10849   6.247   4.957   0.058
 7106W        W10850   3.965   2.104   0.003
 7107W        W10851   2.962  10.366   3.283
 7108W        W10852   5.824   0.491   3.245
 7109W        W10853   2.184   8.733   8.512
 7110W        W10854   1.472   1.306   3.156
 7111W        W10855   0.148   8.953  10.909
 7112W        W10856   1.132   0.940   3.071
 7113W        W10857   3.275   4.142   8.990
 7114W        W10858   8.563   1.373   0.393
 7115W        W10859   6.613   6.522   0.883
 7116W        W10860   7.392   2.266  10.884
 7117W        W10861   3.410  10.304   1.848
 7118W        W10862   9.335   1.815   0.259
 7119W        W10863   6.292   7.880   0.777
 7120W        W10864   2.703   0.545   0.202
 7121W        W10865   5.766   4.921   0.502
 7122W        W10866   6.414   8.953  11.015
 7123W        W10867   6.258   0.417  10.011
 7124W        W10868   3.144   9.306  11.393
 7125W        W10869   6.527  10.436   9.098
 7126W        W10870   6.845   4.343  10.092
 7127W        W10871  10.077   2.122   8.772
 7128W        W10872   7.558   2.218   9.291
 7129W        W10873   1.297   7.997   9.040
 7130W        W10874   8.588   1.276   8.958
 7131W        W10875   7.900   3.852   9.257
 7132W        W10876   4.285   1.807   9.250
 7133W        W10877  10.415   4.815   3.595
 7134W        W10878   9.976   1.866   2.480
 7135W        W10879   2.564   9.006   1.155
 7136W        W10880   3.704   7.596  10.285
 7137W        W10881   8.429   3.715   9.943
 7138W        W10882   2.867   2.402   9.840
 7139W        W10883  10.324   1.635   8.638
 7140W        W10884   6.570   1.955   2.037
 7141W        W10885   4.104   7.809   0.296
 7142W        W10886   0.808   3.304   8.990
 7143W        W10887   3.589   5.522   9.887
 7144W        W10888   1.757  10.373   9.544
 7145W        W10889   9.920   0.169   0.809
 7146W        W10890   5.993   0.910   8.580
 7147W        W10891   7.275   7.756  11.952
 7148W        W10892   6.751   2.675   2.299
 7149W        W10893   3.672   0.848  10.520
 7150W        W10894   2.132   8.177   3.514
 7151W        W10895   8.334   3.658   9.434
 7152W        W10896   7.907   3.214   2.100
 7153W        W10897   0.948   3.210   1.856
 7154W        W10898   7.417   8.634  10.485
 7155W        W10899   0.811   0.636   9.587
 7156W        W10900   9.074   1.961  10.303
 7157W        W10901   9.118   9.284   1.381
 7158W        W10902   4.318   2.885  10.536
 7159W        W10903   8.680   1.226   1.277
 7160W        W10904   7.040   2.571   3.554
 7161W        W10905   4.133   6.123   9.644
 7162W        W10906   2.303  10.316  11.273
 7163W        W10907   2.932   3.262   9.957
 7164W        W10908   9.028   1.266  11.725
 7165W        W10909   1.874   0.181  10.538
 7166W        W10910   1.135   2.622   3.391
 7167W        W10911   9.535   2.615  11.987
 7168W        W10912   7.138   4.195   2.852
 7169W        W10913   0.676   6.049  10.721
 7170W        W10914   6.526   1.931  11.915
 7171W        W10915   2.691   4.113  10.848
 7172W        W10916   8.286   6.975   2.614
 7173W        W10917   0.927   8.484   0.936
 7174W        W10918   1.404   0.267   9.573
 7175W        W10919   1.548   5.060   9.331
 7176W        W10920   4.072   4.314   0.555
 7177W        W10921   4.123   8.375   3.628
 7178W        W10922   6.454   6.071   9.752
 7179W        W10923   8.092   2.105   9.988
 7180W        W10924   3.241   8.937   2.457
 7181W        W10925   8.061   0.134   3.442
 7182W        W10926   3.118   3.721  10.044
 7183W        W10927   4.019  10.209  11.406
 7184W        W10928   1.173   5.883   2.856
 7185W        W10929   0.892   1.295   1.898
 7186W        W10930   8.807   8.554   9.437
 7187W        W10931   4.337   6.592   2.872
 7188W        W10932   7.566   6.046   8.871
 7189W        W10933   0.696   1.957   9.372
 7190W        W10934   3.778   0.977   1.742
 7191W        W10935   7.021   0.140   2.143
 7192W        W10936   5.840   2.897   2.083
 7193W        W10937   9.834   8.838   0.080
 7194W        W10938   1.815  10.178  10.520
 7195W        W10939   3.094   2.271   2.355
 7196W        W10940   0.666   1.364   0.055
 7197W        W10941   2.191   2.400   0.626
 7198W        W10942   7.465   4.125   9.343
 7199W        W10943   3.327   0.742  11.368
 7200W        W10944   2.683  10.376   2.587
 7201W        W10945  10.491   5.590   9.010
 7202W        W10946   4.965   1.691   2.967
 7203W        W10947   3.938   4.479   0.091
 7204W        W10948   9.307   4.548   2.359
 7205W        W10949   9.212  10.137  10.349
 7206W        W10950   9.355   0.919   0.395
 7207W        W10951   1.234   2.752   9.278
 7208W        W10952   2.600   4.216   1.899
 7209W        W10953   3.105   5.519   9.737
 7210W        W10954   2.895   8.965   9.553
 7211W        W10955   5.524   6.040  10.758
 7212W        W10956   7.727   7.815   9.849
 7213W        W10957   3.092   2.726   8.877
 7214W        W10958   5.056  10.399   8.722
 7215W        W10959   6.507  10.461   0.006
 7216W        W10960   3.822   3.166   9.761
 7217W        W10961   7.823   6.466   0.156
 7218W        W10962   6.014   2.148   8.451
 7219W        W10963   3.192   3.212  11.044
 7220W        W10964   4.755  10.153   9.366
 7221W        W10965   4.124   7.055   9.770
 7222W        W10966  10.265   9.935   2.714
 7223W        W10967   4.092   2.635   1.865
 7224W        W10968   0.521   0.789   2.217
 7225W        W10969   1.368   1.447   0.747
 7226W        W10970   2.027   1.791   1.781
 7227W        W10971   3.735  10.081   2.164
 7228W        W10972   5.634   4.876  11.422
 7229W        W10973   9.830   7.739   2.256
 7230ION    NA+10974   7.946   6.959   9.058
 7231ION    NA+10975   8.840  10.449  11.970
 7232ION    NA+10976   0.404   6.654   3.626
 7233ION    NA+10977   6.648   1.816   3.026
 7234ION    NA+10978  10.500   3.677  11.513
 7235ION    NA+10979   1.288   8.650   2.884
 7236ION    NA+10980   9.970   6.485   0.953
 7237ION    NA+10981   4.890   0.331   9.417
 7238ION    NA+10982   2.976   4.754   0.162
 7239ION    NA+10983   0.102   0.429   9.061
 7240ION    NA+10984   7.295   4.627   8.179
 7241ION    NA+10985   0.195   9.039   9.247
 7242ION    NA+10986   5.271   7.110  11.046
 7243ION    NA+10987   5.228   3.071   9.031
 7244ION    NA+10988   6.358   8.893  10.127
 7245ION    NA+10989   1.441   6.746   9.797
 7246ION    NA+10990   4.062   1.979  11.075
 7247ION    NA+10991   1.582   0.254   0.959
 7248ION    NA+10992   2.740   0.382  10.859
 7249ION    NA+10993   2.321   2.520   1.701
 7250ION    NA+10994   9.346   0.187   1.979
 7251ION    NA+10995   0.456   7.732   1.365
 7252ION    NA+10996   7.686   0.909   3.832
 7253ION    NA+10997   7.928   3.756   9.769
 7254ION    NA+10998   0.173   5.394  10.841
 7255ION    NA+10999   3.796   4.785  11.225
 7256ION    NA+11000   7.046   1.984   0.517
 7257ION    NA+11001   3.615   9.276   2.459
 7258ION    NA+11002   6.629   3.551   1.886
 7259ION    NA+11003   3.262   6.600   9.461
 7260ION    NA+11004   1.637   4.970   1.362
 7261ION    NA+11005  10.471  10.369   2.893
 7262ION    NA+11006   2.688   1.976  11.119
 7263ION    NA+11007   6.926  10.083   8.992
 7264ION    NA+11008   9.376   3.256   0.797
 7265ION    NA+11009   1.704   1.803  11.073
 7266ION    NA+11010   1.751   2.989   9.184
 7267ION    NA+11011   4.541   6.798   9.599
 7268ION    NA+11012   1.790   7.167  11.528
 7269ION    NA+11013   3.879   0.872   0.268
 7270ION    NA+11014   0.317   9.159   0.310
 7271ION    NA+11015   9.406   1.464  10.443
 7272ION    NA+11016   7.595   2.108  11.371
 7273ION    NA+11017   9.584   5.206   3.458
 7274ION    NA+11018   4.531   5.159   0.075
 7275ION    NA+11019   0.906   5.426   0.109
 7276ION    NA+11020  10.108   9.593   9.541
 7277ION    NA+11021   3.329   6.664   2.596
 7278ION    NA+11022   2.746   9.325   1.952
 7279ION    NA+11023   5.919   9.122  10.996
 7280ION    NA+11024   4.937   3.282   8.098
 7281ION    NA+11025   5.370   4.847   1.643
 7282ION    NA+11026   9.661   3.733  11.124
 7283ION    NA+11027   0.272   5.180   1.843
 7284ION    NA+11028   1.133  10.089  11.615
 7285ION    NA+11029   1.715   0.404  10.974
 7286ION    NA+11030   4.088   8.141   1.047
 7287ION    NA+11031   5.115   2.415   1.170
 7288ION    NA+11032   1.089   9.017  11.827
 7289ION    NA+11033   0.406   8.079   2.771
 7290ION    NA+11034   6.295   9.608   1.870
 7291ION    NA+11035   4.909   4.721   0.947
 7292ION    NA+11036   0.660   0.733   0.732
 7293ION    NA+11037   1.294   9.585   3.240
 7294ION    NA+11038   3.824   0.900  10.045
 7295ION    NA+11039   1.931   7.678   9.950
 7296ION    NA+11040   5.259   5.583  11.748
 7297ION    NA+11041   3.925   0.071   9.457
 7298ION    NA+11042   2.815   0.217   0.566
 7299ION    NA+11043   7.878   0.691   2.201
 7300ION    NA+11044   2.008   0.566   0.055
 7301ION    NA+11045   4.768   3.656   1.931
 7302ION    NA+11046   1.027   8.209  11.887
 7303ION    NA+11047   6.801   7.580   0.713
 7304ION    NA+11048   2.758   7.965   2.334
 7305ION    NA+11049   4.367   8.612   9.917
 7306ION    CL-11050   5.107   4.956   1.287
 7307ION    CL-11051   4.866   5.385  11.860
 7308ION    CL-11052   9.015   2.834  10.228
 7309ION    CL-11053   8.569   1.392   9.456
 7310ION    CL-11054  10.393   3.255   1.745
 7311ION    CL-11055   5.468   6.978   1.528
 7312ION    CL-11056   1.716  10.174   8.595
 7313ION    CL-11057   8.520   8.814   9.792
 7314ION    CL-11058   9.235   0.224  10.892
 7315ION    CL-11059   3.233   2.765   3.400
 7316ION    CL-11060   1.982   8.063   9.718
 7317ION    CL-11061   2.798   3.628   1.094
 7318ION    CL-11062   7.286  10.091   9.267
 7319ION    CL-11063   0.605   7.320   1.260
 7320ION    CL-11064   2.672   1.848  11.547
 7321ION    CL-11065   1.199   8.580  11.694
 7322ION    CL-11066   1.321   2.931  11.720
 7323ION    CL-11067   3.728   8.911   2.226
 7324ION    CL-11068   4.689   0.498   1.950
 7325ION    CL-11069   9.197   2.623   8.741
 7326ION    CL-11070   2.888   0.563   2.004
 7327ION    CL-11071   4.064   0.926   1.297
 7328ION    CL-11072   6.771   9.023  10.020
 7329ION    CL-11073   8.540   9.114   0.520
 7330ION    CL-11074   9.416   4.343   9.541
 7331ION    CL-11075   6.741   9.556   1.938
 7332ION    CL-11076   9.344   3.497  10.901
 7333ION    CL-11077   7.862   8.913  10.613
 7334ION    CL-11078   2.915   4.522   3.227
 7335ION    CL-11079   2.709   1.243   1.293
 7336ION    CL-11080   0.646   9.004  11.992
 7337ION    CL-11081   0.183   8.952   0.703
 7338ION    CL-11082   2.092   3.804   0.407
 7339ION    CL-11083   1.575   2.919   8.767
 7340ION    CL-11084   4.442  10.006  11.973
 7341ION    CL-11085   1.293   8.615   2.432
 7342ION    CL-11086   2.443   7.682   2.463
 7343ION    CL-11087   5.121   9.222   9.488
 7344ION    CL-11088   4.744   9.916  10.302
 7345ION    CL-11089   8.323   5.258   8.798
 7346ION    CL-11090   6.555   1.406   3.200
 7347ION    CL-11091  10.080   3.725  11.341
 7348ION    CL-11092   9.903   8.081   1.847
 7349ION    CL-11093   6.804   7.170   0.939
 7350ION    CL-11094   2.265   1.866   0.516
 7351ION    CL-11095   5.071   2.896   9.409
 7352ION    CL-11096  10.481   9.347   9.498
 7353ION    CL-11097   4.173   3.654   3.666
 7354ION    CL-11098   5.883   7.829   1.122
 7355ION    CL-11099   2.543   4.680   0.233
 7356ION    CL-11100   3.133   5.171   8.863
 7357ION    CL-11101   4.845   4.558  10.706
 7358ION    CL-11102   7.149   8.375   1.769
 7359ION    CL-11103   4.016   2.357  11.308
 7360ION    CL-11104   1.226   9.109  10.137
 7361ION    CL-11105   6.754   9.957   8.581
 7362ION    CL-11106   7.980   4.499   1.377
 7363ION    CL-11107   0.305   9.810   0.412
 7364ION    CL-11108   2.579   6.448  11.926
 7365ION    CL-11109   7.985   6.172   9.543
 7366ION    CL-11110   1.282   8.674   3.367
 7367ION    CL-11111   9.337   5.019   8.718
 7368ION    CL-11112   0.608   5.321  10.919
 7369ION    CL-11113   5.179   3.428   4.082
 7370ION    CL-11114   6.910   7.930   0.439
 7371ION    CL-11115   5.851   9.663   1.791
 7372ION    CL-11116   3.999   5.059  10.938
 7373ION    CL-11117   3.481   6.867   2.964
 7374ION    CL-11118   0.607   1.125   0.526
 7375ION    CL-11119   8.470   8.215  10.992
 7376ION    CL-11120   8.918   6.936  10.788
 7377ION    CL-11121   8.470  10.123   3.000
 7378ION    CL-11122   4.198   2.291   9.387
 7379ION    CL-11123   2.913   0.867   9.040
 7380ION    CL-11124   2.232   2.900   1.482
 7381ION    CL-11125   1.232   9.760  11.907
  10.50000  10.50000  12.00000
