Protein in INSANE! Membrane UpperLeaflet>POPC=1.0 LowerLeaflet>POPC=1.0
10365
    1AU     AUC    1   7.452   2.885   6.468 -0.0043  0.0598  0.0054
    1AU     AUC    2   7.722   2.968   6.610 -0.1144 -0.0862  0.0057
    1AU     AUC    3   7.498   2.749   6.739  0.0402 -0.0484 -0.0551
    1AU     AUC    4   7.370   3.006   6.143  0.0370  0.0115  0.0004
    1AU     AUC    5   7.154   2.837   6.312 -0.0190  0.0257 -0.0690
    1AU     AUC    6   7.219   3.126   6.412  0.0772  0.0640 -0.0173
    1AU     AUC    7   7.415   3.099   6.717  0.0016 -0.0209  0.0241
    1AU     AUC    8   7.464   2.674   6.201  0.0909 -0.0465  0.0316
    1AU     AUC    9   7.690   2.639   6.485 -0.0262  0.0110  0.1130
    1AU     AUC   10   7.373   2.568   6.479 -0.0300 -0.0224  0.0233
    1AU     AUC   11   7.188   2.860   6.636  0.1051  0.0014 -0.0087
    1AU     AUC   12   7.692   2.921   6.277  0.0170 -0.0022 -0.0446
    1AU     AUC   13   7.551   3.173   6.420 -0.1360  0.0452 -0.0858
    1AU     AUC   14   8.011   3.065   6.797  0.0207  0.0234 -0.0542
    1AU     AUC   15   7.793   2.804   6.928 -0.0483 -0.1096 -0.0420
    1AU     AUC   16   7.529   2.586   7.048  0.0585  0.0140 -0.0246
    1AU     AUC   17   7.367   3.109   5.818 -0.0540 -0.0416 -0.0455
    1AU     AUC   18   7.069   2.911   5.973 -0.0331 -0.0069 -0.0444
    1AU     AUC   19   6.835   2.759   6.182 -0.0648  0.0038  0.0071
    1AU     AUC   20   6.975   3.412   6.383  0.0874  0.0040  0.0701
    1AU     AUC   21   7.224   3.388   6.709  0.0997 -0.0130 -0.1218
    1AU     AUC   22   7.402   3.305   6.986 -0.0041 -0.0428  0.0462
    1AU     AUC   23   7.461   2.468   5.944 -0.0277 -0.0234 -0.0387
    1AU     AUC   24   7.748   2.432   6.198  0.0003  0.0358 -0.0919
    1AU     AUC   25   7.939   2.394   6.495 -0.0792  0.0277 -0.0152
    1AU     AUC   26   7.229   2.272   6.549 -0.0461  0.0396 -0.0762
    1AU     AUC   27   7.064   2.527   6.691 -0.0694  0.0120  0.0071
    1AU     AUC   28   6.927   2.827   6.850 -0.0962 -0.0319  0.0480
    1AU     AUC   29   7.992   2.967   6.095 -0.0288  0.0770 -0.0912
    1AU     AUC   30   7.857   3.238   6.194  0.1374 -0.0622 -0.0055
    1AU     AUC   31   7.671   3.500   6.334  0.0184  0.0753 -0.0382
    1AU     AUC   32   7.398   2.375   6.786 -0.1153 -0.0266  0.0471
    1AU     AUC   33   7.249   2.676   6.948 -0.1317 -0.0240  0.0371
    1AU     AUC   34   8.018   3.093   6.466 -0.0601 -0.0168  0.0770
    1AU     AUC   35   7.836   3.310   6.578 -0.1052  0.0325  0.0148
    1AU     AUC   36   6.992   2.494   6.360  0.0410  0.0200 -0.0016
    1AU     AUC   37   6.858   2.813   6.507 -0.0046  0.1227 -0.0714
    1AU     AUC   38   7.663   3.056   5.933 -0.0054 -0.0441 -0.0235
    1AU     AUC   39   7.534   3.328   6.040 -0.0141 -0.0525 -0.0323
    1AU     AUC   40   7.695   3.160   6.928  0.0076 -0.0094  0.0114
    1AU     AUC   41   7.454   2.935   7.034 -0.0982  0.0414 -0.0677
    1AU     AUC   42   7.166   3.269   6.091 -0.0086  0.0439  0.0725
    1AU     AUC   43   6.896   3.079   6.265  0.0428 -0.0380  0.0513
    1AU     AUC   44   7.967   2.707   6.661  0.0668  0.0538 -0.0286
    1AU     AUC   45   7.742   2.446   6.746  0.0586 -0.0265 -0.0490
    1AU     AUC   46   7.393   2.754   5.866  0.0660  0.0993  0.0242
    1AU     AUC   47   7.154   2.567   6.048 -0.0295  0.0023 -0.0146
    1AU     AUC   48   6.953   3.164   6.661 -0.0841  0.0205 -0.0311
    1AU     AUC   49   7.134   3.100   6.929 -0.0629  0.0015  0.0525
    1AU     AUC   50   7.364   2.330   6.227  0.0812  0.1291 -0.0373
    1AU     AUC   51   7.584   2.289   6.462 -0.0359 -0.1325  0.0700
    1AU     AUC   52   7.345   3.450   6.365 -0.0386  0.0151  0.0503
    1AU     AUC   53   7.536   3.436   6.688  0.0492  0.0727 -0.0126
    1AU     AUC   54   7.759   2.725   6.008 -0.0052  0.0435  0.0567
    1AU     AUC   55   7.992   2.704   6.316  0.0581  0.0697  0.0197
    1AU    AUSL   56   7.347   2.292   7.152 -0.0210  0.0341 -0.0295
    1AU    AUSL   57   7.406   2.047   6.730  0.0715  0.0139 -0.0947
    1AU     AUL   58   7.441   1.967   7.071  0.0104 -0.0044  0.0217
    1AU       S   59   7.722   1.669   6.893  0.1237 -0.0967 -0.2705
    1AU     LIG   60   7.917   1.270   6.718 -0.2139  0.1642  0.2153
    1AU     LIG   61   8.185   0.922   6.694  0.0072 -0.1226 -0.3546
    1AU     LIG   62   8.282   0.511   6.430 -0.3155 -0.0012 -0.2205
    1AU       S   63   7.030   1.915   7.224 -0.0418 -0.1900  0.1490
    1AU     LIG   64   7.236   1.575   7.346  0.1052  0.1440  0.1449
    1AU     LIG   65   7.571   1.262   7.256  0.2030 -0.1013 -0.0059
    1AU     LIG   66   8.066   1.260   7.373 -0.2119  0.2982  0.2150
    1AU    AUSL   67   7.025   2.184   6.859 -0.0440  0.0501  0.1398
    1AU    AUSL   68   6.701   2.529   6.812 -0.0235  0.0145 -0.0695
    1AU     AUL   69   6.690   2.334   7.106  0.0585 -0.0429  0.0657
    1AU       S   70   6.975   1.972   6.913 -0.3681 -0.2912  0.0743
    1AU     LIG   71   7.060   1.622   6.705 -0.0322  0.1152  0.0078
    1AU     LIG   72   7.298   1.308   6.770  0.1489  0.4368 -0.3256
    1AU     LIG   73   7.576   1.081   6.431 -0.2907  0.1583 -0.1632
    1AU       S   74   6.491   2.188   6.640  0.1273  0.1823 -0.0568
    1AU     LIG   75   6.223   2.294   7.049  0.5320  0.0821 -0.0107
    1AU     LIG   76   5.873   2.513   7.213  0.0296 -0.1681 -0.0417
    1AU     LIG   77   5.573   2.819   7.131  0.1276  0.1452  0.1151
    1AU    AUSL   78   7.080   2.586   6.964  0.0788 -0.0644 -0.0589
    1AU    AUSL   79   7.272   2.689   7.363  0.0044  0.0258  0.0173
    1AU     AUL   80   7.118   2.413   7.333  0.1509 -0.0157  0.1115
    1AU       S   81   6.908   2.023   7.300  0.0012  0.3312 -0.2955
    1AU     LIG   82   6.845   1.769   7.750 -0.0254  0.1306  0.4971
    1AU     LIG   83   6.519   1.566   8.003  0.1608  0.3159  0.0048
    1AU     LIG   84   6.385   1.031   8.133 -0.0277 -0.0692  0.2769
    1AU       S   85   7.030   2.797   7.637 -0.2583  0.0444  0.1843
    1AU     LIG   86   7.361   2.641   7.876  0.1260 -0.1632  0.4847
    1AU     LIG   87   7.661   2.531   8.079  0.3187 -0.4507 -0.1229
    1AU     LIG   88   8.056   2.368   8.200  0.3306  0.3458 -0.3311
    1AU    AUSL   89   8.157   3.468   6.639  0.0257  0.0081  0.0306
    1AU    AUSL   90   7.743   3.572   6.668  0.0733 -0.0216 -0.0556
    1AU     AUL   91   8.005   3.832   6.639  0.0782 -0.0245  0.0177
    1AU       S   92   8.413   3.720   6.417 -0.1405 -0.1348 -0.3119
    1AU     LIG   93   8.841   3.701   6.621  0.0485 -0.0960 -0.1681
    1AU     LIG   94   9.202   3.695   6.573 -0.0854 -0.0876  0.2566
    1AU     LIG   95   9.573   3.828   6.376 -0.0425 -0.2086 -0.2310
    1AU       S   96   8.096   3.702   7.072  0.4531 -0.5674  0.2022
    1AU     LIG   97   8.400   4.035   6.853  0.2106  0.0815 -0.2911
    1AU     LIG   98   8.722   4.266   6.579 -0.1641  0.1206  0.0196
    1AU     LIG   99   8.998   4.434   6.279  0.1492 -0.1513  0.1491
    1AU    AUSL  100   8.308   3.274   6.267 -0.1161  0.0560 -0.0081
    1AU    AUSL  101   8.311   3.046   6.687  0.0012 -0.0671 -0.0350
    1AU     AUL  102   8.474   3.334   6.661  0.0362 -0.0027 -0.0867
    1AU       S  103   8.711   2.913   6.633  0.0423 -0.2834  0.2852
    1AU     LIG  104   9.200   2.792   6.839 -0.1316 -0.2063 -0.0260
    1AU     LIG  105   9.618   2.877   6.733 -0.3319 -0.1164  0.2403
    1AU     LIG  106  10.051   2.925   6.651 -0.1512  0.2171  0.1837
    1AU       S  107   8.513   3.619   6.240 -0.4434  0.1705 -0.0821
    1AU     LIG  108   8.891   3.451   6.096 -0.3292  0.2534 -0.1379
    1AU     LIG  109   9.383   3.423   6.127  0.2069 -0.0000  0.0057
    1AU     LIG  110   9.638   3.321   6.463  0.0495  0.3414 -0.0822
    1AU    AUSL  111   7.948   3.543   6.277 -0.0438  0.0529  0.0509
    1AU    AUSL  112   8.005   3.200   5.976 -0.0901 -0.0244 -0.0381
    1AU     AUL  113   8.244   3.414   5.967  0.0436  0.0982  0.0063
    1AU       S  114   8.211   3.550   5.552 -0.1620 -0.3584 -0.5140
    1AU     LIG  115   8.515   3.814   5.737  0.0259  0.0599  0.1235
    1AU     LIG  116   8.738   3.986   5.983  0.1790 -0.3322 -0.3409
    1AU     LIG  117   9.133   3.955   6.115 -0.0298  0.1568  0.0322
    1AU       S  118   8.218   3.805   6.204 -0.3036 -0.4345 -0.4094
    1AU     LIG  119   8.259   4.216   6.400 -0.0911 -0.2766  0.2826
    1AU     LIG  120   8.176   4.565   6.698 -0.0150 -0.1500 -0.3301
    1AU     LIG  121   8.161   4.891   7.032  0.2807 -0.0385 -0.1862
    1AU    AUSL  122   6.568   2.582   6.408 -0.0421  0.0380  0.1009
    1AU    AUSL  123   6.679   2.924   6.685  0.0098 -0.0176  0.0357
    1AU     AUL  124   6.436   2.687   6.716  0.0577  0.0004 -0.0333
    1AU       S  125   6.312   2.226   6.542  0.4844  0.0871 -0.0703
    1AU     LIG  126   6.113   1.881   6.670 -0.3124 -0.2101  0.1621
    1AU     LIG  127   5.886   1.489   6.540 -0.0561  0.0560 -0.3911
    1AU     LIG  128   5.495   1.351   6.418  0.0540 -0.1467  0.3757
    1AU       S  129   6.281   3.126   6.550  0.0290  0.0999 -0.0869
    1AU     LIG  130   5.902   3.334   6.669  0.1183  0.0451  0.2304
    1AU     LIG  131   5.556   3.572   6.483  0.1783 -0.1260  0.1262
    1AU     LIG  132   5.439   3.757   6.220 -0.1704  0.0007 -0.1863
    1AU    AUSL  133   6.963   2.389   6.499  0.0123 -0.0200 -0.0270
    1AU    AUSL  134   6.788   2.335   6.100 -0.0433  0.0123  0.0324
    1AU     AUL  135   6.536   2.400   6.193 -0.1004 -0.0015  0.0034
    1AU       S  136   6.675   1.991   6.005 -0.2537 -0.2659 -0.3251
    1AU     LIG  137   6.344   1.867   6.210  0.2076  0.1411  0.0706
    1AU     LIG  138   6.164   1.394   6.150 -0.0637 -0.3379 -0.2332
    1AU     LIG  139   5.943   1.143   5.911 -0.3371  0.0206  0.3161
    1AU       S  140   6.655   2.110   6.558 -0.1570 -0.1653 -0.0488
    1AU     LIG  141   6.573   1.643   6.586  0.2011  0.0084 -0.0967
    1AU     LIG  142   6.310   1.258   6.668 -0.1427  0.1315 -0.0430
    1AU     LIG  143   6.164   0.929   6.834 -0.1336 -0.1327 -0.0872
    1AU    AUSL  144   7.722   3.261   5.665 -0.1115  0.0080  0.0254
    1AU    AUSL  145   7.878   2.864   5.785  0.0256  0.0320  0.0374
    1AU     AUL  146   8.083   3.068   5.617  0.0151  0.0291 -0.0562
    1AU       S  147   8.062   3.521   5.471  0.3099 -0.1754 -0.0463
    1AU     LIG  148   7.963   3.323   5.145  0.3426  0.1306 -0.0115
    1AU     LIG  149   8.059   2.970   4.886  0.3815 -0.0287 -0.0134
    1AU     LIG  150   7.910   2.543   4.894  0.0024  0.0934 -0.0176
    1AU       S  151   7.814   2.866   5.312 -0.4476  0.1921 -0.2273
    1AU     LIG  152   8.281   2.632   5.231 -0.0842  0.0820 -0.0895
    1AU     LIG  153   8.545   2.305   5.366  0.4275 -0.1331  0.1359
    1AU     LIG  154   8.685   1.999   5.682 -0.1617 -0.1937  0.0400
    1AU    AUSL  155   7.802   3.598   5.889 -0.0666 -0.0017  0.0866
    1AU    AUSL  156   7.380   3.492   5.764 -0.0857  0.0765 -0.0511
    1AU     AUL  157   7.628   3.523   5.507 -0.1162 -0.0443 -0.0456
    1AU       S  158   7.353   3.831   5.681  0.2485  0.0718  0.4604
    1AU     LIG  159   7.156   3.615   5.180 -0.0330  0.5167  0.0198
    1AU     LIG  160   7.250   3.367   4.822  0.1964 -0.2348  0.2757
    1AU     LIG  161   7.720   3.387   4.652 -0.2404  0.2876  0.2960
    1AU       S  162   7.988   3.762   5.701  0.0884  0.2686  0.1576
    1AU     LIG  163   8.124   4.123   5.764  0.0651  0.2648  0.0503
    1AU     LIG  164   8.407   4.432   5.649  0.4508 -0.2575  0.0145
    1AU     LIG  165   8.527   4.519   5.291 -0.0591 -0.1001  0.1225
    1AU    AUSL  166   7.617   3.178   7.273  0.0399  0.0085 -0.0277
    1AU    AUSL  167   7.933   3.278   6.948 -0.0118 -0.0160 -0.0614
    1AU     AUL  168   7.832   3.348   7.446  0.0220 -0.0235  0.0364
    1AU       S  169   8.133   3.412   7.090 -0.1696 -0.3519 -0.1318
    1AU     LIG  170   8.461   3.144   7.132 -0.1821  0.1648  0.0195
    1AU     LIG  171   8.770   2.906   7.169 -0.0631 -0.3327  0.1293
    1AU     LIG  172   8.699   2.533   7.508  0.1039 -0.1356 -0.2316
    1AU       S  173   7.742   2.938   7.654  0.0020 -0.1461  0.1243
    1AU     LIG  174   7.921   3.304   7.959 -0.4050  0.0037  0.2341
    1AU     LIG  175   8.267   3.699   8.008 -0.0273  0.4083  0.2747
    1AU     LIG  176   8.571   4.047   7.961 -0.4489  0.0715  0.0875
    1AU    AUSL  177   8.010   2.970   7.226  0.0063  0.1028 -0.0582
    1AU    AUSL  178   7.957   2.510   7.180 -0.0021 -0.0023 -0.0385
    1AU     AUL  179   8.232   2.730   7.302  0.0373  0.0071 -0.0497
    1AU       S  180   7.942   2.878   7.595  0.0559 -0.3185 -0.3596
    1AU     LIG  181   8.276   3.190   7.618 -0.2862 -0.0973  0.1675
    1AU     LIG  182   8.297   3.586   7.533 -0.0120  0.0263 -0.0675
    1AU     LIG  183   8.394   4.027   7.347  0.1933  0.2959 -0.0447
    1AU       S  184   8.286   2.276   7.231 -0.0107 -0.1764 -0.4414
    1AU     LIG  185   8.576   2.027   7.528  0.0746  0.0743  0.2859
    1AU     LIG  186   8.754   1.807   7.930 -0.3519  0.1047 -0.0811
    1AU     LIG  187   8.736   1.932   8.384 -0.1322 -0.2583 -0.1124
    1AU    AUSL  188   7.632   2.766   7.181 -0.0153  0.0281 -0.0458
    1AU    AUSL  189   7.218   3.062   7.149 -0.0394  0.0838 -0.0011
    1AU     AUL  190   7.397   3.102   7.432  0.0928 -0.0471 -0.0047
    1AU       S  191   7.020   2.931   7.664 -0.5854 -0.3077  0.2508
    1AU     LIG  192   6.992   3.380   7.761 -0.0322  0.2756 -0.2965
    1AU     LIG  193   7.359   3.561   7.591 -0.0614  0.0689 -0.2244
    1AU     LIG  194   7.496   3.954   7.360 -0.0497 -0.0730 -0.4181
    1AU       S  195   7.704   2.684   7.514  0.0549 -0.1412 -0.2725
    1AU     LIG  196   7.928   2.382   7.670 -0.1095  0.0312 -0.3855
    1AU     LIG  197   8.101   2.002   7.596 -0.0992 -0.1944  0.0568
    1AU     LIG  198   8.267   1.615   7.646 -0.1121 -0.0456 -0.0155
    1AU    AUSL  199   6.782   3.384   6.089 -0.0367 -0.0316 -0.0436
    1AU    AUSL  200   6.640   2.972   6.261 -0.0357  0.0811 -0.0230
    1AU     AUL  201   6.431   3.273   6.108  0.0701 -0.0812  0.0187
    1AU       S  202   6.283   2.954   6.380 -0.1471  0.0051 -0.1864
    1AU     LIG  203   5.901   2.986   6.245 -0.1474  0.1423  0.2299
    1AU     LIG  204   5.384   3.109   6.418 -0.4170  0.4497  0.4134
    1AU     LIG  205   5.100   3.348   6.567  0.1263 -0.0519 -0.2133
    1AU       S  206   6.570   3.599   5.841 -0.0203 -0.0371 -0.0043
    1AU     LIG  207   6.591   4.063   5.869  0.2081  0.1553  0.1727
    1AU     LIG  208   6.331   4.329   5.896  0.1023 -0.1640 -0.5195
    1AU     LIG  209   6.555   4.667   6.173 -0.1024 -0.0236  0.0751
    1AU    AUSL  210   7.097   3.201   5.823  0.0298  0.0227 -0.0496
    1AU    AUSL  211   7.105   3.658   6.055 -0.0234  0.0645  0.0134
    1AU     AUL  212   7.001   3.547   5.755 -0.0216  0.0329 -0.0038
    1AU       S  213   6.588   3.414   5.630 -0.3748 -0.3065 -0.0929
    1AU     LIG  214   6.186   3.316   5.402 -0.4852  0.3249 -0.0717
    1AU     LIG  215   5.793   3.415   5.228 -0.2529 -0.1637  0.2155
    1AU     LIG  216   5.447   3.592   5.145  0.1625  0.1787 -0.0880
    1AU       S  217   7.076   3.976   5.814  0.2016  0.2759 -0.1005
    1AU     LIG  218   7.282   4.383   5.803 -0.1834 -0.3754 -0.2199
    1AU     LIG  219   7.584   4.610   6.145  0.1247 -0.2303 -0.5454
    1AU     LIG  220   7.883   4.835   6.379  0.1714  0.0401  0.0843
    1AU    AUSL  221   6.702   3.018   5.842  0.0765 -0.0188  0.0268
    1AU    AUSL  222   7.055   2.871   5.571 -0.0764 -0.0563  0.0718
    1AU     AUL  223   6.944   3.152   5.514  0.0925 -0.0551  0.0263
    1AU       S  224   6.782   2.730   5.480 -0.3493 -0.0800  0.1907
    1AU     LIG  225   6.287   2.811   5.425 -0.5171 -0.3204 -0.2242
    1AU     LIG  226   6.049   2.971   4.997  0.2216  0.0514 -0.2123
    1AU     LIG  227   5.847   2.750   4.715 -0.0612 -0.1159 -0.0235
    1AU       S  228   6.534   3.111   5.707 -0.0079  0.4957 -0.3725
    1AU     LIG  229   6.286   2.770   5.945 -0.0106 -0.2152  0.1605
    1AU     LIG  230   6.091   2.501   6.264  0.2291  0.1440 -0.0506
    1AU     LIG  231   5.698   2.277   6.476  0.0964  0.0822  0.0638
    1AU    AUSL  232   8.088   2.357   6.789  0.0396  0.0120 -0.0090
    1AU    AUSL  233   7.667   2.355   6.912  0.0248  0.0209  0.0389
    1AU     AUL  234   7.825   2.230   7.165 -0.0006 -0.0007 -0.0795
    1AU       S  235   8.253   2.214   6.899  0.0980  0.0499  0.0987
    1AU     LIG  236   8.503   2.141   6.551  0.3200  0.0432  0.1321
    1AU     LIG  237   8.809   2.168   6.215 -0.0533 -0.5626 -0.0373
    1AU     LIG  238   9.236   1.938   6.274 -0.0309 -0.0328  0.1295
    1AU       S  239   7.921   1.826   7.006  0.0615 -0.3707  0.1373
    1AU     LIG  240   8.331   1.778   7.114 -0.2938  0.2844 -0.1656
    1AU     LIG  241   8.682   1.777   7.075  0.2564 -0.1114 -0.1004
    1AU     LIG  242   8.919   1.427   6.943 -0.0167 -0.2706 -0.0533
    1AU    AUSL  243   8.038   2.768   6.844 -0.0178  0.0901  0.0057
    1AU    AUSL  244   8.341   2.603   6.549  0.0194  0.1117  0.0091
    1AU     AUL  245   8.369   2.718   6.894  0.0237  0.0479 -0.0436
    1AU       S  246   8.422   2.353   7.136  0.0384  0.4242 -0.1254
    1AU     LIG  247   8.771   2.439   6.957 -0.3261  0.0409 -0.2289
    1AU     LIG  248   8.971   2.155   6.697  0.1337 -0.0748  0.0443
    1AU     LIG  249   8.935   1.751   6.586  0.1029 -0.1019 -0.0253
    1AU       S  250   8.778   2.627   6.473 -0.0603 -0.2604 -0.1131
    1AU     LIG  251   9.214   2.509   6.426  0.1996  0.0408 -0.1365
    1AU     LIG  252   9.465   2.404   6.695 -0.1654  0.2298  0.0270
    1AU     LIG  253   9.389   2.089   7.077  0.0800 -0.0610 -0.4495
    1AU    AUSL  254   7.227   2.475   5.656  0.0401 -0.0230 -0.0043
    1AU    AUSL  255   7.459   2.931   5.641 -0.0042  0.0530 -0.0038
    1AU     AUL  256   7.247   2.695   5.380 -0.0741 -0.0403 -0.0328
    1AU       S  257   7.680   2.904   5.336 -0.2711  0.1211 -0.0871
    1AU     LIG  258   7.342   3.190   5.266 -0.2224  0.4310 -0.0651
    1AU     LIG  259   7.026   2.981   5.034  0.4103  0.3841 -0.2884
    1AU     LIG  260   6.533   2.865   4.976 -0.0320 -0.1392  0.0118
    1AU       S  261   6.824   2.475   5.438 -0.0487 -0.0746  0.3942
    1AU     LIG  262   6.523   2.380   5.188  0.2020  0.1989 -0.3443
    1AU     LIG  263   6.387   2.103   4.920 -0.4624  0.1338  0.0815
    1AU     LIG  264   6.565   2.017   4.501 -0.0125 -0.0650  0.0535
    1AU    AUSL  265   6.935   2.674   5.928  0.0033 -0.1091 -0.0005
    1AU    AUSL  266   7.206   2.303   6.037 -0.0040 -0.0621  0.0496
    1AU     AUL  267   6.979   2.233   5.773  0.0648  0.0162 -0.0929
    1AU       S  268   6.813   1.860   5.968  0.0160 -0.1431  0.0785
    1AU     LIG  269   6.426   1.714   5.737  0.1584 -0.0528  0.1284
    1AU     LIG  270   5.996   1.643   5.691 -0.0142  0.2270 -0.0030
    1AU     LIG  271   5.593   1.577   5.921 -0.1194 -0.1178 -0.1189
    1AU       S  272   6.699   2.589   5.681 -0.0661 -0.5028  0.1873
    1AU     LIG  273   6.388   2.329   5.718 -0.2603  0.0085 -0.0282
    1AU     LIG  274   6.048   2.104   5.880  0.2431  0.0058 -0.3152
    1AU     LIG  275   5.880   1.852   6.198 -0.0957 -0.0975 -0.4481
    1AU    AUSL  276   6.844   3.205   6.950 -0.0690  0.0528  0.0371
    1AU    AUSL  277   6.708   3.328   6.521 -0.0008  0.0827  0.0413
    1AU     AUL  278   6.561   3.132   6.916 -0.0115 -0.0571  0.0728
    1AU       S  279   6.364   3.366   6.605 -0.2019 -0.1684  0.2866
    1AU     LIG  280   6.204   3.709   6.715  0.0420  0.1053  0.1857
    1AU     LIG  281   5.796   3.953   6.577 -0.0040 -0.1650 -0.0978
    1AU     LIG  282   5.359   4.299   6.614  0.1209 -0.4571 -0.1959
    1AU       S  283   6.565   3.489   7.206 -0.3921  0.2225  0.1744
    1AU     LIG  284   6.182   3.404   7.120  0.3088 -0.0496  0.0033
    1AU     LIG  285   5.917   3.693   7.108  0.1938  0.1299 -0.5515
    1AU     LIG  286   5.594   3.949   7.070 -0.0550 -0.2375  0.0511
    1AU    AUSL  287   6.871   3.600   6.804  0.0781 -0.0217 -0.0646
    1AU    AUSL  288   7.311   3.658   6.830 -0.0289  0.0743 -0.0041
    1AU     AUL  289   7.117   3.895   7.012 -0.0022  0.0382 -0.1127
    1AU       S  290   6.683   3.692   7.097  0.2379  0.0852 -0.4368
    1AU     LIG  291   6.402   3.974   7.388 -0.3653 -0.1082 -0.1649
    1AU     LIG  292   6.484   4.321   7.747  0.1354 -0.1542  0.1470
    1AU     LIG  293   6.442   4.681   7.777 -0.0739  0.1049  0.1207
    1AU       S  294   7.025   4.045   6.585 -0.1845  0.1012 -0.3184
    1AU     LIG  295   6.790   4.544   6.645 -0.1910 -0.2356 -0.3016
    1AU     LIG  296   6.852   4.915   6.733 -0.3978  0.2369 -0.0761
    1AU     LIG  297   6.922   5.152   6.421  0.1574 -0.0405  0.2926
    1AU    AUSL  298   7.133   3.473   7.172  0.0738 -0.0260 -0.0246
    1AU    AUSL  299   6.837   2.840   7.187  0.0897  0.0243 -0.0691
    1AU     AUL  300   6.928   3.206   7.311  0.0454  0.0198 -0.0502
    1AU       S  301   6.800   2.774   7.416 -0.3625 -0.0936 -0.2912
    1AU     LIG  302   6.375   2.939   7.321  0.2154 -0.0338  0.0226
    1AU     LIG  303   6.116   2.897   7.036 -0.1167 -0.1104  0.0239
    1AU     LIG  304   5.917   2.699   6.727  0.0329  0.0039  0.1930
    1AU       S  305   6.877   3.691   7.363  0.1641  0.2371  0.0449
    1AU     LIG  306   6.935   4.109   7.502 -0.1587  0.7796  0.1256
    1AU     LIG  307   7.314   4.366   7.683 -0.1525 -0.2307 -0.3119
    1AU     LIG  308   7.528   4.767   7.769 -0.3288 -0.3865  0.1160
    1AU    AUSL  309   7.454   2.090   6.324  0.0637  0.0855  0.0566
    1AU    AUSL  310   7.823   2.094   6.614 -0.1135 -0.0362 -0.0750
    1AU     AUL  311   7.542   1.793   6.484 -0.0328 -0.0529  0.0120
    1AU       S  312   7.650   1.678   6.060  0.0370 -0.0064  0.1151
    1AU     LIG  313   7.287   1.428   6.252 -0.3013  0.0325  0.1943
    1AU     LIG  314   6.980   1.120   6.457 -0.5416  0.0378 -0.1436
    1AU     LIG  315   6.810   1.101   6.851 -0.1635  0.0718 -0.0751
    1AU       S  316   7.919   1.905   6.696 -0.0680  0.1810  0.0340
    1AU     LIG  317   8.362   1.678   6.652 -0.1127  0.2135  0.1998
    1AU     LIG  318   8.662   1.337   6.479 -0.3537  0.2676  0.1539
    1AU     LIG  319   8.756   0.993   6.686  0.0134  0.0212  0.1522
    1AU    AUSL  320   7.551   2.129   5.888  0.0296  0.1146 -0.0547
    1AU    AUSL  321   7.033   2.020   6.313  0.0811 -0.0258  0.0117
    1AU     AUL  322   7.264   1.915   5.992  0.0270  0.0013 -0.0293
    1AU       S  323   7.652   1.683   5.885 -0.2299 -0.0344  0.6014
    1AU     LIG  324   7.786   1.725   5.403  0.2865  0.2112  0.0727
    1AU     LIG  325   7.936   1.436   5.022  0.3714  0.2347 -0.2590
    1AU     LIG  326   7.929   1.022   4.728  0.0585 -0.2915  0.0009
    1AU       S  327   6.855   1.799   6.256 -0.2696 -0.0899  0.1134
    1AU     LIG  328   6.709   1.382   6.162  0.0870 -0.1064 -0.0691
    1AU     LIG  329   6.519   0.992   6.244  0.1735 -0.0705 -0.3581
    1AU     LIG  330   6.567   0.772   6.593  0.0268  0.0849  0.2712
    1AU    AUSL  331   7.855   2.084   6.201 -0.0233 -0.0513 -0.0996
    1AU    AUSL  332   7.832   2.444   5.963 -0.0448  0.0229  0.0434
    1AU     AUL  333   7.821   2.118   5.782  0.0363  0.0310 -0.0388
    1AU       S  334   8.283   2.193   5.860  0.1179 -0.5022 -0.0859
    1AU     LIG  335   8.155   1.767   5.753  0.1226 -0.1657 -0.1720
    1AU     LIG  336   8.036   1.344   5.664 -0.0739  0.1153  0.2206
    1AU     LIG  337   8.039   0.872   5.706  0.1999  0.3809  0.0235
    1AU       S  338   7.902   1.834   6.184 -0.0696 -0.0575  0.0405
    1AU     LIG  339   8.114   1.482   6.310  0.0692  0.0558  0.2762
    1AU     LIG  340   8.069   1.109   6.233  0.1916  0.0728  0.0114
    1AU     LIG  341   8.331   0.856   6.134 -0.0344  0.0890 -0.0502
    1AU    AUSL  342   7.509   3.862   6.466  0.0451 -0.0155 -0.0408
    1AU    AUSL  343   7.637   3.552   7.077  0.0462  0.1380 -0.1896
    1AU     AUL  344   7.578   3.878   6.831  0.0322  0.0755  0.0066
    1AU       S  345   7.262   4.125   6.594  0.2322 -0.2477 -0.0176
    1AU     LIG  346   7.257   4.544   6.498  0.0061 -0.1359  0.2615
    1AU     LIG  347   7.352   5.018   6.580 -0.0911 -0.1161  0.0658
    1AU     LIG  348   7.256   5.175   6.938 -0.2775  0.0630 -0.2379
    1AU       S  349   7.915   3.714   7.152 -0.0765  0.4161 -0.3966
    1AU     LIG  350   7.919   4.192   7.066 -0.1709  0.3384 -0.1469
    1AU     LIG  351   8.239   4.439   7.200 -0.5133  0.1776  0.1349
    1AU     LIG  352   8.301   4.514   7.598 -0.0550 -0.5935 -0.2364
    1AU    AUSL  353   7.131   3.570   6.465  0.0480  0.0113  0.0049
    1AU    AUSL  354   7.504   3.545   6.185  0.0184 -0.0021 -0.1257
    1AU     AUL  355   7.314   3.881   6.200 -0.0052 -0.0023  0.0093
    1AU       S  356   6.997   3.890   6.517  0.0190 -0.1229  0.0650
    1AU     LIG  357   6.704   3.809   6.310  0.2994 -0.1920  0.4516
    1AU     LIG  358   6.256   3.850   6.177 -0.0191  0.0446  0.3859
    1AU     LIG  359   5.967   3.565   6.263  0.0864 -0.0470 -0.2681
    1AU       S  360   7.522   3.941   5.812  0.5029 -0.3981  0.4815
    1AU     LIG  361   7.739   4.076   6.112  0.2710 -0.2244  0.1965
    1AU     LIG  362   7.726   4.343   6.510 -0.0903 -0.0518 -0.1393
    1AU     LIG  363   7.656   4.650   6.810 -0.0903  0.0397  0.1307
    1AU    AUSL  364   8.208   2.684   5.973  0.0699  0.0323  0.0178
    1AU    AUSL  365   7.644   2.535   5.616 -0.0185 -0.0741 -0.0685
    1AU     AUL  366   8.048   2.539   5.674  0.0361 -0.1204  0.0445
    1AU       S  367   7.711   2.629   5.363 -0.0188 -0.0526 -0.5248
    1AU     LIG  368   7.514   2.190   5.298 -0.0860  0.2245  0.0542
    1AU     LIG  369   7.249   1.896   5.463  0.2656  0.0930 -0.1182
    1AU     LIG  370   7.033   1.574   5.601 -0.2535 -0.1394 -0.0641
    1AU       S  371   8.435   2.389   5.839 -0.1166 -0.1215  0.0671
    1AU     LIG  372   8.858   2.642   5.949 -0.1558 -0.2546 -0.1324
    1AU     LIG  373   9.167   2.952   6.138  0.0053  0.3678  0.2582
    1AU     LIG  374   9.167   3.119   6.478  0.2422 -0.2396  0.2413
    1AU    AUSL  375   8.098   2.406   6.294  0.0091  0.0233 -0.0262
    1AU    AUSL  376   8.141   2.909   6.321 -0.0304 -0.0637 -0.1509
    1AU     AUL  377   8.402   2.635   6.216 -0.1243  0.1285  0.0575
    1AU       S  378   8.284   2.205   6.120  0.3418  0.3876 -0.2937
    1AU     LIG  379   8.488   1.812   6.158 -0.0138 -0.0951 -0.3258
    1AU     LIG  380   8.813   1.684   6.037  0.0827  0.0354  0.0440
    1AU     LIG  381   8.936   1.282   6.055  0.0735  0.1675  0.3601
    1AU       S  382   8.664   2.993   6.362 -0.0436 -0.0822  0.1427
    1AU     LIG  383   8.620   3.062   5.923  0.2750 -0.0534 -0.2548
    1AU     LIG  384   8.641   3.270   5.553 -0.0810 -0.0961  0.3169
    1AU     LIG  385   8.486   3.265   5.128 -0.0222  0.5012  0.1405
    2POPC   NC3  386   8.773   6.736   8.435 -0.0867 -0.1347  0.1969
    2POPC   PO4  387   8.840   6.207   8.490  0.1033 -0.4001 -0.1146
    2POPC   GL1  388   8.803   6.287   8.141 -0.2451 -0.2596 -0.1112
    2POPC   GL2  389   9.062   6.283   7.954 -0.3154 -0.3461 -0.2043
    2POPC   C1A  390   8.695   6.508   7.759  0.1275  0.0871 -0.1754
    2POPC   D2A  391   8.584   6.427   7.291 -0.3593  0.0455 -0.0884
    2POPC   C3A  392   8.803   6.086   7.099  0.0170  0.1420  0.0851
    2POPC   C4A  393   8.927   5.996   7.550  0.1244 -0.1090 -0.1968
    2POPC   C1B  394   9.394   6.066   7.668 -0.2168 -0.1560  0.1678
    2POPC   C2B  395   9.335   6.090   7.217 -0.0170 -0.0198 -0.0508
    2POPC   C3B  396   9.158   6.394   6.994  0.2788 -0.4745 -0.0040
    2POPC   C4B  397   8.846   6.698   6.961 -0.3049  0.1050  0.2658
    3POPC   NC3  398   8.874   9.628   8.512 -0.0178 -0.2296 -0.2249
    3POPC   PO4  399   8.573   9.867   8.362  0.0990  0.1046  0.2291
    3POPC   GL1  400   8.838  10.242   8.329  0.0410  0.0261 -0.0792
    3POPC   GL2  401   9.079  10.509   8.418 -0.1488 -0.2285  0.0338
    3POPC   C1A  402   8.765  10.621   8.054  0.3743 -0.0372  0.2922
    3POPC   D2A  403   8.994  10.909   7.904 -0.0686 -0.4621 -0.2520
    3POPC   C3A  404   8.906  11.125   8.235 -0.1403 -0.0414 -0.2729
    3POPC   C4A  405   9.208  11.332   8.651  0.2038  0.2929 -0.2774
    3POPC   C1B  406   9.279  10.807   8.328  0.3106 -0.0285  0.1100
    3POPC   C2B  407   9.535  10.974   7.885 -0.0548 -0.4919  0.1084
    3POPC   C3B  408   9.610  10.965   7.454  0.2256 -0.0332 -0.0496
    3POPC   C4B  409  10.055  10.816   7.303  0.2117 -0.0504 -0.0607
    4POPC   NC3  410   3.895   8.044   8.084 -0.0990  0.0890  0.0763
    4POPC   PO4  411   3.905   7.777   8.367  0.1173 -0.0865  0.0733
    4POPC   GL1  412   3.732   7.550   7.933  0.1788 -0.0280  0.0926
    4POPC   GL2  413   3.730   7.295   7.901 -0.1407 -0.3179  0.1788
    4POPC   C1A  414   3.785   7.734   7.486 -0.2869  0.0176  0.0390
    4POPC   D2A  415   3.845   7.636   7.059  0.0273 -0.0570  0.0622
    4POPC   C3A  416   3.727   7.591   6.602 -0.0868  0.1949 -0.3742
    4POPC   C4A  417   3.255   7.498   6.601  0.0310  0.0794 -0.0255
    4POPC   C1B  418   3.561   6.939   7.619  0.0017 -0.0121 -0.0700
    4POPC   C2B  419   3.252   6.920   7.374  0.1940 -0.4501 -0.2038
    4POPC   C3B  420   3.078   7.285   7.156  0.0006  0.0571  0.0869
    4POPC   C4B  421   2.924   7.614   6.928 -0.1398 -0.1203 -0.2284
    5POPC   NC3  422   5.633   5.900   8.290  0.2512 -0.3679 -0.1107
    5POPC   PO4  423   6.033   5.845   8.284  0.1643 -0.3622 -0.3284
    5POPC   GL1  424   6.223   5.650   8.015  0.1400  0.2943  0.0601
    5POPC   GL2  425   6.481   5.485   7.941 -0.1076  0.0611 -0.2673
    5POPC   C1A  426   6.233   5.675   7.540 -0.0657  0.0300  0.0553
    5POPC   D2A  427   6.319   5.615   7.183 -0.0697 -0.1085  0.0401
    5POPC   C3A  428   6.195   5.213   6.888 -0.1646  0.0226 -0.4377
    5POPC   C4A  429   5.984   4.944   6.718 -0.2540 -0.1218 -0.0318
    5POPC   C1B  430   6.637   5.123   7.643  0.0415 -0.1855  0.0880
    5POPC   C2B  431   6.393   4.917   7.355  0.0426 -0.0240  0.0135
    5POPC   C3B  432   6.377   4.646   6.824 -0.1012 -0.2498  0.4036
    5POPC   C4B  433   6.276   4.348   6.471  0.2133  0.2539 -0.0624
    6POPC   NC3  434   2.643   3.281   8.485  0.2016  0.1583  0.0370
    6POPC   PO4  435   3.083   3.123   8.685  0.0729  0.0507 -0.1458
    6POPC   GL1  436   3.116   3.248   8.216 -0.1878 -0.1808  0.1856
    6POPC   GL2  437   2.912   3.395   8.056  0.0177 -0.1912 -0.1056
    6POPC   C1A  438   3.315   3.212   7.837  0.0894  0.0552  0.1575
    6POPC   D2A  439   3.369   3.347   7.468  0.0176  0.1206 -0.0241
    6POPC   C3A  440   3.405   3.214   6.991  0.4186  0.3707  0.1640
    6POPC   C4A  441   3.110   3.111   6.802  0.2274  0.0071  0.0853
    6POPC   C1B  442   2.839   3.487   7.680 -0.0168 -0.0731  0.2430
    6POPC   C2B  443   2.940   3.604   7.292  0.1175 -0.0565  0.0067
    6POPC   C3B  444   3.373   3.756   7.149 -0.1080 -0.1307 -0.1185
    6POPC   C4B  445   3.706   3.758   7.439 -0.0070  0.0287  0.0746
    7POPC   NC3  446   0.772   2.008   8.672 -0.2187 -0.3768  0.0560
    7POPC   PO4  447   0.696   2.358   8.339  0.0001  0.1521 -0.1211
    7POPC   GL1  448   0.853   2.166   7.899 -0.0441 -0.0270  0.0785
    7POPC   GL2  449   0.980   2.406   7.905 -0.0769  0.2631  0.0014
    7POPC   C1A  450   0.974   1.991   7.474  0.1254 -0.4676 -0.0632
    7POPC   D2A  451   1.020   2.161   7.031 -0.2588  0.1842  0.3876
    7POPC   C3A  452   0.767   2.442   6.968  0.0230 -0.3689 -0.0258
    7POPC   C4A  453   0.846   2.657   6.657  0.1588 -0.1234  0.2134
    7POPC   C1B  454   0.978   2.499   7.495  0.1666  0.1370  0.0100
    7POPC   C2B  455   1.357   2.511   7.162  0.1149 -0.1533 -0.1857
    7POPC   C3B  456   1.683   2.305   7.157 -0.3024 -0.0079 -0.1758
    7POPC   C4B  457   1.894   2.029   7.131 -0.0114 -0.0343 -0.3476
    8POPC   NC3  458   5.163   9.480   8.100 -0.0714 -0.1630  0.0445
    8POPC   PO4  459   5.058   9.902   8.008 -0.2954 -0.2790 -0.1147
    8POPC   GL1  460   5.276  10.011   7.641  0.1827  0.4595  0.0606
    8POPC   GL2  461   5.610   9.856   7.718  0.2256  0.2616  0.0193
    8POPC   C1A  462   5.236  10.292   7.323  0.0262 -0.0142 -0.4539
    8POPC   D2A  463   5.245  10.606   7.101 -0.1362  0.0669 -0.1309
    8POPC   C3A  464   5.248  10.996   7.292 -0.0565  0.0804 -0.2825
    8POPC   C4A  465   5.230  11.140   7.633  0.2172 -0.2196 -0.0804
    8POPC   C1B  466   5.760  10.012   7.311 -0.0529  0.2181  0.0930
    8POPC   C2B  467   5.753  10.350   7.023  0.1526  0.0971 -0.0269
    8POPC   C3B  468   5.715  10.470   6.619 -0.0996  0.2809  0.2370
    8POPC   C4B  469   6.055  10.582   6.376 -0.2170 -0.2383  0.2755
    9POPC   NC3  470   5.738   5.474   8.400  0.2112 -0.1128  0.0305
    9POPC   PO4  471   5.349   5.517   8.225  0.0474 -0.2031 -0.1238
    9POPC   GL1  472   5.588   5.570   7.845 -0.2373 -0.1805 -0.4725
    9POPC   GL2  473   5.795   5.848   7.737 -0.1440  0.1266 -0.0208
    9POPC   C1A  474   5.525   5.557   7.445 -0.1733 -0.4691  0.2679
    9POPC   D2A  475   5.190   5.711   7.228  0.1077  0.0024  0.0768
    9POPC   C3A  476   4.841   5.463   7.092 -0.0894 -0.0768 -0.1200
    9POPC   C4A  477   4.781   5.215   6.765 -0.0113  0.2211 -0.1699
    9POPC   C1B  478   5.355   5.971   7.619 -0.1735  0.2056 -0.2192
    9POPC   C2B  479   5.245   6.158   7.160 -0.0651 -0.0372  0.0579
    9POPC   C3B  480   5.179   5.970   6.803  0.2427 -0.0429 -0.1587
    9POPC   C4B  481   4.924   5.693   6.688  0.2735  0.4496 -0.3336
   10POPC   NC3  482   0.996   1.420   8.560 -0.1389 -0.0548 -0.2093
   10POPC   PO4  483   0.892   1.760   8.213 -0.0525  0.1910  0.0778
   10POPC   GL1  484   0.790   1.631   7.758 -0.2217  0.1572  0.2043
   10POPC   GL2  485   1.066   1.577   7.666  0.2183 -0.0264  0.0124
   10POPC   C1A  486   0.646   1.664   7.187  0.0686  0.0845 -0.2675
   10POPC   D2A  487   0.565   1.907   6.904 -0.0563  0.0139 -0.2637
   10POPC   C3A  488   0.162   1.949   6.678  0.0747 -0.1908  0.0824
   10POPC   C4A  489  -0.047   2.251   6.267 -0.3479 -0.0392  0.0143
   10POPC   C1B  490   1.234   1.523   7.255  0.2071 -0.1976  0.0141
   10POPC   C2B  491   1.140   1.655   6.879  0.0850  0.0033  0.0868
   10POPC   C3B  492   0.838   1.551   6.661  0.1364  0.0005 -0.1996
   10POPC   C4B  493   0.653   1.198   6.409  0.1155 -0.0537 -0.3140
   11POPC   NC3  494   4.235   1.242   9.100 -0.0621 -0.3645  0.0123
   11POPC   PO4  495   4.189   1.639   8.842 -0.5858  0.0494 -0.1122
   11POPC   GL1  496   3.966   1.547   8.416 -0.0440  0.0573  0.1162
   11POPC   GL2  497   4.134   1.594   8.124 -0.2666 -0.0907  0.0910
   11POPC   C1A  498   3.640   1.474   8.077  0.0661  0.2719  0.2031
   11POPC   D2A  499   3.727   1.291   7.700 -0.2486 -0.2246  0.1378
   11POPC   C3A  500   3.950   0.980   7.530 -0.1593 -0.1487  0.3120
   11POPC   C4A  501   3.951   0.679   7.851 -0.1183 -0.1081  0.2080
   11POPC   C1B  502   4.250   1.313   7.779 -0.1219  0.0438 -0.0096
   11POPC   C2B  503   4.248   1.370   7.397  0.2647 -0.1164  0.0994
   11POPC   C3B  504   4.241   1.501   6.970  0.0098 -0.4384 -0.5055
   11POPC   C4B  505   4.402   1.842   6.741  0.1586  0.2833 -0.1239
   12POPC   NC3  506   2.668   1.588   8.429  0.2278 -0.3405 -0.2234
   12POPC   PO4  507   2.977   1.827   8.489  0.4056 -0.2104  0.1490
   12POPC   GL1  508   2.726   1.912   8.072 -0.0981  0.2064 -0.2491
   12POPC   GL2  509   2.425   2.278   8.041  0.1569  0.0598  0.2079
   12POPC   C1A  510   2.637   1.749   7.729  0.1042  0.0845  0.2761
   12POPC   D2A  511   2.771   1.656   7.286 -0.0856 -0.2743  0.0160
   12POPC   C3A  512   3.103   1.406   7.075  0.1453  0.1050 -0.1779
   12POPC   C4A  513   3.091   1.012   6.950 -0.1242 -0.0991 -0.0782
   12POPC   C1B  514   2.742   2.357   7.792 -0.1523  0.1648  0.0218
   12POPC   C2B  515   3.065   2.340   7.529 -0.0836  0.1614 -0.0033
   12POPC   C3B  516   3.110   2.182   7.083 -0.2085 -0.1141 -0.0061
   12POPC   C4B  517   3.181   2.133   6.606 -0.0062  0.0394 -0.3032
   13POPC   NC3  518   7.106   7.898   8.643 -0.1844 -0.0628  0.3120
   13POPC   PO4  519   7.500   7.707   8.609  0.2099  0.3141 -0.0240
   13POPC   GL1  520   7.481   7.778   8.172  0.0075 -0.1925 -0.2991
   13POPC   GL2  521   7.412   7.543   7.892 -0.0229 -0.1695  0.0454
   13POPC   C1A  522   7.558   8.097   7.853 -0.1089 -0.0287  0.0258
   13POPC   D2A  523   7.613   8.229   7.412 -0.2789  0.0623 -0.4020
   13POPC   C3A  524   7.357   8.236   7.075  0.0490 -0.2230 -0.1116
   13POPC   C4A  525   7.234   8.271   6.736 -0.3864  0.0038  0.0979
   13POPC   C1B  526   7.800   7.635   7.618 -0.1355  0.3404  0.0520
   13POPC   C2B  527   7.802   7.794   7.256 -0.1021  0.1256 -0.1890
   13POPC   C3B  528   7.326   7.723   6.956 -0.1884  0.3094  0.0408
   13POPC   C4B  529   6.948   7.948   6.986 -0.1212  0.3590  0.1912
   14POPC   NC3  530   5.631   2.285   8.976  0.0271 -0.0905 -0.0507
   14POPC   PO4  531   5.240   2.438   8.830  0.1652  0.1890  0.0838
   14POPC   GL1  532   5.495   2.480   8.473  0.0364  0.1327 -0.0551
   14POPC   GL2  533   5.700   2.272   8.380  0.2644 -0.1305  0.3501
   14POPC   C1A  534   5.512   2.552   7.972 -0.0396  0.1735  0.0186
   14POPC   D2A  535   5.611   2.456   7.601 -0.1202 -0.0804  0.1877
   14POPC   C3A  536   5.438   2.254   7.263  0.3395 -0.0465 -0.0615
   14POPC   C4A  537   5.272   2.168   6.865  0.4364 -0.1829 -0.0542
   14POPC   C1B  538   5.931   2.296   8.047  0.2413  0.2901  0.2187
   14POPC   C2B  539   5.990   2.218   7.688 -0.3024 -0.0326 -0.0691
   14POPC   C3B  540   5.936   2.022   7.323 -0.1345 -0.0290  0.0052
   14POPC   C4B  541   5.748   1.999   6.938 -0.1044  0.0669  0.1589
   15POPC   NC3  542   7.606   5.017   9.187  0.0223  0.0378  0.2164
   15POPC   PO4  543   7.739   4.703   9.056  0.0390  0.0021  0.1760
   15POPC   GL1  544   8.032   4.637   8.730  0.3219  0.0431 -0.0439
   15POPC   GL2  545   7.977   4.345   8.687 -0.1352 -0.1116  0.1899
   15POPC   C1A  546   7.841   4.682   8.247  0.3406  0.2958  0.1943
   15POPC   D2A  547   7.816   5.168   8.137  0.3843  0.2103 -0.0953
   15POPC   C3A  548   7.710   5.288   7.784  0.1963 -0.1219 -0.2752
   15POPC   C4A  549   7.543   5.534   7.541 -0.0969  0.0753 -0.2902
   15POPC   C1B  550   8.125   4.048   8.375 -0.0763 -0.1100 -0.4109
   15POPC   C2B  551   8.092   4.173   7.931  0.0720 -0.2814  0.0989
   15POPC   C3B  552   7.878   4.299   7.589  0.0359  0.2012  0.0406
   15POPC   C4B  553   7.667   4.564   7.308 -0.2790  0.0154 -0.1251
   16POPC   NC3  554   5.887   6.325   9.010  0.1999 -0.0796  0.1997
   16POPC   PO4  555   5.831   6.323   8.513  0.0699 -0.1843  0.0764
   16POPC   GL1  556   5.952   6.448   8.084  0.5419  0.0024  0.0679
   16POPC   GL2  557   6.096   6.216   7.888 -0.1482  0.0191 -0.1902
   16POPC   C1A  558   6.088   6.665   7.606  0.1850 -0.4350  0.5915
   16POPC   D2A  559   6.285   6.940   7.408  0.1733 -0.0053 -0.0185
   16POPC   C3A  560   6.346   7.265   7.122 -0.1890 -0.2818 -0.1219
   16POPC   C4A  561   6.342   7.611   6.812 -0.0574 -0.0040  0.1825
   16POPC   C1B  562   6.225   6.161   7.417 -0.0166  0.0509  0.1741
   16POPC   C2B  563   6.402   6.058   6.987  0.1716  0.0510  0.1169
   16POPC   C3B  564   6.732   5.878   6.701  0.1508  0.2680  0.0946
   16POPC   C4B  565   7.116   5.714   6.854  0.3204  0.2849  0.1494
   17POPC   NC3  566   2.381   0.832   8.532  0.0369  0.0495  0.2769
   17POPC   PO4  567   2.479   1.188   8.219 -0.1878  0.1353 -0.0737
   17POPC   GL1  568   2.347   1.134   7.851 -0.2344 -0.4497  0.0270
   17POPC   GL2  569   2.615   1.277   7.727  0.2434  0.0702  0.2755
   17POPC   C1A  570   2.171   1.161   7.443  0.2382  0.4060 -0.0343
   17POPC   D2A  571   2.070   1.314   7.042 -0.1426 -0.0568  0.4202
   17POPC   C3A  572   2.487   1.388   6.821 -0.0389  0.3418  0.4651
   17POPC   C4A  573   2.731   1.210   6.520  0.3634 -0.0190  0.1964
   17POPC   C1B  574   2.636   1.162   7.319 -0.2488 -0.2864  0.1510
   17POPC   C2B  575   2.577   0.924   6.989  0.0585 -0.4188  0.1423
   17POPC   C3B  576   2.812   0.646   6.815 -0.2486 -0.0343 -0.1316
   17POPC   C4B  577   3.093   0.291   6.701  0.0908 -0.0064  0.0053
   18POPC   NC3  578   1.993   6.776   8.693 -0.2542 -0.1701 -0.0084
   18POPC   PO4  579   2.184   7.282   8.679  0.0383  0.0588 -0.0343
   18POPC   GL1  580   2.048   7.195   8.342  0.1547  0.1466 -0.0385
   18POPC   GL2  581   2.001   7.440   8.159 -0.2315 -0.0855 -0.3970
   18POPC   C1A  582   1.920   6.894   7.862  0.2531  0.0494  0.0574
   18POPC   D2A  583   1.717   6.771   7.493  0.1525 -0.1662 -0.1132
   18POPC   C3A  584   1.895   6.437   7.316 -0.5084  0.2701  0.1279
   18POPC   C4A  585   2.018   6.248   6.901 -0.1396 -0.1340  0.1817
   18POPC   C1B  586   1.907   7.590   7.756  0.1393  0.1296  0.1819
   18POPC   C2B  587   1.981   7.781   7.394 -0.2146 -0.1865  0.0159
   18POPC   C3B  588   2.076   7.939   7.014  0.0735  0.0618 -0.1671
   18POPC   C4B  589   1.909   7.823   6.556 -0.1727 -0.3677 -0.0162
   19POPC   NC3  590   2.976   5.624   8.523 -0.2242 -0.2555 -0.1865
   19POPC   PO4  591   2.602   5.365   8.607 -0.0560  0.4745  0.3254
   19POPC   GL1  592   2.583   5.039   8.228 -0.0394  0.0709  0.3941
   19POPC   GL2  593   2.322   4.861   8.235 -0.2436 -0.3230 -0.0001
   19POPC   C1A  594   2.773   5.113   7.846 -0.2064 -0.1081  0.0859
   19POPC   D2A  595   2.743   5.251   7.468 -0.2648 -0.0675 -0.2101
   19POPC   C3A  596   2.896   5.550   7.435  0.3134 -0.1075  0.2294
   19POPC   C4A  597   2.782   5.891   7.185  0.0834 -0.1771  0.0407
   19POPC   C1B  598   2.565   4.601   7.827 -0.0120  0.0538 -0.4832
   19POPC   C2B  599   2.796   4.751   7.506 -0.1692 -0.2531  0.0051
   19POPC   C3B  600   3.145   4.619   7.335 -0.3080 -0.0745  0.4009
   19POPC   C4B  601   3.521   4.618   7.251  0.0158  0.0081 -0.1054
   20POPC   NC3  602   0.291   2.841   9.133 -0.3030  0.1931  0.1686
   20POPC   PO4  603   0.261   3.243   8.895 -0.0429 -0.0048  0.4011
   20POPC   GL1  604   0.321   3.230   8.397 -0.0932 -0.1862 -0.2916
   20POPC   GL2  605   0.473   2.864   8.397 -0.0662 -0.2654  0.0448
   20POPC   C1A  606   0.351   2.884   7.962 -0.1365  0.1084 -0.0987
   20POPC   D2A  607   0.664   2.838   7.705  0.3363 -0.3820  0.0660
   20POPC   C3A  608   0.455   2.653   7.336  0.1133 -0.2445 -0.1439
   20POPC   C4A  609   0.243   2.418   6.892 -0.0337 -0.3158 -0.1915
   20POPC   C1B  610  -0.034   2.926   8.279  0.0098  0.1135  0.0359
   20POPC   C2B  611  -0.175   2.979   7.881 -0.1024  0.2334 -0.1171
   20POPC   C3B  612   0.038   2.843   7.560  0.0503  0.2764 -0.0458
   20POPC   C4B  613   0.132   3.005   7.185 -0.1887  0.2067  0.0056
   21POPC   NC3  614   4.624   0.007   7.939  0.0977 -0.0040 -0.1670
   21POPC   PO4  615   4.704  -0.417   8.068  0.2277 -0.1347 -0.4460
   21POPC   GL1  616   4.818  -0.451   7.722  0.0068  0.0138 -0.0752
   21POPC   GL2  617   4.970  -0.124   7.614  0.2856 -0.2854 -0.0187
   21POPC   C1A  618   4.777  -0.402   7.320  0.2052  0.0510 -0.0018
   21POPC   D2A  619   4.896  -0.665   6.998 -0.1293  0.0257  0.2587
   21POPC   C3A  620   4.633  -0.938   6.649 -0.1450 -0.1730 -0.1110
   21POPC   C4A  621   4.429  -1.305   6.513 -0.2473  0.2557  0.0807
   21POPC   C1B  622   4.919   0.151   7.351  0.1151 -0.1132  0.2465
   21POPC   C2B  623   4.853   0.125   6.868  0.0163  0.3613 -0.2278
   21POPC   C3B  624   4.821   0.306   6.504 -0.1709 -0.3331  0.1853
   21POPC   C4B  625   5.248   0.279   6.191  0.1065 -0.1732 -0.5132
   22POPC   NC3  626   9.193   5.841   8.323 -0.2640 -0.1918 -0.0843
   22POPC   PO4  627   9.648   5.712   8.199  0.0121 -0.2765 -0.1996
   22POPC   GL1  628   9.895   5.769   7.838  0.3677 -0.1123  0.1121
   22POPC   GL2  629  10.126   5.550   7.807 -0.2238 -0.0337  0.1554
   22POPC   C1A  630   9.842   5.947   7.457 -0.1185  0.0086 -0.1170
   22POPC   D2A  631   9.816   6.182   7.164 -0.2631 -0.4843 -0.1826
   22POPC   C3A  632   9.621   6.269   6.807 -0.3757 -0.1352  0.0990
   22POPC   C4A  633   9.231   6.054   6.669  0.1876  0.0260 -0.1958
   22POPC   C1B  634   9.853   5.465   7.403 -0.1493  0.0399  0.0860
   22POPC   C2B  635   9.628   5.202   7.135 -0.0785 -0.1448 -0.1325
   22POPC   C3B  636   9.796   5.263   6.756  0.1895  0.0905 -0.0989
   22POPC   C4B  637  10.003   4.978   6.368  0.2114  0.2514 -0.1071
   23POPC   NC3  638   1.012   7.270   8.338  0.0522  0.0033  0.1915
   23POPC   PO4  639   1.162   7.629   8.461  0.1086 -0.4175  0.1874
   23POPC   GL1  640   0.968   7.767   8.068 -0.2344  0.0992 -0.0789
   23POPC   GL2  641   1.226   7.995   7.751 -0.1382  0.2985  0.0136
   23POPC   C1A  642   0.923   7.570   7.703 -0.0147 -0.0455  0.0811
   23POPC   D2A  643   1.057   7.353   7.442  0.0666 -0.1073 -0.1518
   23POPC   C3A  644   0.813   7.108   7.203  0.1001  0.1515  0.3460
   23POPC   C4A  645   0.891   6.978   6.799  0.1699 -0.1431  0.2064
   23POPC   C1B  646   1.199   7.848   7.310  0.1016  0.2185  0.0043
   23POPC   C2B  647   1.058   8.083   6.958 -0.1431 -0.1452 -0.0791
   23POPC   C3B  648   1.223   8.143   6.539  0.0042 -0.0948  0.2858
   23POPC   C4B  649   1.603   8.310   6.239 -0.3408  0.4437  0.1857
   24POPC   NC3  650   3.648   8.891   8.229 -0.0261  0.2747  0.2708
   24POPC   PO4  651   3.240   8.811   8.264  0.0614  0.1044 -0.1234
   24POPC   GL1  652   2.929   8.560   7.919  0.0870 -0.0789  0.2169
   24POPC   GL2  653   2.831   8.218   7.885  0.1531 -0.0979 -0.0285
   24POPC   C1A  654   2.780   8.625   7.579 -0.0732 -0.0744  0.2399
   24POPC   D2A  655   2.588   8.515   7.205 -0.0432 -0.3299  0.0521
   24POPC   C3A  656   2.135   8.448   7.065 -0.1219 -0.1886 -0.0671
   24POPC   C4A  657   1.817   8.488   7.142 -0.2324 -0.0426 -0.1497
   24POPC   C1B  658   3.104   8.269   7.508  0.0249 -0.1190 -0.1162
   24POPC   C2B  659   3.147   8.657   7.275  0.3966  0.0128  0.2671
   24POPC   C3B  660   3.297   8.923   7.030 -0.1097  0.0235  0.1940
   24POPC   C4B  661   3.385   9.034   6.645  0.2437  0.3122  0.1488
   25POPC   NC3  662   5.675   9.053   8.564 -0.0761 -0.3030  0.0264
   25POPC   PO4  663   5.577   9.314   8.318  0.2946  0.0098 -0.0480
   25POPC   GL1  664   5.703   9.330   7.966  0.1033 -0.0755  0.1483
   25POPC   GL2  665   5.479   9.307   7.716  0.0116  0.0164 -0.2722
   25POPC   C1A  666   5.922   9.487   7.540  0.1180  0.1048 -0.4042
   25POPC   D2A  667   5.744   9.501   7.079  0.0211  0.0224  0.3664
   25POPC   C3A  668   5.719   9.083   6.833 -0.1029  0.0308  0.1319
   25POPC   C4A  669   5.875   8.808   6.511 -0.2669 -0.0461 -0.3828
   25POPC   C1B  670   5.399   9.616   7.400 -0.1690  0.2838  0.0920
   25POPC   C2B  671   5.323   9.865   6.969  0.0946  0.2058  0.0077
   25POPC   C3B  672   5.297  10.195   6.670 -0.1214  0.1705  0.1012
   25POPC   C4B  673   5.248  10.714   6.668  0.0537 -0.7824  0.1422
   26POPC   NC3  674   2.994   6.652   8.431  0.0570 -0.1840 -0.1132
   26POPC   PO4  675   3.362   6.482   8.463  0.0864  0.1660 -0.0646
   26POPC   GL1  676   3.260   6.452   8.045  0.0725  0.2448 -0.0939
   26POPC   GL2  677   3.441   6.455   7.731  0.1890  0.0033 -0.3376
   26POPC   C1A  678   2.936   6.425   7.705  0.3450  0.2110 -0.2376
   26POPC   D2A  679   2.547   6.354   7.388 -0.2177 -0.0686 -0.0159
   26POPC   C3A  680   2.508   6.280   7.036 -0.0338  0.1599  0.1487
   26POPC   C4A  681   2.403   5.954   6.734 -0.0086  0.0853  0.2509
   26POPC   C1B  682   3.504   6.513   7.293  0.1331 -0.1206 -0.0179
   26POPC   C2B  683   3.715   6.254   6.964 -0.1526 -0.1520  0.2551
   26POPC   C3B  684   3.841   6.232   6.600  0.0180  0.1621  0.1385
   26POPC   C4B  685   3.940   6.273   6.254  0.0768  0.0058  0.0283
   27POPC   NC3  686   8.983   5.282   9.074 -0.1734  0.2213 -0.3843
   27POPC   PO4  687   8.961   5.586   8.645 -0.2363 -0.6365  0.0199
   27POPC   GL1  688   8.733   5.500   8.198 -0.0154  0.1479  0.1053
   27POPC   GL2  689   8.840   5.708   7.923 -0.0369  0.0535 -0.0042
   27POPC   C1A  690   8.464   5.160   7.995  0.3109  0.2721 -0.1716
   27POPC   D2A  691   8.138   4.923   7.871  0.0356 -0.4310  0.0583
   27POPC   C3A  692   7.871   4.953   7.514 -0.2639  0.0671  0.1543
   27POPC   C4A  693   7.777   5.231   7.220  0.0606  0.2039 -0.1757
   27POPC   C1B  694   8.759   5.435   7.527  0.1578  0.1424 -0.2468
   27POPC   C2B  695   8.713   5.374   7.140  0.0641 -0.3214 -0.2635
   27POPC   C3B  696   9.091   5.189   6.841  0.2117 -0.0667  0.0868
   27POPC   C4B  697   9.029   4.717   6.667 -0.0698 -0.0655  0.0181
   28POPC   NC3  698   5.489   5.171   8.690  0.1005 -0.1547 -0.2632
   28POPC   PO4  699   5.889   5.069   8.582  0.0647 -0.1507 -0.0389
   28POPC   GL1  700   6.128   5.017   8.233  0.0130 -0.2548 -0.3029
   28POPC   GL2  701   6.086   4.803   8.094  0.2336  0.0259 -0.1872
   28POPC   C1A  702   6.596   5.060   8.115 -0.0074  0.1397 -0.1293
   28POPC   D2A  703   6.975   5.127   8.359  0.1057  0.3679  0.0551
   28POPC   C3A  704   7.320   4.833   8.273  0.1707 -0.2303  0.1084
   28POPC   C4A  705   7.371   4.388   8.164 -0.2300  0.1551 -0.2825
   28POPC   C1B  706   6.107   5.181   7.777  0.0441 -0.3703 -0.0998
   28POPC   C2B  707   5.940   5.267   7.337 -0.0728  0.0976  0.0634
   28POPC   C3B  708   5.545   5.271   7.074  0.1294  0.2399  0.4068
   28POPC   C4B  709   5.321   5.467   6.810 -0.3046  0.3637  0.2245
   29POPC   NC3  710   1.417   2.845   8.909  0.0625  0.3660  0.1283
   29POPC   PO4  711   1.270   3.015   8.588 -0.0363  0.0371  0.0625
   29POPC   GL1  712   1.249   3.151   8.125  0.0756  0.2080  0.1532
   29POPC   GL2  713   1.199   2.899   7.844  0.1680 -0.0219  0.0572
   29POPC   C1A  714   1.265   3.408   7.657 -0.0875 -0.2239 -0.0979
   29POPC   D2A  715   1.495   3.605   7.399  0.0924 -0.0226  0.2117
   29POPC   C3A  716   1.635   3.134   7.202  0.1823 -0.3191  0.1809
   29POPC   C4A  717   1.741   2.804   7.048 -0.2638  0.3208 -0.1220
   29POPC   C1B  718   1.036   2.957   7.360  0.1152 -0.1825  0.0953
   29POPC   C2B  719   0.734   2.918   7.050  0.4222 -0.0278  0.1887
   29POPC   C3B  720   0.695   3.333   6.800  0.1438  0.3672  0.0284
   29POPC   C4B  721   0.361   3.570   6.677 -0.0875 -0.2105  0.0405
   30POPC   NC3  722   7.933   7.772   8.338 -0.0927 -0.0577 -0.1212
   30POPC   PO4  723   8.332   8.087   8.449  0.2796 -0.0770 -0.1886
   30POPC   GL1  724   8.240   7.967   8.011  0.0717  0.0381 -0.0613
   30POPC   GL2  725   8.286   7.636   7.807  0.0598 -0.2481  0.0434
   30POPC   C1A  726   8.077   8.115   7.601  0.3088  0.0835 -0.1892
   30POPC   D2A  727   8.162   8.236   7.154  0.1041 -0.2954  0.4017
   30POPC   C3A  728   7.885   8.403   6.887  0.0706  0.1149  0.0180
   30POPC   C4A  729   7.641   8.651   7.193 -0.0299  0.0543 -0.1189
   30POPC   C1B  730   8.480   7.732   7.385 -0.0675  0.0347  0.3322
   30POPC   C2B  731   8.551   7.932   6.976  0.2139 -0.1943 -0.1134
   30POPC   C3B  732   8.594   7.893   6.535 -0.1708 -0.1746 -0.2795
   30POPC   C4B  733   8.465   7.842   6.231 -0.0171  0.2571 -0.3655
   31POPC   NC3  734   8.728   8.314   8.184 -0.0810 -0.0914 -0.2976
   31POPC   PO4  735   8.342   8.508   8.131 -0.0923  0.3031  0.0038
   31POPC   GL1  736   8.429   8.576   7.771  0.0806  0.1353  0.0772
   31POPC   GL2  737   8.748   8.469   7.723  0.1259 -0.0949  0.0190
   31POPC   C1A  738   8.605   8.321   7.308 -0.2231  0.0227  0.0146
   31POPC   D2A  739   8.892   8.358   7.027 -0.2425  0.1137 -0.1872
   31POPC   C3A  740   9.040   8.153   6.623  0.0423  0.0774  0.4285
   31POPC   C4A  741   8.925   7.994   6.157 -0.0770  0.1305 -0.4067
   31POPC   C1B  742   8.688   8.925   7.514 -0.2412 -0.0290 -0.2529
   31POPC   C2B  743   8.398   9.155   7.223  0.1145  0.3662  0.0351
   31POPC   C3B  744   8.388   9.184   6.761  0.0525 -0.1528 -0.1813
   31POPC   C4B  745   8.453   9.454   6.405 -0.1121 -0.2825  0.2164
   32POPC   NC3  746   8.731   3.968   9.271 -0.1885 -0.0147 -0.0939
   32POPC   PO4  747   8.349   3.771   9.555 -0.0195 -0.2895 -0.0600
   32POPC   GL1  748   8.146   3.622   9.215  0.0555  0.2643  0.0208
   32POPC   GL2  749   8.179   3.921   8.988  0.0040  0.1468 -0.2708
   32POPC   C1A  750   8.297   3.225   8.924  0.3544 -0.0993 -0.0337
   32POPC   D2A  751   8.672   3.158   8.650  0.0781  0.1827 -0.0728
   32POPC   C3A  752   8.898   3.466   8.487 -0.3459 -0.2937 -0.3382
   32POPC   C4A  753   8.552   3.722   8.413 -0.0545 -0.1061 -0.1849
   32POPC   C1B  754   8.030   3.618   8.634  0.2522 -0.1327  0.0438
   32POPC   C2B  755   7.738   3.491   8.343  0.3130  0.0280 -0.1696
   32POPC   C3B  756   7.696   3.795   7.905  0.1759  0.3437 -0.0417
   32POPC   C4B  757   7.892   3.764   7.641  0.0080 -0.1090 -0.0836
   33POPC   NC3  758   3.338   4.769   8.978  0.0011  0.1592 -0.0113
   33POPC   PO4  759   2.952   5.063   8.983  0.1344  0.2308 -0.3732
   33POPC   GL1  760   2.967   4.936   8.549 -0.2684 -0.0100  0.1147
   33POPC   GL2  761   3.110   5.116   8.319 -0.0315 -0.1785 -0.1950
   33POPC   C1A  762   3.050   4.694   8.040  0.1056 -0.3626 -0.2390
   33POPC   D2A  763   3.070   4.329   7.859  0.2281  0.0644 -0.1124
   33POPC   C3A  764   2.941   4.175   7.459 -0.0144 -0.0188 -0.0098
   33POPC   C4A  765   2.793   4.090   7.188 -0.0434  0.0027  0.0729
   33POPC   C1B  766   3.378   5.144   7.995  0.0488  0.1475 -0.1845
   33POPC   C2B  767   3.202   5.064   7.586 -0.1085  0.0178  0.0296
   33POPC   C3B  768   3.064   5.105   7.102 -0.0089  0.0831  0.1382
   33POPC   C4B  769   2.894   5.529   6.894  0.0195  0.1663 -0.0369
   34POPC   NC3  770   3.599   3.032   8.384 -0.2938 -0.1580 -0.0427
   34POPC   PO4  771   3.330   2.712   8.305 -0.3594 -0.0444 -0.2078
   34POPC   GL1  772   3.172   2.798   8.003  0.0214 -0.0656 -0.4845
   34POPC   GL2  773   2.910   2.876   7.878 -0.0892  0.5348 -0.3562
   34POPC   C1A  774   3.391   2.727   7.634  0.1756  0.1050  0.0707
   34POPC   D2A  775   3.617   2.888   7.411 -0.0348  0.0209  0.3039
   34POPC   C3A  776   3.693   2.824   6.968  0.1990 -0.0081 -0.2187
   34POPC   C4A  777   3.997   2.676   6.579 -0.1943 -0.0968  0.1124
   34POPC   C1B  778   3.032   3.022   7.347  0.1540 -0.1356  0.0010
   34POPC   C2B  779   3.101   2.661   7.100 -0.0258 -0.4167  0.0100
   34POPC   C3B  780   3.321   2.577   6.718  0.0250 -0.0460 -0.1265
   34POPC   C4B  781   3.511   2.838   6.440 -0.2471 -0.1285 -0.3918
   35POPC   NC3  782   7.374   3.124   9.846 -0.2676 -0.1659 -0.0213
   35POPC   PO4  783   7.036   2.876   9.644  0.0623  0.1697  0.0264
   35POPC   GL1  784   6.853   2.827   9.265 -0.1665  0.0290 -0.1193
   35POPC   GL2  785   6.500   3.058   9.222  0.1066 -0.0593  0.0276
   35POPC   C1A  786   6.992   2.774   8.839  0.2961 -0.0726 -0.1506
   35POPC   D2A  787   6.962   3.069   8.528  0.0815  0.2546 -0.2754
   35POPC   C3A  788   7.044   3.083   8.152  0.2468 -0.0896 -0.1137
   35POPC   C4A  789   7.437   3.147   7.912 -0.1781 -0.1247  0.2375
   35POPC   C1B  790   6.852   3.326   8.968  0.0129  0.1787 -0.6398
   35POPC   C2B  791   6.718   3.591   8.685  0.2115  0.0862  0.0074
   35POPC   C3B  792   6.746   3.596   8.244  0.2283  0.2783  0.0653
   35POPC   C4B  793   6.690   3.774   7.826 -0.0840 -0.1684 -0.0963
   36POPC   NC3  794   8.344   2.354   9.831  0.5026  0.2391  0.2361
   36POPC   PO4  795   7.943   2.473   9.724  0.1779  0.1921  0.1103
   36POPC   GL1  796   8.157   2.502   9.371 -0.0204  0.0060 -0.0121
   36POPC   GL2  797   8.040   2.734   9.249 -0.1809 -0.0696  0.2801
   36POPC   C1A  798   8.224   2.369   8.864  0.2167  0.0784  0.2124
   36POPC   D2A  799   8.276   2.074   8.564  0.4259 -0.3280  0.2562
   36POPC   C3A  800   8.119   1.840   8.242 -0.0435 -0.1287  0.3306
   36POPC   C4A  801   7.891   1.617   7.945  0.1628  0.0659  0.0428
   36POPC   C1B  802   7.889   3.136   9.253 -0.0721 -0.0279  0.1757
   36POPC   C2B  803   7.671   3.524   8.993 -0.4408 -0.1197 -0.0649
   36POPC   C3B  804   7.682   3.892   8.692 -0.1174 -0.2208 -0.3048
   36POPC   C4B  805   7.645   4.098   8.381 -0.0402 -0.0794  0.0648
   37POPC   NC3  806   3.719   4.138   8.616 -0.2058 -0.2179  0.2395
   37POPC   PO4  807   4.099   4.461   8.630 -0.2253  0.0733  0.2907
   37POPC   GL1  808   3.909   4.647   8.218 -0.2366 -0.2651  0.0207
   37POPC   GL2  809   3.747   4.764   8.134  0.0930 -0.0161  0.0256
   37POPC   C1A  810   4.181   4.691   7.802  0.2574  0.3919  0.0858
   37POPC   D2A  811   4.089   4.751   7.302 -0.1277 -0.0167 -0.2515
   37POPC   C3A  812   3.882   4.822   6.897  0.0778  0.2082  0.3281
   37POPC   C4A  813   4.080   4.810   6.458  0.1436  0.0887  0.0820
   37POPC   C1B  814   3.734   5.036   7.697 -0.0477  0.1740  0.0954
   37POPC   C2B  815   3.722   5.148   7.355  0.1914 -0.1824 -0.0776
   37POPC   C3B  816   3.810   5.310   6.988  0.3796 -0.0664  0.0825
   37POPC   C4B  817   3.961   5.730   6.718  0.0834 -0.0234  0.1052
   38POPC   NC3  818   5.698   7.994   8.569 -0.0603 -0.2316  0.0916
   38POPC   PO4  819   5.907   7.742   8.847  0.2888  0.1386 -0.2024
   38POPC   GL1  820   5.837   7.508   8.419  0.0407 -0.2038 -0.0472
   38POPC   GL2  821   5.641   7.438   8.126  0.0125 -0.0907 -0.1207
   38POPC   C1A  822   6.082   7.668   8.087 -0.2115 -0.0463 -0.0405
   38POPC   D2A  823   6.208   8.037   7.739 -0.0654 -0.0252  0.1652
   38POPC   C3A  824   6.561   8.285   7.719 -0.1055  0.0015 -0.0377
   38POPC   C4A  825   7.053   8.275   7.711  0.1948  0.3107 -0.0476
   38POPC   C1B  826   5.700   7.556   7.693  0.0568 -0.0349 -0.0334
   38POPC   C2B  827   5.283   7.666   7.436 -0.0778 -0.2449 -0.2194
   38POPC   C3B  828   5.021   7.736   7.117 -0.1540 -0.0780 -0.0311
   38POPC   C4B  829   4.674   7.467   6.853  0.4150 -0.2816 -0.0181
   39POPC   NC3  830   7.497   5.638   8.447 -0.0818  0.1718  0.0127
   39POPC   PO4  831   7.354   6.029   8.430  0.0162 -0.1371 -0.0990
   39POPC   GL1  832   7.463   6.046   7.930 -0.0826 -0.1066  0.4103
   39POPC   GL2  833   7.168   6.093   7.701 -0.0910  0.0016 -0.1321
   39POPC   C1A  834   7.712   6.181   7.574 -0.2263  0.1206 -0.0715
   39POPC   D2A  835   7.689   6.405   7.241 -0.0604 -0.0866  0.1697
   39POPC   C3A  836   7.906   6.341   6.837  0.1417  0.1646  0.0533
   39POPC   C4A  837   7.837   6.606   6.467 -0.0176  0.1735 -0.0291
   39POPC   C1B  838   7.320   6.009   7.254  0.0833 -0.0327  0.0564
   39POPC   C2B  839   7.481   6.097   6.820  0.0453 -0.1536 -0.1188
   39POPC   C3B  840   7.786   5.997   6.499 -0.0261 -0.2376 -0.0717
   39POPC   C4B  841   8.021   5.600   6.388  0.2632 -0.0666  0.1434
   40POPC   NC3  842   8.692   1.979   9.552  0.1694  0.1023 -0.3268
   40POPC   PO4  843   8.986   1.750   9.565  0.0507 -0.0605 -0.0312
   40POPC   GL1  844   8.821   1.837   9.103  0.0936  0.4783 -0.0991
   40POPC   GL2  845   8.482   1.690   8.873 -0.2527  0.1905  0.1562
   40POPC   C1A  846   8.693   2.218   8.852  0.0501  0.1296  0.2785
   40POPC   D2A  847   8.869   2.553   8.518 -0.1949  0.1519  0.2368
   40POPC   C3A  848   8.638   2.484   8.192  0.0542  0.0969  0.2775
   40POPC   C4A  849   8.414   2.181   7.965 -0.3285 -0.1458  0.1784
   40POPC   C1B  850   8.362   1.479   8.462 -0.1758 -0.0449  0.2246
   40POPC   C2B  851   8.431   1.331   8.008  0.0694  0.0377  0.2620
   40POPC   C3B  852   8.562   1.198   7.551 -0.1764  0.2117 -0.2136
   40POPC   C4B  853   8.437   1.241   7.074 -0.2084  0.0304 -0.1217
   41POPC   NC3  854   5.067   4.307   8.642 -0.0879  0.1309 -0.3577
   41POPC   PO4  855   5.408   4.226   8.751  0.0077 -0.1732 -0.0116
   41POPC   GL1  856   5.525   4.247   8.296  0.3243  0.2217 -0.0967
   41POPC   GL2  857   5.438   4.096   8.141 -0.0018  0.1932 -0.2456
   41POPC   C1A  858   5.699   4.523   8.066 -0.1624  0.1578  0.0857
   41POPC   D2A  859   5.832   4.749   7.597 -0.1461  0.4310 -0.2860
   41POPC   C3A  860   6.196   4.486   7.314  0.0635 -0.1044  0.3652
   41POPC   C4A  861   6.177   4.196   6.992  0.0918  0.1740  0.0926
   41POPC   C1B  862   5.212   3.850   7.887 -0.3664 -0.5088  0.1761
   41POPC   C2B  863   5.191   3.751   7.383 -0.0049  0.5029 -0.1712
   41POPC   C3B  864   5.217   3.662   6.914  0.2840  0.1637  0.1418
   41POPC   C4B  865   5.073   3.825   6.604  0.2899 -0.0737  0.2718
   42POPC   NC3  866   4.953   0.434   8.443  0.3268 -0.3078  0.1909
   42POPC   PO4  867   4.697   0.774   8.307  0.3927 -0.2788  0.1620
   42POPC   GL1  868   4.524   0.731   7.915  0.1918  0.2304 -0.0336
   42POPC   GL2  869   4.627   0.502   7.808 -0.3567  0.2212 -0.1784
   42POPC   C1A  870   4.455   0.905   7.609  0.1789 -0.2848  0.4305
   42POPC   D2A  871   4.344   0.873   7.138  0.0223  0.2352 -0.5439
   42POPC   C3A  872   4.243   0.478   6.916  0.0250 -0.2522 -0.0903
   42POPC   C4A  873   3.986   0.185   6.952  0.0759 -0.1265 -0.2507
   42POPC   C1B  874   4.640   0.572   7.376  0.1097  0.3338  0.2460
   42POPC   C2B  875   4.852   0.648   6.943 -0.0586  0.0007 -0.1961
   42POPC   C3B  876   4.600   0.712   6.606 -0.2943  0.0357  0.0450
   42POPC   C4B  877   4.143   0.672   6.471  0.3012  0.0953 -0.2216
   43POPC   NC3  878   5.349   6.698   8.326  0.1422 -0.0263  0.2427
   43POPC   PO4  879   5.264   7.197   8.316 -0.1021 -0.2552 -0.1609
   43POPC   GL1  880   5.131   7.104   7.982  0.0240  0.3417 -0.0079
   43POPC   GL2  881   5.289   6.857   7.843 -0.1039  0.2710  0.0962
   43POPC   C1A  882   5.071   7.251   7.625 -0.3162  0.1465  0.0807
   43POPC   D2A  883   5.038   7.229   7.209  0.0872 -0.2870  0.2374
   43POPC   C3A  884   5.297   6.967   6.944  0.3182 -0.0986  0.1176
   43POPC   C4A  885   5.423   6.585   6.908 -0.1379  0.1626  0.0450
   43POPC   C1B  886   5.415   6.886   7.414  0.0134 -0.2495 -0.0794
   43POPC   C2B  887   5.831   6.813   7.107  0.2719 -0.1070  0.0735
   43POPC   C3B  888   6.006   6.921   6.765  0.0888 -0.0607  0.1506
   43POPC   C4B  889   6.380   6.913   6.755 -0.0639 -0.2204 -0.1466
   44POPC   NC3  890   7.502   2.244   9.810 -0.1587 -0.0281 -0.2399
   44POPC   PO4  891   7.636   1.825   9.576 -0.1867  0.1688 -0.2509
   44POPC   GL1  892   7.687   2.186   9.337 -0.1365  0.0637 -0.0986
   44POPC   GL2  893   7.858   2.126   9.127  0.0567  0.2661 -0.1878
   44POPC   C1A  894   7.586   2.622   9.064 -0.1268 -0.0490 -0.0905
   44POPC   D2A  895   7.519   2.995   8.877  0.1077 -0.1090  0.1400
   44POPC   C3A  896   7.863   3.115   8.700 -0.0819 -0.1701  0.2177
   44POPC   C4A  897   8.264   3.267   8.385  0.1467  0.1629 -0.0806
   44POPC   C1B  898   7.740   2.251   8.664 -0.1897  0.2733 -0.0433
   44POPC   C2B  899   7.849   2.668   8.532  0.0525  0.0611  0.0338
   44POPC   C3B  900   8.032   2.871   8.104  0.1545  0.2105  0.1581
   44POPC   C4B  901   8.352   2.719   7.832  0.0595  0.0878  0.3470
   45POPC   NC3  902   2.322   7.710   8.414  0.1545  0.2066  0.0894
   45POPC   PO4  903   2.506   7.985   8.504 -0.1804  0.0688  0.0283
   45POPC   GL1  904   2.370   8.119   8.087 -0.2536 -0.3199  0.1797
   45POPC   GL2  905   2.228   7.854   7.957 -0.0963  0.0905 -0.0153
   45POPC   C1A  906   2.439   8.163   7.667 -0.0532  0.0070  0.1634
   45POPC   D2A  907   2.511   7.957   7.182  0.2274  0.2132  0.1751
   45POPC   C3A  908   2.468   8.151   6.820 -0.0396  0.0406  0.0845
   45POPC   C4A  909   2.618   8.481   6.678  0.1264  0.1529  0.1135
   45POPC   C1B  910   2.462   7.680   7.636 -0.0521 -0.3643  0.5394
   45POPC   C2B  911   2.524   7.464   7.279 -0.0655 -0.2348 -0.2678
   45POPC   C3B  912   2.595   7.196   6.914 -0.1045  0.0318 -0.4392
   45POPC   C4B  913   2.822   6.755   6.729 -0.0051 -0.1537  0.0068
   46POPC   NC3  914   0.444   5.732   8.332 -0.1481  0.0361 -0.2488
   46POPC   PO4  915   0.754   5.787   8.648 -0.1358  0.1469 -0.0298
   46POPC   GL1  916   0.996   5.919   8.153  0.0447  0.0770  0.0507
   46POPC   GL2  917   0.708   5.988   7.948  0.2146 -0.0586  0.2253
   46POPC   C1A  918   1.230   5.999   7.776 -0.1563  0.0142 -0.1537
   46POPC   D2A  919   1.189   6.034   7.326 -0.0918 -0.0944 -0.0272
   46POPC   C3A  920   0.974   5.787   7.014  0.0776  0.0319  0.0944
   46POPC   C4A  921   0.843   5.678   6.691  0.1096  0.3014  0.0189
   46POPC   C1B  922   0.846   5.789   7.525 -0.0261  0.2575 -0.0602
   46POPC   C2B  923   0.550   5.739   7.215 -0.1824  0.3210 -0.0246
   46POPC   C3B  924   0.498   5.478   6.960 -0.0822 -0.2124  0.0649
   46POPC   C4B  925   0.577   5.105   6.723  0.0802  0.1375 -0.0929
   47POPC   NC3  926   6.561   1.318   9.933 -0.0850  0.0794  0.0355
   47POPC   PO4  927   6.380   1.306   9.498 -0.2372  0.0917  0.0878
   47POPC   GL1  928   6.318   1.634   9.295 -0.0414  0.1317 -0.1613
   47POPC   GL2  929   6.216   1.645   9.023  0.0425 -0.0687 -0.0991
   47POPC   C1A  930   6.630   1.923   9.157 -0.0104  0.2968  0.3047
   47POPC   D2A  931   6.946   1.890   8.803 -0.0159 -0.4386 -0.1020
   47POPC   C3A  932   7.210   1.478   8.726  0.3588  0.0523 -0.1651
   47POPC   C4A  933   7.482   1.219   8.612 -0.3653 -0.4279 -0.5853
   47POPC   C1B  934   6.442   1.791   8.706  0.1961 -0.0337  0.2747
   47POPC   C2B  935   6.773   1.997   8.327  0.0800  0.0859  0.0213
   47POPC   C3B  936   6.873   2.143   8.100 -0.1484 -0.0058 -0.0530
   47POPC   C4B  937   6.892   2.316   7.757  0.0988  0.0871  0.1880
   48POPC   NC3  938   3.174   3.703   8.938 -0.0994 -0.2876  0.2273
   48POPC   PO4  939   3.254   4.036   8.677  0.4933 -0.1264 -0.1268
   48POPC   GL1  940   3.356   3.994   8.275 -0.2385  0.3197  0.0780
   48POPC   GL2  941   3.478   4.214   8.091  0.0777 -0.0273  0.1245
   48POPC   C1A  942   3.273   3.712   7.966  0.0979 -0.2297  0.1293
   48POPC   D2A  943   3.250   3.756   7.652 -0.2675  0.1368  0.0855
   48POPC   C3A  944   3.451   4.157   7.589 -0.1172 -0.3015  0.0229
   48POPC   C4A  945   3.446   4.653   7.730  0.0977  0.1423  0.1401
   48POPC   C1B  946   3.839   4.321   7.796 -0.2416  0.0920 -0.2487
   48POPC   C2B  947   4.077   4.268   7.365  0.1584  0.1263 -0.0417
   48POPC   C3B  948   3.770   4.126   7.102 -0.1825  0.2186 -0.2802
   48POPC   C4B  949   3.314   4.216   7.092  0.0048  0.0926  0.0176
   49POPC   NC3  950   1.194   6.400   8.369  0.1288  0.1852  0.1685
   49POPC   PO4  951   1.184   6.838   8.430 -0.0676  0.0293 -0.2735
   49POPC   GL1  952   1.180   6.817   8.050  0.0332 -0.0563  0.1813
   49POPC   GL2  953   1.049   6.447   7.857  0.2190 -0.2209 -0.1126
   49POPC   C1A  954   1.363   7.041   7.700  0.2843 -0.0121 -0.3006
   49POPC   D2A  955   1.500   7.391   7.315  0.0397 -0.1105  0.1494
   49POPC   C3A  956   1.739   7.555   7.005  0.2592  0.1137 -0.0917
   49POPC   C4A  957   2.162   7.460   6.869 -0.0086 -0.2481  0.0917
   49POPC   C1B  958   1.287   6.541   7.517 -0.3140  0.3352  0.1355
   49POPC   C2B  959   1.316   6.943   7.197 -0.2068 -0.0421  0.2764
   49POPC   C3B  960   1.369   7.111   6.731  0.0910  0.0885 -0.1815
   49POPC   C4B  961   1.329   7.348   6.395 -0.2118  0.0887 -0.1196
   50POPC   NC3  962   0.728   4.735   8.960 -0.1456 -0.1274 -0.0619
   50POPC   PO4  963   0.663   4.557   8.474  0.0411 -0.0658 -0.2115
   50POPC   GL1  964   0.559   4.474   7.991 -0.0732  0.1085 -0.0664
   50POPC   GL2  965   0.279   4.644   7.921  0.2863  0.2825  0.2576
   50POPC   C1A  966   0.568   4.448   7.440  0.0642 -0.0397  0.0659
   50POPC   D2A  967   0.527   4.364   7.050  0.2222  0.1682  0.0726
   50POPC   C3A  968   0.245   4.090   6.796 -0.1542 -0.0566 -0.0539
   50POPC   C4A  969  -0.012   4.287   6.495 -0.0252 -0.0150 -0.1082
   50POPC   C1B  970   0.411   5.050   7.719 -0.1028 -0.0653  0.2347
   50POPC   C2B  971   0.640   5.147   7.433 -0.0863  0.4813  0.3043
   50POPC   C3B  972   0.946   5.367   7.202 -0.0262  0.1472  0.1020
   50POPC   C4B  973   1.012   5.247   6.819  0.0210 -0.2045  0.2104
   51POPC   NC3  974   0.676   6.207   8.402 -0.2488 -0.1012  0.0815
   51POPC   PO4  975   0.318   6.226   8.267  0.1645  0.0321 -0.1996
   51POPC   GL1  976   0.449   6.397   7.854 -0.3459 -0.2137 -0.1701
   51POPC   GL2  977   0.142   6.363   7.757  0.2662 -0.4960 -0.0412
   51POPC   C1A  978   0.623   6.217   7.493  0.0357 -0.1318  0.2397
   51POPC   D2A  979   0.662   6.193   7.095 -0.1412  0.0007  0.1506
   51POPC   C3A  980   0.415   6.009   6.796  0.1860 -0.0646  0.0476
   51POPC   C4A  981   0.194   6.162   6.370  0.1125 -0.3105  0.0135
   51POPC   C1B  982   0.282   6.663   7.503 -0.0071 -0.0462  0.0101
   51POPC   C2B  983   0.277   7.008   7.142 -0.1123 -0.1190 -0.1226
   51POPC   C3B  984   0.409   7.045   6.665  0.2939 -0.2138 -0.3251
   51POPC   C4B  985   0.432   7.007   6.242  0.2977 -0.2061  0.1169
   52POPC   NC3  986   3.844   5.660   8.132  0.2941 -0.1852 -0.1574
   52POPC   PO4  987   4.190   5.618   8.439  0.0405 -0.0416  0.2474
   52POPC   GL1  988   4.576   5.783   8.190  0.1453  0.0634 -0.2337
   52POPC   GL2  989   4.805   5.567   8.104 -0.1280  0.2236 -0.3467
   52POPC   C1A  990   4.518   5.945   7.822 -0.2024  0.0200 -0.3385
   52POPC   D2A  991   4.418   6.418   7.731 -0.1885  0.1351 -0.0875
   52POPC   C3A  992   4.535   6.480   7.374  0.2005 -0.1740  0.1185
   52POPC   C4A  993   4.980   6.609   7.166 -0.1938 -0.1794  0.2848
   52POPC   C1B  994   4.941   5.696   7.673 -0.4646  0.0400 -0.0863
   52POPC   C2B  995   4.861   6.096   7.492  0.1756 -0.2740 -0.0440
   52POPC   C3B  996   4.729   6.075   7.120 -0.3661 -0.2069  0.0549
   52POPC   C4B  997   4.625   6.419   6.861  0.4134  0.0984 -0.0882
   53POPC   NC3  998   3.737   8.746   8.683 -0.0820  0.1996  0.4350
   53POPC   PO4  999   4.163   8.722   8.431 -0.1441  0.2035 -0.1550
   53POPC   GL1 1000   4.187   8.872   8.056  0.0241  0.0315 -0.2765
   53POPC   GL2 1001   4.411   8.772   7.794  0.1662  0.1091  0.0527
   53POPC   C1A 1002   3.964   8.907   7.614  0.0597 -0.1413 -0.2578
   53POPC   D2A 1003   3.927   8.893   7.084 -0.1456 -0.1861  0.1595
   53POPC   C3A 1004   3.671   8.634   6.736 -0.2629 -0.0081  0.1656
   53POPC   C4A 1005   3.549   8.497   6.302  0.0512 -0.1808 -0.0510
   53POPC   C1B 1006   4.402   8.915   7.383 -0.0475  0.0054  0.0581
   53POPC   C2B 1007   4.370   9.061   7.066  0.0422 -0.0640 -0.1515
   53POPC   C3B 1008   4.498   9.221   6.677 -0.0146  0.0804  0.1763
   53POPC   C4B 1009   4.194   9.290   6.332 -0.1575 -0.2073  0.0938
   54POPC   NC3 1010   1.952   1.196   8.129 -0.0570  0.2428  0.1484
   54POPC   PO4 1011   1.725   1.558   8.166 -0.2256 -0.1886 -0.0408
   54POPC   GL1 1012   1.585   1.433   7.743 -0.0238 -0.0496  0.1979
   54POPC   GL2 1013   1.384   1.171   7.640 -0.0662 -0.4533 -0.0562
   54POPC   C1A 1014   1.762   1.592   7.370 -0.0143 -0.1550  0.2274
   54POPC   D2A 1015   1.655   1.614   6.882  0.1336 -0.0787 -0.2062
   54POPC   C3A 1016   1.416   1.279   6.682 -0.3634 -0.2955  0.0365
   54POPC   C4A 1017   1.177   1.128   6.240  0.1386  0.0811 -0.0032
   54POPC   C1B 1018   1.471   1.108   7.178  0.0249 -0.0224  0.1596
   54POPC   C2B 1019   1.541   0.818   6.808  0.3302  0.2502  0.3149
   54POPC   C3B 1020   1.749   0.491   6.542  0.0784 -0.1688  0.1486
   54POPC   C4B 1021   1.897   0.375   6.212  0.1269 -0.0535  0.2404
   55POPC   NC3 1022   6.091   2.807   9.962 -0.1774 -0.0681 -0.0383
   55POPC   PO4 1023   6.228   2.685   9.584  0.2502  0.0689 -0.1932
   55POPC   GL1 1024   6.446   2.493   9.249  0.2933  0.0301 -0.1159
   55POPC   GL2 1025   6.305   2.557   9.059  0.2162  0.0784 -0.1508
   55POPC   C1A 1026   6.825   2.362   9.010  0.4555  0.2749 -0.1474
   55POPC   D2A 1027   7.233   2.339   8.740 -0.1692 -0.0239  0.0920
   55POPC   C3A 1028   7.307   2.682   8.411  0.1462 -0.1399 -0.2189
   55POPC   C4A 1029   7.539   3.055   8.348  0.0710  0.3217 -0.0620
   55POPC   C1B 1030   6.511   2.813   8.780 -0.1694 -0.1338  0.2107
   55POPC   C2B 1031   6.520   3.004   8.358 -0.0636 -0.0667  0.2167
   55POPC   C3B 1032   6.275   3.291   8.135 -0.0499  0.4790  0.1149
   55POPC   C4B 1033   6.267   3.648   8.404  0.1211  0.0425 -0.1677
   56POPC   NC3 1034   6.617   0.423   9.015  0.1676 -0.0130 -0.1038
   56POPC   PO4 1035   6.426   0.235   8.629  0.0942  0.3128 -0.3082
   56POPC   GL1 1036   6.557   0.377   8.214  0.3255  0.1677 -0.1613
   56POPC   GL2 1037   6.350   0.564   8.080  0.0252 -0.0558  0.3248
   56POPC   C1A 1038   6.771   0.283   7.756 -0.1852 -0.1312 -0.0719
   56POPC   D2A 1039   6.741   0.122   7.256  0.4303 -0.0192  0.2589
   56POPC   C3A 1040   6.874  -0.128   6.866  0.1246  0.0227 -0.2161
   56POPC   C4A 1041   7.130  -0.017   6.575 -0.1148 -0.1977 -0.0220
   56POPC   C1B 1042   6.449   0.695   7.656  0.0688  0.3134 -0.2113
   56POPC   C2B 1043   6.881   0.705   7.508  0.1380  0.2003  0.0698
   56POPC   C3B 1044   7.120   0.571   7.100 -0.0599 -0.2579  0.0840
   56POPC   C4B 1045   7.135   0.678   6.649 -0.0890 -0.1446 -0.1028
   57POPC   NC3 1046   1.156   5.364   8.283  0.0982  0.1464 -0.1289
   57POPC   PO4 1047   0.827   5.456   8.196  0.3876 -0.3982  0.2896
   57POPC   GL1 1048   1.068   5.505   7.852  0.3118 -0.2039 -0.0624
   57POPC   GL2 1049   1.080   5.150   7.666  0.0699 -0.2910 -0.0642
   57POPC   C1A 1050   1.412   5.489   7.473  0.1427  0.0413 -0.1082
   57POPC   D2A 1051   1.544   5.483   7.077  0.0458  0.0619 -0.2165
   57POPC   C3A 1052   1.412   5.658   6.724  0.2274  0.2802  0.0729
   57POPC   C4A 1053   1.643   5.964   6.589  0.1152 -0.0317  0.4918
   57POPC   C1B 1054   0.987   4.813   7.423 -0.1042 -0.1216 -0.0752
   57POPC   C2B 1055   1.041   4.357   7.302 -0.1853 -0.4651  0.2645
   57POPC   C3B 1056   0.975   4.011   7.270 -0.2730 -0.0984 -0.0570
   57POPC   C4B 1057   0.645   3.778   7.084 -0.2942 -0.2881  0.0084
   58POPC   NC3 1058   0.869   3.284   8.440 -0.1003  0.1959  0.2043
   58POPC   PO4 1059   0.625   3.650   8.385  0.1552 -0.1471  0.0893
   58POPC   GL1 1060   0.289   3.718   8.065  0.2697 -0.0962 -0.0923
   58POPC   GL2 1061   0.464   3.974   7.762  0.0636 -0.2598 -0.0733
   58POPC   C1A 1062   0.106   3.417   7.846  0.0938 -0.4286 -0.2542
   58POPC   D2A 1063   0.277   3.257   7.546 -0.0973  0.0903  0.1746
   58POPC   C3A 1064   0.686   3.332   7.314  0.1364 -0.2339  0.1513
   58POPC   C4A 1065   1.073   3.471   7.147 -0.2488  0.1779 -0.0242
   58POPC   C1B 1066   0.294   3.739   7.456 -0.0833 -0.2117  0.1661
   58POPC   C2B 1067   0.163   3.529   7.120  0.3067  0.0616  0.0391
   58POPC   C3B 1068  -0.247   3.357   6.950 -0.0183 -0.0595 -0.3083
   58POPC   C4B 1069  -0.720   3.362   6.933 -0.4057 -0.1880 -0.0559
   59POPC   NC3 1070   4.607   4.387   8.833  0.2773  0.3367 -0.3009
   59POPC   PO4 1071   4.589   4.255   8.409 -0.1046 -0.2477 -0.0911
   59POPC   GL1 1072   4.916   4.338   8.028  0.3582 -0.1634  0.2015
   59POPC   GL2 1073   5.138   4.532   8.205  0.2421 -0.1727 -0.0645
   59POPC   C1A 1074   4.965   4.249   7.535 -0.1659 -0.0953  0.0329
   59POPC   D2A 1075   5.091   4.154   7.067 -0.2910  0.0862 -0.1208
   59POPC   C3A 1076   4.803   4.304   6.704 -0.2797  0.0212  0.1333
   59POPC   C4A 1077   4.536   4.481   6.421 -0.1837  0.3071  0.1176
   59POPC   C1B 1078   5.118   4.816   7.787 -0.1719 -0.0231 -0.2234
   59POPC   C2B 1079   5.381   4.679   7.431  0.1349 -0.1080  0.1486
   59POPC   C3B 1080   5.680   4.789   7.102 -0.0586 -0.1197  0.1127
   59POPC   C4B 1081   5.859   4.412   6.691 -0.0701  0.4838 -0.1591
   60POPC   NC3 1082   2.413   5.712   9.007  0.0219  0.0174  0.0832
   60POPC   PO4 1083   2.623   5.938   8.751 -0.1065 -0.2302  0.2369
   60POPC   GL1 1084   2.462   5.797   8.357 -0.2961 -0.2012 -0.0069
   60POPC   GL2 1085   2.550   5.621   8.132  0.0838 -0.1033 -0.1083
   60POPC   C1A 1086   2.117   5.895   8.097 -0.1138  0.0933 -0.1437
   60POPC   D2A 1087   1.832   5.767   7.855  0.1962  0.3437  0.0082
   60POPC   C3A 1088   2.037   5.544   7.529  0.1664 -0.0754 -0.0971
   60POPC   C4A 1089   1.963   5.232   7.132  0.2623 -0.3708  0.0132
   60POPC   C1B 1090   2.456   5.660   7.755 -0.0698 -0.2000 -0.0918
   60POPC   C2B 1091   2.416   5.506   7.222  0.2741  0.3875 -0.2215
   60POPC   C3B 1092   2.467   5.059   7.122  0.0530 -0.0266 -0.0107
   60POPC   C4B 1093   2.172   4.731   6.900 -0.2337  0.0509 -0.0484
   61POPC   NC3 1094   8.307   0.538   9.253  0.0996  0.2635  0.2699
   61POPC   PO4 1095   8.065   0.645   8.850 -0.1976  0.5156  0.2082
   61POPC   GL1 1096   8.116   0.486   8.395 -0.0973 -0.0270 -0.2761
   61POPC   GL2 1097   8.300   0.798   8.278 -0.0053  0.0319  0.2802
   61POPC   C1A 1098   7.854   0.677   8.098 -0.2711 -0.0432  0.2128
   61POPC   D2A 1099   7.423   0.794   7.946  0.0772 -0.2432  0.0615
   61POPC   C3A 1100   7.289   1.160   7.687 -0.2235  0.0807 -0.0661
   61POPC   C4A 1101   7.115   1.074   7.219  0.1702  0.1590 -0.2130
   61POPC   C1B 1102   8.326   0.754   7.821  0.2364 -0.1175 -0.0866
   61POPC   C2B 1103   8.284   0.766   7.392  0.1602 -0.1504  0.0920
   61POPC   C3B 1104   7.912   0.731   7.091 -0.0124 -0.1077  0.1846
   61POPC   C4B 1105   7.510   0.840   6.882 -0.0921  0.0306  0.3767
   62POPC   NC3 1106   2.216   9.498   8.570  0.0879  0.0418  0.0599
   62POPC   PO4 1107   2.638   9.703   8.514 -0.1203 -0.3288  0.0076
   62POPC   GL1 1108   2.423   9.776   8.130  0.0451 -0.0936 -0.0997
   62POPC   GL2 1109   2.444   9.429   8.071 -0.0872 -0.0892 -0.0855
   62POPC   C1A 1110   2.276   9.901   7.685  0.1316  0.0692 -0.0185
   62POPC   D2A 1111   2.049   9.899   7.267 -0.1093 -0.1245  0.2121
   62POPC   C3A 1112   1.996  10.356   7.019  0.0216  0.1393  0.0702
   62POPC   C4A 1113   2.026  10.613   6.682  0.1672  0.0557 -0.1598
   62POPC   C1B 1114   2.846   9.582   7.837  0.3662 -0.2920  0.2673
   62POPC   C2B 1115   2.678   9.820   7.381  0.2389  0.0187  0.2398
   62POPC   C3B 1116   2.791   9.672   6.987  0.1150 -0.2077 -0.1820
   62POPC   C4B 1117   3.017   9.351   6.895  0.1379  0.1891 -0.2034
   63POPC   NC3 1118   9.607   1.716   9.472 -0.1717  0.1960  0.1181
   63POPC   PO4 1119   9.781   1.627   8.980 -0.0992 -0.0770 -0.0377
   63POPC   GL1 1120   9.709   1.732   8.600  0.4411  0.3308  0.1164
   63POPC   GL2 1121   9.696   1.537   8.348  0.0772 -0.2556  0.1761
   63POPC   C1A 1122   9.603   2.053   8.288  0.0329 -0.0182  0.1057
   63POPC   D2A 1123   9.495   2.078   7.846  0.0625  0.3514 -0.1012
   63POPC   C3A 1124   9.639   2.315   7.493  0.0255  0.1459 -0.0353
   63POPC   C4A 1125   9.501   2.608   7.190 -0.1712 -0.2342 -0.2507
   63POPC   C1B 1126   9.311   1.703   8.108  0.4266 -0.0393 -0.1567
   63POPC   C2B 1127   9.294   1.678   7.617 -0.1229 -0.3283 -0.0271
   63POPC   C3B 1128   9.307   1.580   7.200 -0.1893 -0.3327 -0.0953
   63POPC   C4B 1129   9.390   1.666   6.748 -0.0871  0.0040 -0.0203
   64POPC   NC3 1130   6.540   9.533   8.282  0.1806 -0.1024  0.0329
   64POPC   PO4 1131   6.659   9.101   8.218  0.0880 -0.0071  0.1083
   64POPC   GL1 1132   6.879   9.175   7.844  0.3210 -0.2814  0.3311
   64POPC   GL2 1133   6.698   9.484   7.740  0.1746 -0.3034 -0.0911
   64POPC   C1A 1134   6.837   9.061   7.356 -0.2191 -0.1173  0.0944
   64POPC   D2A 1135   6.800   8.986   6.864 -0.1473  0.1302  0.4111
   64POPC   C3A 1136   7.124   9.157   6.610  0.0006  0.2221 -0.0211
   64POPC   C4A 1137   7.580   9.166   6.541  0.1177 -0.0048 -0.0216
   64POPC   C1B 1138   6.414   9.420   7.428 -0.0489  0.0520  0.0726
   64POPC   C2B 1139   6.398   9.465   6.970  0.1789 -0.0568  0.3085
   64POPC   C3B 1140   6.355   9.670   6.616  0.0242  0.2285  0.1585
   64POPC   C4B 1141   6.198   9.774   6.264 -0.1230  0.0519  0.1063
   65POPC   NC3 1142   7.129   6.406   8.069  0.0065  0.0754 -0.0722
   65POPC   PO4 1143   7.550   6.476   8.200 -0.2481 -0.0251 -0.1394
   65POPC   GL1 1144   7.560   6.653   7.793  0.2485 -0.1950 -0.3323
   65POPC   GL2 1145   7.345   6.566   7.656 -0.1014  0.0115 -0.0321
   65POPC   C1A 1146   7.320   7.056   7.481 -0.1235  0.0641  0.3011
   65POPC   D2A 1147   7.419   7.343   7.266 -0.3065 -0.0353  0.0861
   65POPC   C3A 1148   7.736   7.394   7.006 -0.0556  0.0992 -0.2943
   65POPC   C4A 1149   7.814   7.329   6.560  0.2465  0.2490  0.2626
   65POPC   C1B 1150   7.181   6.543   7.277  0.0979 -0.0909  0.0646
   65POPC   C2B 1151   7.424   6.768   6.947 -0.0428 -0.1732 -0.1740
   65POPC   C3B 1152   7.348   6.854   6.510  0.3765  0.0001 -0.1176
   65POPC   C4B 1153   7.448   6.651   6.072 -0.0518 -0.0869  0.1445
   66POPC   NC3 1154   4.716   2.562   8.874 -0.1295 -0.2205  0.1174
   66POPC   PO4 1155   4.408   2.549   8.559  0.0510  0.0379 -0.1943
   66POPC   GL1 1156   4.481   2.342   8.240  0.0346 -0.2583  0.0717
   66POPC   GL2 1157   4.485   1.971   8.216 -0.1163 -0.1621  0.1243
   66POPC   C1A 1158   4.571   2.310   7.842 -0.4245  0.0057 -0.0226
   66POPC   D2A 1159   4.558   2.377   7.324 -0.3963  0.1872 -0.3112
   66POPC   C3A 1160   4.873   2.525   6.961 -0.3089  0.4546 -0.1154
   66POPC   C4A 1161   5.228   2.728   6.740 -0.4360  0.1747  0.0175
   66POPC   C1B 1162   4.405   1.789   7.730 -0.0421 -0.1993  0.1323
   66POPC   C2B 1163   4.462   1.825   7.293 -0.0644 -0.0424  0.1001
   66POPC   C3B 1164   4.840   1.945   6.827 -0.2183 -0.3269  0.2392
   66POPC   C4B 1165   4.997   2.263   6.474 -0.1606  0.2450  0.1575
   67POPC   NC3 1166   5.130   1.428   8.643  0.2937  0.0567  0.4163
   67POPC   PO4 1167   5.566   1.424   8.694 -0.3420 -0.0546  0.0856
   67POPC   GL1 1168   5.470   1.612   8.276  0.2114 -0.0112  0.1762
   67POPC   GL2 1169   5.342   1.386   8.141  0.1142  0.0141  0.1516
   67POPC   C1A 1170   5.425   1.922   8.075 -0.0139 -0.0812 -0.3052
   67POPC   D2A 1171   5.098   2.294   8.061 -0.0184 -0.3368  0.1013
   67POPC   C3A 1172   5.028   2.375   7.616  0.2528  0.0627 -0.0712
   67POPC   C4A 1173   5.178   2.719   7.319  0.0421  0.1023  0.0147
   67POPC   C1B 1174   5.667   1.391   7.863  0.3774  0.2461 -0.2914
   67POPC   C2B 1175   6.002   1.180   7.789  0.1382  0.0017 -0.3024
   67POPC   C3B 1176   6.230   1.167   7.572 -0.0767  0.0534 -0.2901
   67POPC   C4B 1177   6.397   1.094   7.206  0.3902  0.0639  0.0115
   68POPC   NC3 1178   8.661   6.219   8.944 -0.0751 -0.0804 -0.1508
   68POPC   PO4 1179   8.378   6.435   8.563 -0.1577  0.0407 -0.2139
   68POPC   GL1 1180   8.323   6.263   8.137  0.1926 -0.2587 -0.0375
   68POPC   GL2 1181   8.389   5.915   8.119  0.0906 -0.0995 -0.1679
   68POPC   C1A 1182   8.200   6.374   7.746  0.4622  0.2486 -0.0946
   68POPC   D2A 1183   8.125   6.189   7.313  0.4033  0.2164  0.2164
   68POPC   C3A 1184   7.867   5.878   7.079  0.0199  0.2776 -0.1170
   68POPC   C4A 1185   7.650   5.574   6.872 -0.1541  0.2950  0.0758
   68POPC   C1B 1186   8.441   5.855   7.635 -0.3780  0.2828 -0.1512
   68POPC   C2B 1187   8.406   5.767   7.129  0.0653  0.5651 -0.0570
   68POPC   C3B 1188   8.198   5.485   6.855 -0.0872  0.3253 -0.2684
   68POPC   C4B 1189   7.868   5.169   6.682  0.0256 -0.1318  0.0796
   69POPC   NC3 1190   0.747   9.409   8.993 -0.0089  0.1493 -0.2014
   69POPC   PO4 1191   0.282   9.523   8.803  0.1429 -0.1243 -0.0675
   69POPC   GL1 1192   0.330   9.532   8.325 -0.1060 -0.1857  0.2530
   69POPC   GL2 1193   0.032   9.696   8.219  0.2395  0.2889 -0.1707
   69POPC   C1A 1194   0.327   9.540   7.857  0.1814  0.1012  0.0311
   69POPC   D2A 1195   0.270   9.489   7.337 -0.0137 -0.0712 -0.1848
   69POPC   C3A 1196   0.139   9.201   6.942  0.0005  0.0849 -0.3101
   69POPC   C4A 1197   0.031   8.742   6.858 -0.0074 -0.0433  0.0434
   69POPC   C1B 1198  -0.151   9.489   7.821  0.1054  0.2622 -0.0994
   69POPC   C2B 1199  -0.225   9.474   7.422 -0.3208  0.0265 -0.0936
   69POPC   C3B 1200  -0.253   9.444   7.030 -0.1572 -0.0853  0.1308
   69POPC   C4B 1201  -0.584   9.429   6.791  0.1629  0.0935  0.1569
   70POPC   NC3 1202   0.170   6.731   8.148  0.0747  0.0252  0.1378
   70POPC   PO4 1203   0.347   7.144   8.068  0.0823 -0.0711 -0.1241
   70POPC   GL1 1204   0.544   7.197   7.698  0.2137  0.0602 -0.0467
   70POPC   GL2 1205   0.845   7.123   7.874 -0.0153  0.2374 -0.2113
   70POPC   C1A 1206   0.539   7.497   7.410  0.1028 -0.1565  0.1095
   70POPC   D2A 1207   0.723   7.819   7.167  0.0623  0.1834 -0.0174
   70POPC   C3A 1208   0.783   8.151   7.482 -0.1787  0.0355 -0.3015
   70POPC   C4A 1209   0.476   8.352   7.673  0.2912  0.1983  0.4162
   70POPC   C1B 1210   0.848   6.782   7.587 -0.1411 -0.2247 -0.1543
   70POPC   C2B 1211   0.919   6.608   7.164  0.3259 -0.3127  0.0336
   70POPC   C3B 1212   0.913   6.418   6.729  0.1163  0.1225 -0.2585
   70POPC   C4B 1213   1.114   6.091   6.658  0.1326  0.2310  0.1241
   71POPC   NC3 1214   5.915   0.390   8.667 -0.2334  0.2554  0.0714
   71POPC   PO4 1215   5.486   0.594   8.527 -0.1143 -0.1220 -0.2299
   71POPC   GL1 1216   5.336   0.651   8.086 -0.0849 -0.0778  0.2803
   71POPC   GL2 1217   5.014   0.786   7.957 -0.2786 -0.2951  0.1642
   71POPC   C1A 1218   5.606   0.871   7.716  0.1508  0.2208  0.1453
   71POPC   D2A 1219   5.798   1.044   7.314  0.0835 -0.0946 -0.1782
   71POPC   C3A 1220   5.677   1.528   7.398 -0.0161 -0.2396  0.3852
   71POPC   C4A 1221   5.500   1.909   7.588  0.0188  0.1793  0.2799
   71POPC   C1B 1222   4.969   0.967   7.565  0.0756  0.3015 -0.2271
   71POPC   C2B 1223   4.790   1.070   7.085  0.1114 -0.1955 -0.3161
   71POPC   C3B 1224   4.550   1.193   6.694  0.0246 -0.1503 -0.4849
   71POPC   C4B 1225   4.589   1.456   6.456  0.1192 -0.2090  0.0948
   72POPC   NC3 1226   3.189   0.604   8.500 -0.1940 -0.2336 -0.0017
   72POPC   PO4 1227   2.896   1.023   8.393 -0.0431 -0.2539 -0.1083
   72POPC   GL1 1228   2.793   0.756   7.950  0.0006 -0.3408  0.0725
   72POPC   GL2 1229   2.448   0.683   7.696 -0.1565 -0.3277 -0.0867
   72POPC   C1A 1230   2.991   0.390   7.750 -0.0700  0.2942 -0.1202
   72POPC   D2A 1231   3.148   0.220   7.387 -0.2183 -0.0527  0.2675
   72POPC   C3A 1232   3.399   0.485   7.022  0.0134  0.0810 -0.1414
   72POPC   C4A 1233   3.533   0.866   6.778  0.2046  0.0387  0.1804
   72POPC   C1B 1234   2.398   0.568   7.306 -0.1515  0.1315 -0.2721
   72POPC   C2B 1235   2.406   0.378   6.924  0.1768 -0.0660  0.2457
   72POPC   C3B 1236   2.371   0.074   6.572  0.2757  0.0341 -0.0334
   72POPC   C4B 1237   1.958  -0.064   6.449 -0.2670  0.2514 -0.1477
   73POPC   NC3 1238   0.954   0.449   8.241 -0.1701  0.0084 -0.3406
   73POPC   PO4 1239   0.751   0.110   8.296  0.1113  0.1813 -0.1021
   73POPC   GL1 1240   0.718   0.152   7.920  0.1390 -0.0375  0.0155
   73POPC   GL2 1241   0.743   0.484   7.792  0.0806  0.0395 -0.3898
   73POPC   C1A 1242   0.808   0.074   7.488 -0.0286  0.3635 -0.4677
   73POPC   D2A 1243   0.933   0.173   7.144 -0.1582  0.3235 -0.0996
   73POPC   C3A 1244   1.092  -0.176   6.766  0.0027  0.3324 -0.0133
   73POPC   C4A 1245   1.129  -0.226   6.286  0.0094 -0.1910 -0.0050
   73POPC   C1B 1246   0.647   0.731   7.425  0.1010  0.2316 -0.1903
   73POPC   C2B 1247   0.523   0.777   6.987  0.2158 -0.0290  0.0858
   73POPC   C3B 1248   0.562   0.667   6.547 -0.2173  0.0447  0.2182
   73POPC   C4B 1249   0.779   0.713   6.105  0.1640 -0.0012 -0.0670
   74POPC   NC3 1250   4.334   3.629   9.014  0.1772 -0.1552 -0.3846
   74POPC   PO4 1251   4.077   3.363   8.630 -0.2854  0.1889 -0.1520
   74POPC   GL1 1252   4.067   3.176   8.170 -0.1225 -0.0537  0.1355
   74POPC   GL2 1253   4.069   2.825   8.246 -0.1007 -0.0125 -0.4414
   74POPC   C1A 1254   4.445   3.357   8.058 -0.5910  0.2140  0.2492
   74POPC   D2A 1255   4.733   3.443   7.802 -0.1686  0.3049 -0.0717
   74POPC   C3A 1256   4.596   3.796   7.612  0.0569  0.0117  0.1556
   74POPC   C4A 1257   4.475   4.215   7.695  0.0696 -0.1119 -0.1604
   74POPC   C1B 1258   4.408   2.881   7.929  0.0518 -0.1676 -0.3552
   74POPC   C2B 1259   4.663   2.808   7.662 -0.0704  0.0768  0.0672
   74POPC   C3B 1260   4.719   2.891   7.207 -0.1180  0.0276 -0.2353
   74POPC   C4B 1261   4.985   3.074   6.980  0.0796 -0.0277  0.0170
   75POPC   NC3 1262   6.194   9.033   8.342  0.0615 -0.0993 -0.2507
   75POPC   PO4 1263   5.909   8.882   8.107  0.0519 -0.3450 -0.2005
   75POPC   GL1 1264   5.765   8.831   7.766 -0.0922 -0.1200 -0.1375
   75POPC   GL2 1265   5.965   8.555   7.662 -0.0497  0.0563  0.2203
   75POPC   C1A 1266   5.799   8.904   7.325  0.2361  0.3036  0.0802
   75POPC   D2A 1267   5.894   8.649   6.988  0.2196 -0.1287  0.1592
   75POPC   C3A 1268   5.788   8.284   7.102  0.3495 -0.1855  0.3393
   75POPC   C4A 1269   5.645   8.099   7.458  0.1813  0.1251  0.0619
   75POPC   C1B 1270   6.301   8.383   7.294 -0.0657  0.0422  0.0288
   75POPC   C2B 1271   6.361   8.133   7.035  0.2131  0.2568  0.2991
   75POPC   C3B 1272   6.578   8.017   6.645 -0.3225 -0.3761  0.1953
   75POPC   C4B 1273   6.886   7.880   6.448 -0.0979  0.1371  0.0251
   76POPC   NC3 1274   2.600   6.965   9.061 -0.3883  0.0635  0.1641
   76POPC   PO4 1275   2.519   6.889   8.668  0.3200  0.0090  0.3253
   76POPC   GL1 1276   2.579   7.010   8.226  0.0455 -0.1187 -0.0084
   76POPC   GL2 1277   2.522   7.334   8.091 -0.3200  0.1559  0.1462
   76POPC   C1A 1278   2.475   6.737   7.920  0.3164  0.0254  0.1094
   76POPC   D2A 1279   2.301   6.771   7.422  0.0416  0.2975 -0.3658
   76POPC   C3A 1280   2.328   6.745   7.000  0.0279 -0.0452 -0.0514
   76POPC   C4A 1281   2.240   7.033   6.621 -0.1715  0.1501  0.0774
   76POPC   C1B 1282   2.309   7.210   7.813 -0.1928  0.2496 -0.3186
   76POPC   C2B 1283   2.067   7.203   7.502 -0.1362 -0.0494 -0.2356
   76POPC   C3B 1284   1.874   7.009   7.031  0.0093 -0.0893  0.1405
   76POPC   C4B 1285   1.736   6.765   6.624  0.1311  0.0274  0.1272
   77POPC   NC3 1286   9.523   9.234   8.881 -0.1433 -0.0974 -0.3505
   77POPC   PO4 1287   9.627   9.167   8.449 -0.0309  0.4215 -0.0399
   77POPC   GL1 1288   9.894   9.093   8.146 -0.1289  0.3025 -0.1751
   77POPC   GL2 1289  10.231   9.106   8.019 -0.3290  0.3438  0.0645
   77POPC   C1A 1290   9.781   9.104   7.681  0.0501 -0.1283  0.0246
   77POPC   D2A 1291  10.029   8.946   7.357  0.1169 -0.3072  0.2220
   77POPC   C3A 1292   9.938   8.525   7.249  0.2347 -0.0386  0.0593
   77POPC   C4A 1293   9.859   8.076   6.978 -0.1282 -0.2034  0.4826
   77POPC   C1B 1294  10.395   9.243   7.677  0.2386  0.2284 -0.1527
   77POPC   C2B 1295  10.409   9.288   7.246  0.1333  0.2842 -0.1248
   77POPC   C3B 1296  10.250   9.431   6.875  0.0228 -0.1386 -0.0746
   77POPC   C4B 1297  10.298   9.368   6.463 -0.0963  0.0868 -0.3660
   78POPC   NC3 1298   4.710   6.983   8.405 -0.0675  0.1501 -0.1218
   78POPC   PO4 1299   4.781   7.416   8.408  0.1169 -0.2104 -0.0972
   78POPC   GL1 1300   4.722   7.372   7.969 -0.0157  0.2276  0.2526
   78POPC   GL2 1301   4.367   7.218   8.069  0.0168 -0.0727  0.0723
   78POPC   C1A 1302   4.661   7.558   7.562  0.0441 -0.3781 -0.1157
   78POPC   D2A 1303   4.315   7.571   7.243 -0.0267  0.2677  0.1062
   78POPC   C3A 1304   4.144   7.246   6.843  0.0707 -0.2041 -0.1691
   78POPC   C4A 1305   4.043   7.306   6.400 -0.0978  0.0363 -0.0698
   78POPC   C1B 1306   4.178   7.299   7.656 -0.0425 -0.1087 -0.1737
   78POPC   C2B 1307   3.853   7.253   7.390  0.4827 -0.0217  0.2750
   78POPC   C3B 1308   3.552   7.169   7.005 -0.1455 -0.0755 -0.0354
   78POPC   C4B 1309   3.305   6.951   6.792 -0.0215  0.1098  0.0262
   79POPC   NC3 1310   6.224   2.202   9.560  0.2639  0.0119 -0.0890
   79POPC   PO4 1311   5.954   1.983   9.325  0.0351 -0.3504  0.3012
   79POPC   GL1 1312   6.104   2.094   8.856  0.2257  0.0507 -0.0950
   79POPC   GL2 1313   5.957   1.923   8.615 -0.1939 -0.2899 -0.0001
   79POPC   C1A 1314   6.415   2.244   8.623  0.1739  0.2521  0.0547
   79POPC   D2A 1315   6.800   2.464   8.501  0.1232 -0.0529  0.3135
   79POPC   C3A 1316   6.845   2.656   8.087  0.1169  0.0663 -0.1020
   79POPC   C4A 1317   6.572   2.817   7.892 -0.0515  0.0176 -0.0031
   79POPC   C1B 1318   6.244   1.971   8.278  0.0203  0.0268  0.2897
   79POPC   C2B 1319   6.404   2.069   7.870 -0.1637  0.0375  0.0815
   79POPC   C3B 1320   6.487   2.002   7.497 -0.0411 -0.1832  0.1878
   79POPC   C4B 1321   6.441   1.860   7.050  0.0258 -0.3183  0.3787
   80POPC   NC3 1322   1.701   8.212   8.558  0.2820 -0.2967 -0.0529
   80POPC   PO4 1323   1.943   8.199   8.278 -0.1498  0.2344 -0.2907
   80POPC   GL1 1324   1.676   8.293   8.015  0.0599 -0.3763 -0.0101
   80POPC   GL2 1325   1.996   8.339   7.821 -0.0574  0.0726 -0.3558
   80POPC   C1A 1326   1.584   8.239   7.574 -0.1094 -0.0215 -0.0044
   80POPC   D2A 1327   1.600   8.077   7.096  0.3245  0.1606 -0.2439
   80POPC   C3A 1328   1.722   8.249   6.727 -0.1993  0.2601 -0.1921
   80POPC   C4A 1329   2.033   8.410   6.567 -0.2464 -0.0232  0.1317
   80POPC   C1B 1330   2.122   8.631   7.567  0.2006  0.1138 -0.1294
   80POPC   C2B 1331   2.206   8.994   7.245 -0.1393 -0.1196 -0.1629
   80POPC   C3B 1332   2.339   8.904   6.930 -0.0480 -0.3252  0.0036
   80POPC   C4B 1333   2.845   8.882   6.849  0.2611 -0.3290 -0.3305
   81POPC   NC3 1334   1.937   1.914   8.615  0.0768  0.5270 -0.2167
   81POPC   PO4 1335   2.238   1.912   8.314 -0.2822  0.0773  0.0989
   81POPC   GL1 1336   2.191   1.699   7.903  0.0783 -0.3446 -0.4191
   81POPC   GL2 1337   1.934   1.917   7.711  0.0810 -0.1593  0.0791
   81POPC   C1A 1338   2.309   1.600   7.390 -0.0656 -0.1529 -0.1829
   81POPC   D2A 1339   2.388   1.830   7.010  0.0772 -0.2149 -0.0439
   81POPC   C3A 1340   2.098   1.841   6.720  0.3668  0.1360 -0.1271
   81POPC   C4A 1341   1.991   1.389   6.519  0.3664 -0.0964 -0.2334
   81POPC   C1B 1342   2.286   2.098   7.551  0.2226  0.1594  0.1480
   81POPC   C2B 1343   2.612   2.158   7.275  0.0321 -0.1138 -0.0412
   81POPC   C3B 1344   2.686   2.152   6.828 -0.0824 -0.1293  0.0871
   81POPC   C4B 1345   2.730   2.402   6.472 -0.0666 -0.0117 -0.2682
   82POPC   NC3 1346   0.202   3.775   8.611 -0.0368  0.0562 -0.2367
   82POPC   PO4 1347  -0.058   4.133   8.380  0.0692 -0.4361  0.0282
   82POPC   GL1 1348  -0.129   4.033   8.025  0.0466 -0.0234  0.2634
   82POPC   GL2 1349   0.027   4.171   7.861  0.1188  0.1317  0.0506
   82POPC   C1A 1350  -0.214   3.797   7.582 -0.0688  0.0840  0.4368
   82POPC   D2A 1351  -0.479   3.667   7.299 -0.1495  0.3792  0.4064
   82POPC   C3A 1352  -0.234   3.858   7.010 -0.0014 -0.1354 -0.3071
   82POPC   C4A 1353  -0.443   4.186   6.712  0.1132 -0.0021  0.1334
   82POPC   C1B 1354   0.121   4.230   7.429 -0.4634  0.0806  0.0867
   82POPC   C2B 1355  -0.036   4.359   7.141 -0.1729  0.1378 -0.0855
   82POPC   C3B 1356  -0.202   4.609   6.858  0.1385  0.3127  0.1858
   82POPC   C4B 1357  -0.138   4.739   6.458 -0.2535 -0.4422  0.0219
   83POPC   NC3 1358   0.259   0.732   8.799 -0.1330  0.1517 -0.0222
   83POPC   PO4 1359  -0.148   0.766   8.872 -0.2720 -0.0958 -0.2194
   83POPC   GL1 1360  -0.000   0.694   8.387 -0.3635  0.0885  0.1131
   83POPC   GL2 1361   0.113   0.915   8.283  0.0893 -0.0841 -0.3694
   83POPC   C1A 1362  -0.305   0.823   8.004  0.0340 -0.2378  0.0085
   83POPC   D2A 1363  -0.367   0.892   7.553  0.0816  0.1015 -0.0313
   83POPC   C3A 1364  -0.631   1.187   7.344  0.0167 -0.2932  0.1651
   83POPC   C4A 1365  -0.791   1.523   7.452  0.1814  0.2193 -0.1197
   83POPC   C1B 1366   0.326   0.825   7.876 -0.1216 -0.2524 -0.0415
   83POPC   C2B 1367   0.152   0.781   7.509  0.2830  0.3192 -0.2972
   83POPC   C3B 1368   0.025   0.821   7.078 -0.0625  0.5492 -0.1238
   83POPC   C4B 1369  -0.248   1.148   6.963  0.0875  0.0447  0.2675
   84POPC   NC3 1370   3.209   2.345   8.644 -0.1121  0.1291 -0.1091
   84POPC   PO4 1371   3.452   2.130   8.366 -0.0484 -0.0785 -0.0753
   84POPC   GL1 1372   3.711   1.968   8.198 -0.2625 -0.0731 -0.2628
   84POPC   GL2 1373   4.013   2.135   8.199  0.1642  0.1173 -0.1071
   84POPC   C1A 1374   3.840   1.811   7.778  0.0272 -0.1238  0.0487
   84POPC   D2A 1375   3.953   1.832   7.328 -0.0712 -0.0382  0.1341
   84POPC   C3A 1376   4.104   2.198   7.033 -0.0959 -0.3291 -0.1585
   84POPC   C4A 1377   4.324   2.571   6.964 -0.0239  0.1961 -0.2490
   84POPC   C1B 1378   4.098   2.227   7.924 -0.0421  0.2118 -0.0547
   84POPC   C2B 1379   3.939   2.252   7.586  0.0032 -0.0965 -0.1167
   84POPC   C3B 1380   3.651   2.370   7.240  0.3264 -0.0634 -0.1455
   84POPC   C4B 1381   3.692   2.256   6.794  0.1981 -0.2770  0.1943
   85POPC   NC3 1382   3.814   6.570   8.376  0.0759 -0.1895 -0.0264
   85POPC   PO4 1383   4.031   6.970   8.311 -0.0816 -0.3303  0.0937
   85POPC   GL1 1384   4.021   6.810   7.854  0.3398 -0.3167 -0.2000
   85POPC   GL2 1385   3.985   6.455   7.898  0.2319  0.0977  0.1320
   85POPC   C1A 1386   4.012   6.804   7.406 -0.1262 -0.2124 -0.1703
   85POPC   D2A 1387   3.812   6.792   7.108 -0.0545  0.1592  0.4976
   85POPC   C3A 1388   4.143   6.624   6.863 -0.0919 -0.1908 -0.1833
   85POPC   C4A 1389   4.296   6.577   6.457 -0.0031  0.1297  0.2539
   85POPC   C1B 1390   3.999   6.297   7.452 -0.1228  0.0051  0.0649
   85POPC   C2B 1391   4.185   6.118   7.119 -0.1172 -0.1715 -0.3123
   85POPC   C3B 1392   4.281   6.071   6.725 -0.1473  0.0492 -0.1632
   85POPC   C4B 1393   4.488   6.075   6.365 -0.0746  0.2031 -0.0035
   86POPC   NC3 1394   9.670   0.261   8.709 -0.1315  0.0487 -0.1784
   86POPC   PO4 1395  10.026   0.329   8.560 -0.0417  0.0585  0.1060
   86POPC   GL1 1396   9.987   0.348   8.066  0.3880  0.0996 -0.1497
   86POPC   GL2 1397   9.758   0.433   7.986  0.2559  0.0056 -0.0098
   86POPC   C1A 1398  10.000   0.276   7.585 -0.1321  0.0835  0.1563
   86POPC   D2A 1399  10.108   0.332   7.196 -0.1269  0.2640 -0.3449
   86POPC   C3A 1400   9.848   0.070   6.930 -0.1383 -0.2817 -0.3347
   86POPC   C4A 1401   9.789  -0.193   6.501  0.0276 -0.1046 -0.1595
   86POPC   C1B 1402   9.451   0.338   7.660 -0.1428 -0.1592  0.3815
   86POPC   C2B 1403   9.466   0.303   7.176 -0.0461 -0.1342 -0.1635
   86POPC   C3B 1404   9.374   0.175   6.765  0.0331 -0.0765 -0.1725
   86POPC   C4B 1405   9.719   0.299   6.522 -0.2206  0.3227 -0.1904
   87POPC   NC3 1406   8.360   8.791   8.600  0.1206 -0.0647  0.0760
   87POPC   PO4 1407   8.075   9.160   8.484  0.3153  0.2262 -0.1672
   87POPC   GL1 1408   8.282   9.022   8.074 -0.1666 -0.3630  0.0212
   87POPC   GL2 1409   7.869   8.988   7.897  0.0779  0.0560 -0.0576
   87POPC   C1A 1410   8.254   9.220   7.714 -0.1244 -0.3291 -0.1354
   87POPC   D2A 1411   8.555   9.477   7.505 -0.1224 -0.2299 -0.0862
   87POPC   C3A 1412   8.552   9.586   7.024  0.0773 -0.3256  0.1047
   87POPC   C4A 1413   8.323   9.764   6.779 -0.0600  0.0416 -0.1515
   87POPC   C1B 1414   7.799   9.162   7.504 -0.0213  0.3062  0.1186
   87POPC   C2B 1415   7.943   9.020   7.039  0.1376  0.2127  0.1585
   87POPC   C3B 1416   8.017   8.861   6.684 -0.0308  0.0911  0.1981
   87POPC   C4B 1417   8.298   8.827   6.395  0.0491 -0.1936 -0.0663
   88POPC   NC3 1418   7.305   6.915   8.207 -0.0218  0.1469  0.1944
   88POPC   PO4 1419   6.815   6.781   8.261 -0.5111 -0.0701 -0.1740
   88POPC   GL1 1420   6.982   6.848   7.857  0.0514 -0.2238  0.3581
   88POPC   GL2 1421   7.009   7.147   7.912 -0.2582 -0.1309  0.1676
   88POPC   C1A 1422   6.802   6.954   7.344  0.0677 -0.0785 -0.3338
   88POPC   D2A 1423   6.971   6.884   6.940  0.0029  0.2731 -0.0644
   88POPC   C3A 1424   6.819   6.817   6.455  0.2369 -0.1580 -0.0164
   88POPC   C4A 1425   6.972   6.870   6.072  0.3176 -0.1419 -0.3008
   88POPC   C1B 1426   6.977   7.382   7.552  0.1066  0.2360  0.2289
   88POPC   C2B 1427   6.861   7.474   7.198 -0.2918  0.2499  0.3156
   88POPC   C3B 1428   6.760   7.295   6.787 -0.1220  0.0533 -0.1350
   88POPC   C4B 1429   6.527   7.578   6.373 -0.1949  0.0517 -0.0741
   89POPC   NC3 1430   4.411   4.679   8.333 -0.1492 -0.5771  0.0235
   89POPC   PO4 1431   4.781   4.712   8.543 -0.0835 -0.1673 -0.1218
   89POPC   GL1 1432   4.748   4.926   8.079  0.0056 -0.1637  0.0202
   89POPC   GL2 1433   4.618   4.750   7.902 -0.2326 -0.0766  0.3957
   89POPC   C1A 1434   4.745   5.187   7.687  0.1727  0.2652 -0.1027
   89POPC   D2A 1435   5.170   5.241   7.406 -0.0347 -0.1015 -0.2556
   89POPC   C3A 1436   5.190   4.956   7.009  0.1511 -0.2426 -0.2206
   89POPC   C4A 1437   5.058   4.635   7.049  0.1849  0.1511 -0.0364
   89POPC   C1B 1438   4.579   4.620   7.468  0.1042 -0.0796  0.0864
   89POPC   C2B 1439   4.595   4.267   7.199 -0.0053  0.0934 -0.1221
   89POPC   C3B 1440   4.633   3.900   7.048 -0.0249  0.1823  0.3117
   89POPC   C4B 1441   4.709   3.541   6.788  0.1061 -0.0341 -0.0737
   90POPC   NC3 1442   1.563   5.462   9.030  0.1043  0.0203 -0.0286
   90POPC   PO4 1443   1.542   5.322   8.562 -0.3718 -0.0899 -0.0335
   90POPC   GL1 1444   1.797   5.393   8.164 -0.0103 -0.0173  0.0194
   90POPC   GL2 1445   2.100   5.375   8.414  0.0474 -0.1868 -0.1089
   90POPC   C1A 1446   1.722   5.213   7.775 -0.3532 -0.0319 -0.1373
   90POPC   D2A 1447   1.521   4.860   7.613  0.3122  0.1044  0.1288
   90POPC   C3A 1448   1.346   4.991   7.135  0.2273 -0.3626 -0.0977
   90POPC   C4A 1449   1.505   5.152   6.648  0.0118 -0.1377  0.0269
   90POPC   C1B 1450   2.220   5.231   7.936  0.3052 -0.1919  0.4593
   90POPC   C2B 1451   2.322   5.042   7.623 -0.2861  0.3926  0.0821
   90POPC   C3B 1452   2.073   4.856   7.366  0.1944  0.0994  0.0254
   90POPC   C4B 1453   1.781   4.779   7.198  0.1838 -0.1761 -0.0981
   91POPC   NC3 1454   3.703   5.662   8.772  0.1518  0.2201  0.0668
   91POPC   PO4 1455   3.435   5.686   8.539  0.5151 -0.4506 -0.0121
   91POPC   GL1 1456   3.332   5.700   8.095  0.1042  0.3781 -0.1201
   91POPC   GL2 1457   3.005   5.594   8.004 -0.0842  0.0905  0.0829
   91POPC   C1A 1458   3.406   5.578   7.635  0.1059  0.2289 -0.2856
   91POPC   D2A 1459   3.403   5.552   7.207  0.0531 -0.0632 -0.0164
   91POPC   C3A 1460   3.240   5.937   7.007  0.1725  0.2401  0.0654
   91POPC   C4A 1461   2.913   6.079   6.738  0.0226 -0.1109 -0.2443
   91POPC   C1B 1462   2.925   5.912   7.799  0.1034 -0.0993 -0.4645
   91POPC   C2B 1463   3.271   6.048   7.474  0.0084 -0.3430  0.2978
   91POPC   C3B 1464   3.738   5.902   7.363  0.0059  0.0066 -0.3176
   91POPC   C4B 1465   3.964   5.626   7.353 -0.0235 -0.0780  0.0444
   92POPC   NC3 1466   7.982   5.958   8.729  0.4006 -0.0456 -0.0690
   92POPC   PO4 1467   7.793   5.553   8.933 -0.4077 -0.0747  0.2790
   92POPC   GL1 1468   8.062   5.471   8.510 -0.2931 -0.0508  0.0169
   92POPC   GL2 1469   8.034   5.612   8.303 -0.0228  0.1783  0.1747
   92POPC   C1A 1470   8.198   5.028   8.448 -0.0993  0.0516 -0.2375
   92POPC   D2A 1471   8.309   4.612   8.306 -0.1870 -0.1588 -0.3142
   92POPC   C3A 1472   8.561   4.686   7.998  0.1046 -0.1026  0.0216
   92POPC   C4A 1473   8.810   4.491   7.609 -0.3724 -0.1889 -0.1267
   92POPC   C1B 1474   7.966   5.840   7.890  0.0017 -0.0208  0.1270
   92POPC   C2B 1475   8.027   5.652   7.477  0.1595  0.6009 -0.1321
   92POPC   C3B 1476   8.312   5.249   7.366 -0.1672  0.0955  0.2393
   92POPC   C4B 1477   8.606   4.893   7.307  0.0609 -0.1256  0.1833
   93POPC   NC3 1478   8.958   0.750   8.943  0.2198 -0.0807  0.1708
   93POPC   PO4 1479   9.113   0.385   8.710 -0.2041 -0.2630 -0.0913
   93POPC   GL1 1480   9.283   0.324   8.300 -0.2289  0.0252 -0.2391
   93POPC   GL2 1481   9.173   0.093   8.104  0.0089  0.1073  0.1235
   93POPC   C1A 1482   9.011   0.505   7.843 -0.1127  0.0807 -0.0804
   93POPC   D2A 1483   8.747   0.748   7.595  0.0298  0.1694  0.1419
   93POPC   C3A 1484   8.792   0.859   7.159  0.0173 -0.0800  0.2622
   93POPC   C4A 1485   9.163   0.678   7.147 -0.1040 -0.1614 -0.3412
   93POPC   C1B 1486   9.003   0.047   7.710 -0.0897  0.5199  0.0290
   93POPC   C2B 1487   8.913   0.142   7.300 -0.1182 -0.0852 -0.0859
   93POPC   C3B 1488   8.811   0.405   6.962 -0.1132  0.2474 -0.1210
   93POPC   C4B 1489   8.454   0.552   6.953  0.4649 -0.3578  0.1569
   94POPC   NC3 1490   3.024   8.212   8.344  0.0093  0.2536 -0.2535
   94POPC   PO4 1491   3.332   8.268   8.128 -0.0903 -0.1835 -0.2084
   94POPC   GL1 1492   3.553   8.111   7.749  0.3551  0.0880  0.2440
   94POPC   GL2 1493   3.328   7.841   7.698 -0.0788  0.0702  0.0033
   94POPC   C1A 1494   3.566   8.165   7.326  0.0987  0.0450  0.0514
   94POPC   D2A 1495   3.779   8.251   6.991  0.0147 -0.1571  0.1504
   94POPC   C3A 1496   4.015   7.984   6.746  0.2913 -0.3465  0.2245
   94POPC   C4A 1497   4.272   7.788   6.655 -0.0937 -0.1381 -0.3140
   94POPC   C1B 1498   3.010   7.782   7.429  0.2454 -0.4321  0.0705
   94POPC   C2B 1499   2.950   8.147   7.056  0.2843  0.0383  0.2078
   94POPC   C3B 1500   3.280   8.324   6.812 -0.0764  0.1467 -0.1532
   94POPC   C4B 1501   3.060   8.550   6.407  0.3456  0.3553 -0.0433
   95POPC   NC3 1502   6.369   4.522   8.871 -0.1907 -0.0754 -0.1539
   95POPC   PO4 1503   6.805   4.647   8.819  0.0422 -0.0910  0.0044
   95POPC   GL1 1504   6.827   4.614   8.343 -0.1919  0.0934  0.0374
   95POPC   GL2 1505   6.557   4.576   8.279 -0.0697 -0.0450  0.0967
   95POPC   C1A 1506   6.910   4.678   7.883 -0.0013 -0.0502  0.2619
   95POPC   D2A 1507   6.881   4.589   7.397  0.0253 -0.1112 -0.1626
   95POPC   C3A 1508   6.660   4.344   7.124 -0.4546 -0.0550 -0.0304
   95POPC   C4A 1509   6.578   4.082   6.751  0.1801 -0.0165  0.0903
   95POPC   C1B 1510   6.815   4.162   8.090 -0.2004 -0.4328 -0.1712
   95POPC   C2B 1511   7.182   3.899   7.892 -0.1505 -0.0891  0.1515
   95POPC   C3B 1512   7.279   3.564   8.201  0.1373  0.0124  0.0914
   95POPC   C4B 1513   7.371   3.432   8.618 -0.2060  0.4339  0.1569
   96POPC   NC3 1514   3.751   9.483   8.677 -0.0267 -0.1111 -0.0120
   96POPC   PO4 1515   3.445   9.310   8.365  0.1606 -0.0121  0.5069
   96POPC   GL1 1516   3.320   9.293   7.950 -0.1085 -0.2812 -0.2499
   96POPC   GL2 1517   3.333   9.565   7.899 -0.0027 -0.3062  0.2246
   96POPC   C1A 1518   3.419   8.950   7.556  0.1472  0.0499 -0.3058
   96POPC   D2A 1519   3.593   8.647   7.332  0.0864  0.1556  0.0005
   96POPC   C3A 1520   3.964   8.445   7.471 -0.0568 -0.0016  0.0254
   96POPC   C4A 1521   4.096   8.051   7.289 -0.1353 -0.0725  0.0260
   96POPC   C1B 1522   3.727   9.405   7.708 -0.0922 -0.1166 -0.0652
   96POPC   C2B 1523   4.078   9.357   7.314 -0.0105 -0.0981 -0.1506
   96POPC   C3B 1524   3.978   9.356   6.789 -0.0184  0.1306  0.2264
   96POPC   C4B 1525   3.780   9.652   6.425 -0.1322 -0.0900 -0.2284
   97POPC   NC3 1526   5.477   8.440   7.985 -0.0286 -0.1913 -0.2207
   97POPC   PO4 1527   5.238   8.170   8.183 -0.0990  0.2634  0.2401
   97POPC   GL1 1528   5.147   8.095   7.768 -0.1257 -0.1336 -0.4910
   97POPC   GL2 1529   4.910   8.425   7.743 -0.0329  0.0667 -0.1012
   97POPC   C1A 1530   5.122   8.198   7.348 -0.1495 -0.0512  0.3627
   97POPC   D2A 1531   5.271   8.103   6.921  0.1409  0.0948  0.3194
   97POPC   C3A 1532   5.489   7.862   6.839 -0.2786  0.0939 -0.1661
   97POPC   C4A 1533   5.967   7.925   6.776  0.0517 -0.2552 -0.0132
   97POPC   C1B 1534   4.828   8.604   7.370 -0.1204 -0.0585  0.4098
   97POPC   C2B 1535   4.912   8.475   6.948  0.0017  0.0459  0.0597
   97POPC   C3B 1536   5.065   8.428   6.570 -0.3381 -0.1837  0.2279
   97POPC   C4B 1537   5.272   8.157   6.308  0.1342  0.0259  0.0514
   98POPC   NC3 1538   3.582   7.468   8.810  0.2546 -0.5334  0.2848
   98POPC   PO4 1539   3.535   7.354   8.330  0.2353 -0.0454 -0.2919
   98POPC   GL1 1540   3.259   7.303   7.969  0.3556 -0.1917 -0.4417
   98POPC   GL2 1541   2.969   7.441   7.880 -0.0493 -0.0972  0.2237
   98POPC   C1A 1542   3.396   7.392   7.512  0.1752  0.2554 -0.3459
   98POPC   D2A 1543   3.396   7.696   7.162  0.1742 -0.1243  0.2165
   98POPC   C3A 1544   3.418   7.884   6.920 -0.1565 -0.2773 -0.1101
   98POPC   C4A 1545   3.500   8.008   6.526  0.0856  0.1082 -0.1710
   98POPC   C1B 1546   2.770   7.211   7.618 -0.0807  0.0564  0.2296
   98POPC   C2B 1547   2.775   6.868   7.282  0.1714 -0.0717  0.0090
   98POPC   C3B 1548   3.041   6.467   7.127  0.2787  0.1490 -0.0794
   98POPC   C4B 1549   3.266   6.458   6.819  0.1466 -0.1398 -0.1423
   99POPC   NC3 1550   6.515   8.272   8.418  0.2749  0.2937  0.0547
   99POPC   PO4 1551   6.870   8.357   8.542 -0.0912 -0.0511  0.0763
   99POPC   GL1 1552   6.816   8.572   8.131  0.1454  0.0918 -0.2424
   99POPC   GL2 1553   6.441   8.735   7.953  0.0234 -0.0535 -0.1549
   99POPC   C1A 1554   6.862   8.714   7.704 -0.2037  0.3225  0.0587
   99POPC   D2A 1555   7.101   8.625   7.330 -0.2915 -0.0323  0.1519
   99POPC   C3A 1556   6.858   8.500   7.006  0.1540  0.0517 -0.0195
   99POPC   C4A 1557   6.470   8.560   6.868  0.2172 -0.0471 -0.0192
   99POPC   C1B 1558   6.359   8.908   7.580  0.0213  0.1299  0.1865
   99POPC   C2B 1559   6.310   8.965   7.185 -0.0789 -0.0118 -0.1158
   99POPC   C3B 1560   6.227   9.061   6.758  0.2776 -0.0959  0.1923
   99POPC   C4B 1561   5.978   9.364   6.482  0.1877  0.2014  0.0337
  100POPC   NC3 1562   5.608   1.073   8.371  0.1943  0.0759  0.0996
  100POPC   PO4 1563   5.975   0.925   8.653 -0.3029  0.0979 -0.0697
  100POPC   GL1 1564   6.035   1.319   8.543  0.1974 -0.3821 -0.1224
  100POPC   GL2 1565   6.410   1.278   8.545 -0.0555  0.0260 -0.2294
  100POPC   C1A 1566   6.046   1.486   8.191 -0.3050 -0.1616  0.1137
  100POPC   D2A 1567   5.954   1.794   7.920  0.0085  0.0211 -0.0595
  100POPC   C3A 1568   6.112   1.658   7.597 -0.2458  0.0421  0.2058
  100POPC   C4A 1569   6.096   1.450   7.112 -0.1290 -0.0736 -0.1936
  100POPC   C1B 1570   6.755   1.487   8.449 -0.0642  0.1394  0.1546
  100POPC   C2B 1571   7.090   1.626   8.221  0.2143  0.0955 -0.1810
  100POPC   C3B 1572   7.369   1.642   7.796 -0.0556  0.2415 -0.1144
  100POPC   C4B 1573   7.692   1.729   7.472 -0.1228  0.2899 -0.3156
  101POPC   NC3 1574   1.797   3.065   8.476  0.0350  0.1735  0.4545
  101POPC   PO4 1575   2.290   2.856   8.481 -0.1283  0.1519 -0.1365
  101POPC   GL1 1576   2.215   3.104   8.168 -0.0113  0.0240  0.1221
  101POPC   GL2 1577   2.434   3.066   8.074  0.0031 -0.0627 -0.3206
  101POPC   C1A 1578   1.835   3.025   7.859  0.0615  0.1012  0.0073
  101POPC   D2A 1579   1.583   2.836   7.572 -0.0149  0.2680 -0.1369
  101POPC   C3A 1580   1.412   2.353   7.659 -0.0308  0.0994  0.1341
  101POPC   C4A 1581   1.461   1.939   7.413  0.1368 -0.0590 -0.2989
  101POPC   C1B 1582   2.422   3.194   7.682 -0.2420 -0.0735 -0.3083
  101POPC   C2B 1583   2.562   3.200   7.222 -0.1486 -0.0161  0.0470
  101POPC   C3B 1584   2.408   3.453   6.933 -0.1739  0.2060  0.0949
  101POPC   C4B 1585   2.318   3.686   6.554  0.0365 -0.1159  0.2044
  102POPC   NC3 1586   1.222   2.289   8.292  0.0736 -0.3575  0.1043
  102POPC   PO4 1587   1.484   2.704   8.278  0.3973 -0.0994  0.2777
  102POPC   GL1 1588   1.774   2.490   7.896 -0.3229  0.1849  0.0806
  102POPC   GL2 1589   2.059   2.630   8.092  0.1048  0.1464 -0.1528
  102POPC   C1A 1590   1.956   2.460   7.518 -0.3925  0.0448 -0.0270
  102POPC   D2A 1591   2.095   2.885   7.348 -0.3573  0.1109 -0.1139
  102POPC   C3A 1592   2.241   2.871   6.863 -0.1902 -0.2254 -0.0409
  102POPC   C4A 1593   2.109   3.081   6.408 -0.0144 -0.1944  0.2690
  102POPC   C1B 1594   2.378   2.693   7.839  0.3277 -0.0607  0.1974
  102POPC   C2B 1595   2.557   2.665   7.475  0.0984 -0.0958 -0.2495
  102POPC   C3B 1596   2.654   2.688   7.027  0.1870 -0.0766 -0.1129
  102POPC   C4B 1597   2.745   2.861   6.583  0.1296  0.0847  0.1457
  103POPC   NC3 1598   2.791   9.141   8.779 -0.3367  0.0328  0.0624
  103POPC   PO4 1599   2.336   9.018   8.629  0.1152 -0.3207  0.2872
  103POPC   GL1 1600   2.512   8.948   8.263  0.1619  0.0370 -0.2265
  103POPC   GL2 1601   2.468   8.699   7.986 -0.0700 -0.2031  0.1660
  103POPC   C1A 1602   2.837   9.045   7.916  0.0866  0.0349  0.2035
  103POPC   D2A 1603   2.863   9.149   7.494 -0.2755  0.0376  0.0137
  103POPC   C3A 1604   3.200   9.386   7.412  0.0717 -0.3214 -0.0284
  103POPC   C4A 1605   3.613   9.285   7.241  0.2915  0.0304  0.2208
  103POPC   C1B 1606   2.298   9.034   7.822 -0.0361 -0.2949  0.0882
  103POPC   C2B 1607   2.427   9.327   7.582 -0.0066  0.1395  0.2191
  103POPC   C3B 1608   2.393   9.420   7.187 -0.1943 -0.2331  0.1118
  103POPC   C4B 1609   2.081   9.416   6.882 -0.3730  0.0456  0.0316
  104POPC   NC3 1610   8.670   7.263   8.338  0.1645 -0.0985  0.1352
  104POPC   PO4 1611   8.233   7.359   8.199 -0.1738 -0.2574  0.2081
  104POPC   GL1 1612   8.068   7.216   7.864  0.0604 -0.1008  0.0243
  104POPC   GL2 1613   7.799   7.104   7.748  0.1399  0.0996 -0.2068
  104POPC   C1A 1614   8.173   7.316   7.449 -0.0285  0.1889 -0.0695
  104POPC   D2A 1615   8.213   7.530   7.049 -0.2096 -0.1655  0.2152
  104POPC   C3A 1616   8.114   7.797   6.713 -0.1829  0.0061 -0.2905
  104POPC   C4A 1617   8.218   8.222   6.427 -0.0261  0.0437  0.2267
  104POPC   C1B 1618   7.769   6.935   7.380  0.2439  0.1833 -0.3492
  104POPC   C2B 1619   7.939   6.876   6.920  0.1867  0.0149 -0.1101
  104POPC   C3B 1620   8.266   6.803   6.588 -0.0758  0.2081 -0.0492
  104POPC   C4B 1621   8.275   6.440   6.239 -0.2105  0.1002  0.0272
  105POPC   NC3 1622   2.365   3.914   8.495  0.0091  0.1744  0.0405
  105POPC   PO4 1623   2.469   3.629   8.182  0.1120  0.0691  0.0950
  105POPC   GL1 1624   2.087   3.670   8.041 -0.0956 -0.2143 -0.0834
  105POPC   GL2 1625   1.846   3.433   8.154  0.2202 -0.1838 -0.3360
  105POPC   C1A 1626   1.632   3.834   7.988  0.0223 -0.0515 -0.2024
  105POPC   D2A 1627   1.413   4.042   7.679 -0.3037  0.2881  0.3343
  105POPC   C3A 1628   1.648   4.308   7.390  0.1670  0.4675  0.2133
  105POPC   C4A 1629   1.969   4.278   7.046 -0.0219  0.1600  0.1175
  105POPC   C1B 1630   1.934   3.446   7.656  0.2515 -0.0027 -0.1167
  105POPC   C2B 1631   2.072   3.324   7.219  0.2791 -0.0688  0.2059
  105POPC   C3B 1632   1.924   3.286   6.809 -0.0147  0.0061  0.0717
  105POPC   C4B 1633   1.660   2.960   6.597 -0.2037 -0.4291  0.0681
  106POPC   NC3 1634   0.731   7.997   8.514  0.1371  0.3628  0.0607
  106POPC   PO4 1635   0.317   8.190   8.255  0.0466 -0.4069 -0.1755
  106POPC   GL1 1636   0.394   8.569   8.138  0.0445 -0.4792  0.2394
  106POPC   GL2 1637   0.118   8.607   7.887 -0.0011 -0.1616  0.2829
  106POPC   C1A 1638   0.782   8.696   7.943  0.3578 -0.0032 -0.3340
  106POPC   D2A 1639   1.192   8.486   7.827  0.0019 -0.1879  0.1004
  106POPC   C3A 1640   1.206   8.404   7.309  0.1253  0.2815 -0.2754
  106POPC   C4A 1641   1.365   8.635   6.957  0.1435  0.0047 -0.2951
  106POPC   C1B 1642  -0.107   8.745   7.492 -0.0445  0.2509  0.0305
  106POPC   C2B 1643  -0.425   8.678   7.218 -0.0872 -0.1398  0.0727
  106POPC   C3B 1644  -0.518   8.648   6.732 -0.1333 -0.2365  0.1348
  106POPC   C4B 1645  -0.552   8.597   6.318  0.2704 -0.3076 -0.1810
  107POPC   NC3 1646   0.395   3.531   9.424  0.3078  0.4100  0.0658
  107POPC   PO4 1647   0.017   3.228   9.322  0.1308 -0.3041 -0.4797
  107POPC   GL1 1648  -0.254   2.982   9.102 -0.1573  0.3245  0.0170
  107POPC   GL2 1649  -0.034   2.841   8.775  0.1330  0.2002  0.1296
  107POPC   C1A 1650  -0.569   2.982   8.751 -0.1205  0.0800  0.0767
  107POPC   D2A 1651  -0.582   3.041   8.287  0.1908  0.2296 -0.1891
  107POPC   C3A 1652  -0.530   2.663   8.053  0.0963 -0.2804  0.0445
  107POPC   C4A 1653  -0.427   2.665   7.599  0.3120 -0.2039 -0.0081
  107POPC   C1B 1654  -0.249   2.503   8.447 -0.1017  0.1493 -0.1591
  107POPC   C2B 1655  -0.060   2.518   8.042 -0.1119  0.0142  0.0054
  107POPC   C3B 1656   0.280   2.390   7.854  0.2131 -0.0986  0.1770
  107POPC   C4B 1657   0.493   2.066   7.561  0.1933 -0.3270 -0.1896
  108POPC   NC3 1658   1.171   9.493   8.494 -0.0135 -0.2050  0.1375
  108POPC   PO4 1659   1.197   9.214   8.813  0.0377 -0.2846  0.1348
  108POPC   GL1 1660   1.434   9.127   8.344 -0.0828 -0.0056 -0.1478
  108POPC   GL2 1661   1.560   9.403   8.194 -0.0925  0.1699 -0.0190
  108POPC   C1A 1662   1.163   8.993   7.985  0.2256 -0.3161 -0.0684
  108POPC   D2A 1663   1.150   8.935   7.569 -0.1412  0.0413 -0.0026
  108POPC   C3A 1664   0.783   8.724   7.337 -0.2257 -0.2028 -0.0530
  108POPC   C4A 1665   0.721   8.430   7.045  0.0163  0.0005  0.2032
  108POPC   C1B 1666   1.400   9.312   7.743  0.0042 -0.4920  0.0960
  108POPC   C2B 1667   1.215   9.404   7.308 -0.0941  0.0691 -0.2131
  108POPC   C3B 1668   1.094   9.069   7.066 -0.0288 -0.0674  0.2096
  108POPC   C4B 1669   0.618   8.870   6.853  0.0710 -0.0871  0.1500
  109POPC   NC3 1670   5.672   7.007   8.514  0.1690  0.0253 -0.0965
  109POPC   PO4 1671   5.714   6.919   8.057 -0.0721 -0.1514  0.2634
  109POPC   GL1 1672   6.043   7.206   7.798 -0.0300  0.0644  0.2160
  109POPC   GL2 1673   5.845   7.079   7.547 -0.2027  0.3104 -0.2695
  109POPC   C1A 1674   6.386   7.325   7.696 -0.3047  0.2237 -0.1747
  109POPC   D2A 1675   6.564   7.623   7.803  0.0724  0.0830 -0.1819
  109POPC   C3A 1676   6.983   7.764   7.840  0.2714 -0.2200  0.1559
  109POPC   C4A 1677   7.296   7.849   7.426  0.1814  0.1059 -0.1490
  109POPC   C1B 1678   5.614   7.317   7.263  0.1264 -0.3362 -0.0306
  109POPC   C2B 1679   5.912   7.624   7.244 -0.3891  0.1934 -0.0614
  109POPC   C3B 1680   6.371   7.713   7.364  0.1447 -0.3002  0.2650
  109POPC   C4B 1681   6.738   7.957   7.400  0.2261  0.1978  0.0800
  110POPC   NC3 1682   3.987   0.305   8.720 -0.3232  0.1278 -0.0222
  110POPC   PO4 1683   4.223   0.056   8.249 -0.0793 -0.0158 -0.1621
  110POPC   GL1 1684   4.127   0.253   7.877  0.0428 -0.1065  0.1581
  110POPC   GL2 1685   4.115   0.066   7.713  0.0206 -0.1346  0.0435
  110POPC   C1A 1686   4.107   0.495   7.371  0.2138 -0.0003 -0.4040
  110POPC   D2A 1687   3.866   0.706   7.141 -0.1148 -0.1912 -0.1388
  110POPC   C3A 1688   3.999   1.052   6.843  0.1736  0.3221  0.1918
  110POPC   C4A 1689   4.046   1.383   6.509  0.0691 -0.0190  0.0417
  110POPC   C1B 1690   4.440   0.034   7.351  0.1548 -0.0978  0.0958
  110POPC   C2B 1691   4.376  -0.058   6.949 -0.3608  0.0197 -0.2931
  110POPC   C3B 1692   4.259   0.100   6.508 -0.0556  0.3725  0.2710
  110POPC   C4B 1693   4.008   0.342   6.130  0.3111 -0.0008 -0.0207
  111POPC   NC3 1694   4.416   1.226   8.422  0.2432  0.2044  0.2745
  111POPC   PO4 1695   4.789   1.288   8.297 -0.0155  0.0506 -0.2120
  111POPC   GL1 1696   4.881   1.557   7.955  0.2185  0.2427  0.0367
  111POPC   GL2 1697   4.925   1.917   7.803 -0.3360 -0.2314 -0.0437
  111POPC   C1A 1698   4.757   1.474   7.513 -0.1258  0.1952 -0.1505
  111POPC   D2A 1699   4.809   1.527   7.034  0.0090  0.1393 -0.1429
  111POPC   C3A 1700   5.083   1.539   6.692  0.2896 -0.0946  0.0667
  111POPC   C4A 1701   5.324   1.816   6.532  0.2305  0.2131  0.2994
  111POPC   C1B 1702   4.928   1.925   7.337 -0.1410  0.1479 -0.2717
  111POPC   C2B 1703   5.262   1.796   7.182 -0.1167 -0.1072 -0.1725
  111POPC   C3B 1704   5.534   1.556   6.928  0.0783 -0.0597 -0.0020
  111POPC   C4B 1705   5.672   1.191   6.865  0.3932  0.3684 -0.2135
  112POPC   NC3 1706   1.648   4.501   8.879  0.0546  0.0686  0.0040
  112POPC   PO4 1707   1.976   4.265   8.712 -0.2921  0.0743 -0.0462
  112POPC   GL1 1708   1.780   4.535   8.381  0.2211 -0.1203 -0.0616
  112POPC   GL2 1709   1.886   4.791   8.533 -0.1414  0.2995 -0.0483
  112POPC   C1A 1710   1.508   4.410   8.008 -0.2207  0.0388  0.3763
  112POPC   D2A 1711   1.198   4.480   7.721 -0.0294  0.0301  0.2141
  112POPC   C3A 1712   0.951   4.114   7.764  0.0369  0.1002  0.1449
  112POPC   C4A 1713   0.805   3.641   7.666 -0.0478  0.1167  0.3897
  112POPC   C1B 1714   1.858   4.777   7.991 -0.0207  0.0607  0.0037
  112POPC   C2B 1715   2.091   4.574   7.800 -0.0463  0.2018  0.2132
  112POPC   C3B 1716   2.394   4.428   7.361 -0.1878  0.1750 -0.0745
  112POPC   C4B 1717   2.617   4.561   7.073  0.1602 -0.2602 -0.2220
  113POPC   NC3 1718   0.109   1.200   8.697  0.0492  0.2716 -0.0459
  113POPC   PO4 1719   0.580   1.084   8.576 -0.2084  0.0015 -0.0389
  113POPC   GL1 1720   0.600   1.293   8.181  0.0474  0.3725 -0.0041
  113POPC   GL2 1721   0.402   1.312   7.980  0.0861 -0.2657 -0.1298
  113POPC   C1A 1722   0.827   1.109   7.809 -0.0310 -0.1158  0.0596
  113POPC   D2A 1723   0.938   1.206   7.398  0.1617  0.5135 -0.0186
  113POPC   C3A 1724   0.888   1.160   6.942  0.2000 -0.0281 -0.1770
  113POPC   C4A 1725   0.995   0.864   6.657  0.1201  0.2404  0.0122
  113POPC   C1B 1726   0.164   1.653   7.718  0.2755  0.0369  0.1072
  113POPC   C2B 1727   0.086   1.787   7.301 -0.0091  0.2601 -0.0296
  113POPC   C3B 1728   0.141   1.525   6.918  0.0696 -0.3728  0.0424
  113POPC   C4B 1729   0.232   1.140   6.862 -0.1109 -0.0318  0.2968
  114POPC   NC3 1730   9.401   8.658   8.373  0.1540  0.0125  0.3752
  114POPC   PO4 1731   9.191   8.980   8.642 -0.1963 -0.1806  0.4266
  114POPC   GL1 1732   9.119   9.277   8.233  0.0346  0.1497  0.4341
  114POPC   GL2 1733   9.370   9.078   8.022  0.0197  0.0128  0.0139
  114POPC   C1A 1734   8.656   9.332   7.961  0.2031 -0.3125 -0.5540
  114POPC   D2A 1735   8.354   9.663   7.956 -0.1725 -0.0193 -0.0728
  114POPC   C3A 1736   8.073   9.701   7.703  0.0281 -0.0987 -0.0934
  114POPC   C4A 1737   7.868  10.045   7.630  0.1865 -0.2165 -0.0877
  114POPC   C1B 1738   9.067   9.247   7.634  0.2773  0.1449 -0.0515
  114POPC   C2B 1739   8.970   9.297   7.233 -0.1775 -0.0876  0.1503
  114POPC   C3B 1740   8.779   8.977   7.001 -0.1119  0.0125 -0.0526
  114POPC   C4B 1741   8.718   8.843   6.577  0.0169 -0.2706 -0.1356
  115POPC   NC3 1742   7.231   9.042   8.207 -0.0384 -0.1222  0.0392
  115POPC   PO4 1743   7.049   9.475   8.226 -0.0141 -0.0764 -0.1699
  115POPC   GL1 1744   7.139   9.747   8.006 -0.0353 -0.3028 -0.3226
  115POPC   GL2 1745   7.212  10.012   8.186  0.2447  0.1427 -0.3463
  115POPC   C1A 1746   7.240   9.996   7.708  0.2716 -0.1290 -0.0492
  115POPC   D2A 1747   7.490  10.314   7.458  0.7104 -0.0480 -0.1724
  115POPC   C3A 1748   7.850  10.525   7.596 -0.3822 -0.0827 -0.0721
  115POPC   C4A 1749   7.927  10.843   7.834 -0.1614 -0.0742 -0.0434
  115POPC   C1B 1750   6.954  10.319   8.072 -0.4842 -0.1236 -0.1173
  115POPC   C2B 1751   6.798  10.682   7.888  0.4995 -0.1634 -0.2210
  115POPC   C3B 1752   6.823  10.940   7.559 -0.2308 -0.1405 -0.0776
  115POPC   C4B 1753   6.725  11.177   7.146 -0.0871  0.0929  0.0249
  116POPC   NC3 1754   1.480   8.822   8.773  0.0434 -0.0619  0.0335
  116POPC   PO4 1755   1.812   9.136   8.693 -0.1608  0.1398  0.1038
  116POPC   GL1 1756   2.011   9.079   8.262 -0.0533  0.1757  0.3465
  116POPC   GL2 1757   1.996   8.700   8.160  0.0346  0.0586 -0.3237
  116POPC   C1A 1758   1.975   9.387   7.903 -0.3865 -0.1472  0.1015
  116POPC   D2A 1759   1.994   9.367   7.461  0.1413  0.1325  0.0710
  116POPC   C3A 1760   1.695   9.530   7.202 -0.1571  0.1123 -0.0911
  116POPC   C4A 1761   1.567   9.419   6.835 -0.4284 -0.0011 -0.1015
  116POPC   C1B 1762   1.585   8.847   7.838 -0.0287  0.1136  0.0225
  116POPC   C2B 1763   1.637   8.888   7.424  0.0464 -0.0254 -0.3640
  116POPC   C3B 1764   1.697   8.994   7.056  0.0244  0.0598  0.4008
  116POPC   C4B 1765   1.805   8.790   6.683  0.1302 -0.1436 -0.2008
  117POPC   NC3 1766   3.404   3.520   8.517 -0.1149  0.0052 -0.2499
  117POPC   PO4 1767   3.740   3.688   8.787  0.4052 -0.0900  0.1461
  117POPC   GL1 1768   3.804   3.737   8.322 -0.0068  0.0793 -0.2791
  117POPC   GL2 1769   3.659   3.474   8.143  0.1498 -0.0081 -0.2219
  117POPC   C1A 1770   3.991   3.785   7.921  0.0940  0.2277  0.2466
  117POPC   D2A 1771   4.154   3.544   7.597 -0.0894 -0.2250  0.0853
  117POPC   C3A 1772   4.204   3.633   7.149 -0.3155  0.0818  0.1413
  117POPC   C4A 1773   4.183   3.529   6.696  0.1853 -0.0585  0.2650
  117POPC   C1B 1774   3.795   3.273   7.712  0.1733 -0.3554  0.0404
  117POPC   C2B 1775   3.937   3.200   7.222 -0.1157 -0.0945 -0.2721
  117POPC   C3B 1776   4.158   3.081   6.934  0.0707 -0.1061 -0.4467
  117POPC   C4B 1777   4.487   3.118   6.632  0.1993 -0.0591 -0.0575
  118POPC   NC3 1778   9.480   7.136   8.328  0.0762 -0.0533  0.0258
  118POPC   PO4 1779   9.102   7.053   8.234 -0.0495 -0.1069  0.2979
  118POPC   GL1 1780   8.820   6.960   7.984 -0.1793  0.0439 -0.2862
  118POPC   GL2 1781   8.624   7.165   7.838  0.0295  0.0873  0.0082
  118POPC   C1A 1782   8.992   6.860   7.614 -0.0841  0.1119  0.2368
  118POPC   D2A 1783   9.166   6.969   7.218  0.0802  0.1398 -0.0673
  118POPC   C3A 1784   8.976   7.196   6.931  0.0304  0.0446 -0.3105
  118POPC   C4A 1785   8.680   7.491   6.851 -0.0352 -0.2505 -0.0058
  118POPC   C1B 1786   8.328   6.835   7.679  0.0848 -0.1671 -0.0267
  118POPC   C2B 1787   8.209   6.722   7.255  0.0634  0.2364 -0.3034
  118POPC   C3B 1788   8.359   6.374   6.891  0.0502  0.1994 -0.0405
  118POPC   C4B 1789   8.292   6.001   6.729  0.1569  0.4281  0.1325
  119POPC   NC3 1790   7.052   4.193   9.035 -0.0983 -0.3057 -0.0029
  119POPC   PO4 1791   6.563   3.980   9.133  0.1031  0.0948  0.2334
  119POPC   GL1 1792   6.304   3.586   9.036  0.0580  0.0322 -0.1032
  119POPC   GL2 1793   5.995   3.734   8.860 -0.1666 -0.0950 -0.0418
  119POPC   C1A 1794   6.367   3.260   8.741  0.1135 -0.1235 -0.0773
  119POPC   D2A 1795   6.056   3.004   8.486 -0.0909 -0.0637  0.0297
  119POPC   C3A 1796   6.177   2.737   8.190 -0.0332  0.4736 -0.0161
  119POPC   C4A 1797   6.396   2.431   8.199  0.0994  0.1317  0.1061
  119POPC   C1B 1798   5.988   4.041   8.530  0.1647 -0.4089 -0.1533
  119POPC   C2B 1799   6.135   4.216   8.123 -0.0751 -0.2236  0.0503
  119POPC   C3B 1800   5.903   4.190   7.651 -0.2808 -0.0319 -0.1253
  119POPC   C4B 1801   5.494   4.114   7.531 -0.2090 -0.1013 -0.0579
  120POPC   NC3 1802   5.565   0.203   8.232 -0.0676 -0.3901 -0.3962
  120POPC   PO4 1803   6.033  -0.039   8.272  0.0699  0.3208  0.0538
  120POPC   GL1 1804   6.038   0.200   8.010 -0.0629  0.0856 -0.0512
  120POPC   GL2 1805   6.286   0.100   7.812 -0.1792  0.0800  0.0842
  120POPC   C1A 1806   5.993   0.541   7.670 -0.1511 -0.1710  0.0129
  120POPC   D2A 1807   6.152   0.678   7.303 -0.1246 -0.2239 -0.0356
  120POPC   C3A 1808   6.521   0.614   7.068 -0.1558  0.0930 -0.1197
  120POPC   C4A 1809   6.793   0.368   6.759 -0.1652 -0.0006  0.2039
  120POPC   C1B 1810   6.239   0.173   7.397 -0.1776 -0.1583  0.3697
  120POPC   C2B 1811   6.183   0.306   6.996  0.2999  0.2438  0.2173
  120POPC   C3B 1812   6.053   0.485   6.680 -0.1506 -0.1701 -0.0055
  120POPC   C4B 1813   5.823   0.497   6.238 -0.1251  0.0293  0.1618
  121POPC   NC3 1814   7.461   9.632   8.494  0.2383  0.0242 -0.3031
  121POPC   PO4 1815   7.610   9.351   8.310  0.5233 -0.0610  0.0769
  121POPC   GL1 1816   7.507   9.422   7.865 -0.1213  0.1262 -0.1834
  121POPC   GL2 1817   7.339   9.245   7.740  0.0520  0.2708  0.0663
  121POPC   C1A 1818   7.636   9.619   7.533  0.1435 -0.1147 -0.0442
  121POPC   D2A 1819   7.976   9.552   7.256 -0.3716  0.0829 -0.2014
  121POPC   C3A 1820   8.184   9.853   7.230 -0.5564 -0.6303  0.1169
  121POPC   C4A 1821   8.467  10.007   7.495  0.0305  0.0563  0.1993
  121POPC   C1B 1822   7.087   9.541   7.450 -0.2197 -0.2259 -0.2450
  121POPC   C2B 1823   7.254   9.827   7.241 -0.0471 -0.0970 -0.2024
  121POPC   C3B 1824   7.419   9.882   6.889 -0.2745  0.1120 -0.1691
  121POPC   C4B 1825   7.865   9.936   6.840  0.0192 -0.2120  0.1548
  122POPC   NC3 1826   4.593   8.455   8.187 -0.2180 -0.0208 -0.2836
  122POPC   PO4 1827   4.292   8.238   7.954 -0.0371 -0.0502 -0.1527
  122POPC   GL1 1828   4.480   8.271   7.534  0.0752 -0.1708 -0.1361
  122POPC   GL2 1829   4.682   8.073   7.435 -0.0203  0.4478  0.1128
  122POPC   C1A 1830   4.421   8.532   7.088  0.1414  0.1725  0.1461
  122POPC   D2A 1831   4.134   8.768   6.676  0.0169 -0.1829 -0.1730
  122POPC   C3A 1832   4.202   8.799   6.305 -0.3426  0.0758  0.4245
  122POPC   C4A 1833   4.407   8.751   6.064  0.0226  0.0751 -0.0667
  122POPC   C1B 1834   4.551   8.019   7.008 -0.2031  0.0885 -0.2669
  122POPC   C2B 1835   4.782   7.992   6.637  0.1979  0.0148 -0.3070
  122POPC   C3B 1836   5.056   7.740   6.534 -0.1486  0.2691 -0.1281
  122POPC   C4B 1837   5.286   7.440   6.666  0.1208  0.0537 -0.2087
  123POPC   NC3 1838   3.976   2.894   8.757 -0.1494  0.0079  0.1720
  123POPC   PO4 1839   3.780   2.522   8.510  0.0450  0.1517 -0.0396
  123POPC   GL1 1840   3.713   2.506   8.058  0.2080 -0.0310 -0.1222
  123POPC   GL2 1841   3.525   2.279   7.896 -0.0348  0.2972 -0.1023
  123POPC   C1A 1842   3.942   2.718   7.763  0.0906  0.0226 -0.2757
  123POPC   D2A 1843   4.233   2.748   7.458 -0.0038  0.0140 -0.2325
  123POPC   C3A 1844   4.401   3.185   7.403  0.0610 -0.2957 -0.0916
  123POPC   C4A 1845   4.782   3.418   7.307  0.1067 -0.0629 -0.1377
  123POPC   C1B 1846   3.366   1.939   7.568 -0.0219 -0.2924  0.0506
  123POPC   C2B 1847   3.245   1.570   7.520  0.1723  0.0524 -0.0714
  123POPC   C3B 1848   3.057   1.030   7.548  0.3618 -0.0240 -0.0199
  123POPC   C4B 1849   2.921   0.749   7.292 -0.0117 -0.1295  0.1474
  124POPC   NC3 1850   5.084   3.533   8.797 -0.4402 -0.0953 -0.0108
  124POPC   PO4 1851   5.159   3.092   9.021 -0.3509 -0.3446  0.0135
  124POPC   GL1 1852   5.148   2.974   8.643 -0.1333 -0.0811 -0.0739
  124POPC   GL2 1853   4.987   3.192   8.483  0.4862  0.1881  0.3022
  124POPC   C1A 1854   5.066   2.844   8.110 -0.2103  0.1249  0.0042
  124POPC   D2A 1855   5.066   3.092   7.677  0.0852  0.3087 -0.0448
  124POPC   C3A 1856   5.453   2.998   7.624  0.3368 -0.2812 -0.0149
  124POPC   C4A 1857   5.904   3.092   7.472 -0.1223  0.1218  0.1871
  124POPC   C1B 1858   5.182   3.375   8.143 -0.1779  0.0001  0.0470
  124POPC   C2B 1859   5.594   3.393   7.931  0.1840 -0.1033  0.0308
  124POPC   C3B 1860   5.653   3.572   7.514  0.0788 -0.0525 -0.0080
  124POPC   C4B 1861   5.610   3.297   7.083  0.0964 -0.1461  0.0072
  125POPC   NC3 1862   9.015   4.821   8.843 -0.2779 -0.0762  0.1040
  125POPC   PO4 1863   8.892   4.490   8.558  0.0399 -0.1495 -0.0712
  125POPC   GL1 1864   9.112   4.308   8.228 -0.1192  0.3466  0.2943
  125POPC   GL2 1865   9.010   4.454   8.055  0.0797 -0.1682  0.2625
  125POPC   C1A 1866   8.990   3.940   8.323  0.0115 -0.1776 -0.1770
  125POPC   D2A 1867   9.303   3.537   8.164  0.0143 -0.3914  0.0757
  125POPC   C3A 1868   9.225   3.363   7.716  0.0909 -0.0923  0.1963
  125POPC   C4A 1869   9.293   3.101   7.410 -0.0400  0.1149  0.0103
  125POPC   C1B 1870   9.076   4.080   7.820  0.2700 -0.0585  0.0480
  125POPC   C2B 1871   8.850   3.781   7.611  0.1684  0.1087 -0.0225
  125POPC   C3B 1872   8.828   3.343   7.474  0.2704 -0.1764 -0.0463
  125POPC   C4B 1873   8.894   2.958   7.700  0.0834 -0.0523  0.0180
  126POPC   NC3 1874   0.183   7.802   8.662 -0.1084 -0.0123  0.0149
  126POPC   PO4 1875  -0.035   7.624   8.292  0.0189 -0.0619 -0.1206
  126POPC   GL1 1876  -0.095   7.452   7.877  0.0893 -0.1351  0.1678
  126POPC   GL2 1877   0.083   7.533   7.628  0.2468  0.1835 -0.0893
  126POPC   C1A 1878  -0.476   7.325   7.674 -0.1585  0.1173  0.2520
  126POPC   D2A 1879  -0.793   7.431   7.414  0.1833 -0.0879 -0.2142
  126POPC   C3A 1880  -1.068   7.172   7.308  0.3647 -0.1737 -0.0349
  126POPC   C4A 1881  -1.224   7.058   7.018 -0.2574 -0.0038  0.1980
  126POPC   C1B 1882  -0.304   7.711   7.367 -0.1520  0.0204 -0.2380
  126POPC   C2B 1883  -0.615   7.856   7.033  0.0797  0.2142  0.0230
  126POPC   C3B 1884  -0.637   7.665   6.583 -0.0359  0.0181 -0.0735
  126POPC   C4B 1885  -0.844   7.416   6.313  0.3160  0.4365 -0.2059
  127POPC   NC3 1886   9.267   3.027   9.583  0.1170 -0.1606  0.2016
  127POPC   PO4 1887   9.237   2.635   9.419 -0.0069  0.2411  0.1453
  127POPC   GL1 1888   9.041   2.537   9.074  0.0152 -0.2317  0.3242
  127POPC   GL2 1889   9.219   2.502   8.922  0.1702  0.1941  0.0417
  127POPC   C1A 1890   8.636   2.717   8.895  0.0137  0.0924 -0.2116
  127POPC   D2A 1891   8.348   2.801   8.504  0.0175  0.0227 -0.2921
  127POPC   C3A 1892   8.621   3.078   8.139  0.0719  0.1430  0.1568
  127POPC   C4A 1893   8.837   3.441   7.990  0.3326 -0.0062 -0.1257
  127POPC   C1B 1894   9.145   2.142   8.631  0.0735  0.1539 -0.1584
  127POPC   C2B 1895   9.102   2.199   8.264  0.1480 -0.0565  0.2427
  127POPC   C3B 1896   9.004   2.215   7.829  0.1250 -0.0446  0.0521
  127POPC   C4B 1897   9.022   2.133   7.373 -0.1637  0.1464 -0.2790
  128POPC   NC3 1898   4.694   6.212   8.911 -0.1170 -0.1579  0.1166
  128POPC   PO4 1899   4.960   6.515   8.584  0.2269 -0.1037  0.0256
  128POPC   GL1 1900   4.932   6.615   8.127 -0.2212  0.1373  0.0911
  128POPC   GL2 1901   4.979   6.412   7.916 -0.0076 -0.2665  0.1934
  128POPC   C1A 1902   4.732   6.866   7.814 -0.3906 -0.0146 -0.3735
  128POPC   D2A 1903   4.476   6.988   7.483  0.0160 -0.0195  0.0150
  128POPC   C3A 1904   4.515   6.947   7.117  0.0382 -0.1280  0.1865
  128POPC   C4A 1905   4.804   6.929   6.833 -0.3338  0.1581  0.0664
  128POPC   C1B 1906   5.265   6.449   7.596  0.0768  0.0784 -0.0144
  128POPC   C2B 1907   5.634   6.367   7.485 -0.0436 -0.2730  0.0103
  128POPC   C3B 1908   5.784   5.952   7.261  0.0572  0.2488 -0.0718
  128POPC   C4B 1909   5.805   5.669   7.002 -0.2131  0.1425 -0.4117
  129POPC   NC3 1910   1.771   0.378   8.696  0.1183 -0.2033 -0.0292
  129POPC   PO4 1911   1.819   0.609   8.388  0.1837  0.0930  0.2771
  129POPC   GL1 1912   1.820   0.510   7.902 -0.1639  0.1530  0.1099
  129POPC   GL2 1913   1.886   0.720   7.608  0.2846 -0.0185  0.2848
  129POPC   C1A 1914   1.703   0.155   7.670  0.0125 -0.0727  0.3624
  129POPC   D2A 1915   1.309   0.119   7.554 -0.0896 -0.0992 -0.2350
  129POPC   C3A 1916   1.193   0.583   7.456 -0.0549  0.1588 -0.0614
  129POPC   C4A 1917   1.076   0.744   7.143  0.0919  0.3561  0.0024
  129POPC   C1B 1918   1.617   0.473   7.289  0.1807  0.1135  0.0735
  129POPC   C2B 1919   1.459   0.312   6.956  0.1919  0.2394 -0.0714
  129POPC   C3B 1920   1.458   0.113   6.507  0.1012  0.0667 -0.0107
  129POPC   C4B 1921   1.434   0.111   6.056  0.0467 -0.1140  0.3231
  130POPC   NC3 1922   9.604   8.057   7.976 -0.1154  0.0194  0.2496
  130POPC   PO4 1923   9.157   8.132   7.882 -0.1794 -0.1998 -0.0797
  130POPC   GL1 1924   9.240   8.238   7.471 -0.1763 -0.2790  0.1779
  130POPC   GL2 1925   9.582   8.215   7.512  0.0771 -0.1413  0.4430
  130POPC   C1A 1926   9.459   8.288   7.024 -0.1815 -0.0811 -0.0847
  130POPC   D2A 1927   9.510   8.314   6.509  0.0368  0.2298  0.1161
  130POPC   C3A 1928   9.858   7.982   6.445  0.1457 -0.0958  0.3982
  130POPC   C4A 1929  10.218   7.886   6.692  0.0615 -0.1009  0.3649
  130POPC   C1B 1930   9.918   7.921   7.441 -0.0655 -0.1538 -0.2188
  130POPC   C2B 1931   9.920   7.583   7.036  0.1225 -0.3302 -0.0943
  130POPC   C3B 1932   9.769   7.446   6.587 -0.0268 -0.0290 -0.1096
  130POPC   C4B 1933   9.685   7.473   6.230 -0.1179 -0.2205  0.0806
  131POPC   NC3 1934   5.305   3.810   9.122 -0.0658  0.2046  0.0577
  131POPC   PO4 1935   5.574   3.538   9.108  0.1782 -0.0990  0.0962
  131POPC   GL1 1936   5.562   3.279   8.762  0.1827 -0.3300  0.1260
  131POPC   GL2 1937   5.638   2.967   8.774 -0.0241 -0.2344 -0.1506
  131POPC   C1A 1938   5.820   3.470   8.421 -0.0309  0.0692  0.2043
  131POPC   D2A 1939   5.918   3.752   8.101 -0.0112 -0.1720  0.1994
  131POPC   C3A 1940   6.181   3.615   7.696  0.0779  0.0676  0.0313
  131POPC   C4A 1941   6.511   3.256   7.689 -0.1033 -0.3914  0.1250
  131POPC   C1B 1942   5.497   2.996   8.259  0.1332 -0.1375  0.0367
  131POPC   C2B 1943   5.847   3.003   7.935 -0.5045  0.0563 -0.1336
  131POPC   C3B 1944   6.080   2.688   7.707  0.2933 -0.0907 -0.2190
  131POPC   C4B 1945   6.372   2.490   7.483 -0.1476  0.2679 -0.4361
  132POPC   NC3 1946   6.527   5.752   8.388  0.1406 -0.0100 -0.4067
  132POPC   PO4 1947   6.809   6.195   8.345  0.0952  0.4345 -0.0025
  132POPC   GL1 1948   6.587   6.284   8.057 -0.3783  0.1402  0.3196
  132POPC   GL2 1949   6.670   6.013   7.803  0.1469 -0.3342 -0.1864
  132POPC   C1A 1950   6.656   6.471   7.631 -0.3453  0.0467 -0.0421
  132POPC   D2A 1951   6.633   6.512   7.200 -0.3121 -0.1233 -0.2721
  132POPC   C3A 1952   6.231   6.518   7.087  0.0449  0.1547  0.1068
  132POPC   C4A 1953   5.857   6.345   6.990 -0.0953 -0.1895  0.0460
  132POPC   C1B 1954   6.812   6.019   7.344 -0.0162  0.1145 -0.0019
  132POPC   C2B 1955   6.987   6.297   6.946  0.0460  0.1168  0.1320
  132POPC   C3B 1956   7.119   6.415   6.566  0.1865 -0.0709 -0.0061
  132POPC   C4B 1957   7.079   6.358   6.207  0.1638  0.2010  0.3340
  133POPC   NC3 1958   7.149   8.715   8.789 -0.2081 -0.2717  0.0223
  133POPC   PO4 1959   7.383   8.551   8.507 -0.1088 -0.1437  0.3381
  133POPC   GL1 1960   7.430   8.565   8.034 -0.1049  0.1253  0.0958
  133POPC   GL2 1961   7.833   8.455   7.926 -0.4925 -0.3005 -0.0533
  133POPC   C1A 1962   7.499   8.761   7.650 -0.0497 -0.0948  0.0328
  133POPC   D2A 1963   7.324   9.043   7.245 -0.0350  0.0500  0.0543
  133POPC   C3A 1964   7.488   9.424   6.991  0.0255 -0.0384 -0.3699
  133POPC   C4A 1965   7.898   9.453   6.740  0.0528 -0.2966 -0.0005
  133POPC   C1B 1966   7.981   8.630   7.542  0.1032 -0.0773 -0.1686
  133POPC   C2B 1967   8.260   8.704   7.200  0.0366 -0.3833  0.0986
  133POPC   C3B 1968   8.467   8.479   6.804  0.2751 -0.2265 -0.2548
  133POPC   C4B 1969   8.660   8.380   6.370  0.1213  0.1838 -0.4359
  134POPC   NC3 1970   4.886   8.824   7.981 -0.1496 -0.0437 -0.1759
  134POPC   PO4 1971   5.288   8.909   8.082  0.0060  0.1233  0.0156
  134POPC   GL1 1972   5.252   8.818   7.596  0.4208  0.0754 -0.0370
  134POPC   GL2 1973   5.441   8.570   7.512 -0.0166 -0.1281  0.0124
  134POPC   C1A 1974   5.329   9.129   7.258  0.1987 -0.0770 -0.3175
  134POPC   D2A 1975   5.269   9.371   6.858  0.0996  0.0676 -0.0669
  134POPC   C3A 1976   5.495   9.482   6.565  0.0804 -0.0248  0.1092
  134POPC   C4A 1977   5.766   9.793   6.672 -0.0529  0.0301 -0.0628
  134POPC   C1B 1978   5.354   8.586   7.131 -0.0239  0.1845 -0.0761
  134POPC   C2B 1979   5.393   8.749   6.755 -0.0702  0.2636 -0.1084
  134POPC   C3B 1980   5.124   8.986   6.494 -0.0013 -0.1465  0.1172
  134POPC   C4B 1981   4.706   9.081   6.289 -0.2658  0.2205  0.1515
  135POPC   NC3 1982   2.522   4.886   8.725  0.1650  0.2746 -0.1654
  135POPC   PO4 1983   2.524   4.507   8.600  0.1053  0.0011  0.4344
  135POPC   GL1 1984   2.384   4.299   8.170 -0.1458 -0.4303  0.0418
  135POPC   GL2 1985   2.084   4.148   8.142  0.0053  0.0457  0.1634
  135POPC   C1A 1986   2.397   4.076   7.663  0.0888 -0.0812 -0.1955
  135POPC   D2A 1987   2.471   3.708   7.368 -0.0971 -0.0086  0.0505
  135POPC   C3A 1988   2.342   3.925   7.029  0.0425  0.0156  0.2893
  135POPC   C4A 1989   2.354   4.252   6.820  0.1079  0.1114  0.1343
  135POPC   C1B 1990   1.929   4.089   7.686  0.0473 -0.0930 -0.4363
  135POPC   C2B 1991   1.962   3.817   7.340  0.0721  0.2265  0.0683
  135POPC   C3B 1992   1.819   3.826   7.006  0.2971  0.1203  0.2032
  135POPC   C4B 1993   1.414   3.884   7.041  0.3643 -0.0913 -0.0469
  136POPC   NC3 1994   3.474   0.979   8.916 -0.2787 -0.2498 -0.3288
  136POPC   PO4 1995   3.710   0.688   8.571 -0.1926  0.0676  0.1327
  136POPC   GL1 1996   3.632   0.530   8.174 -0.1801  0.3230 -0.3706
  136POPC   GL2 1997   3.327   0.721   7.995  0.4796 -0.1092 -0.2337
  136POPC   C1A 1998   3.592   0.284   7.780  0.3083 -0.3091  0.5325
  136POPC   D2A 1999   3.722   0.113   7.350  0.1143 -0.1898 -0.1882
  136POPC   C3A 2000   3.471  -0.013   6.952 -0.0493  0.0231  0.2194
  136POPC   C4A 2001   3.217  -0.164   6.502  0.0732 -0.1756  0.0960
  136POPC   C1B 2002   3.469   0.702   7.538  0.0576 -0.3043 -0.1656
  136POPC   C2B 2003   3.485   1.015   7.277  0.2978  0.2710  0.1066
  136POPC   C3B 2004   3.650   1.407   7.085  0.1821  0.1489  0.1393
  136POPC   C4B 2005   3.543   1.839   7.065 -0.0921 -0.3248 -0.0162
  137POPC   NC3 2006   7.022   6.095   8.775  0.0974  0.2467 -0.2139
  137POPC   PO4 2007   6.959   5.706   8.591 -0.3510  0.1861  0.2292
  137POPC   GL1 2008   6.981   5.678   8.059  0.1159 -0.1174 -0.1106
  137POPC   GL2 2009   7.203   5.457   8.034 -0.0939  0.0897 -0.1048
  137POPC   C1A 2010   6.825   5.623   7.595 -0.1372  0.2675  0.0969
  137POPC   D2A 2011   6.801   5.375   7.177 -0.1860 -0.1114  0.0745
  137POPC   C3A 2012   6.652   5.385   6.771 -0.0338  0.1430 -0.0033
  137POPC   C4A 2013   6.397   5.072   6.479  0.1218  0.1665 -0.1959
  137POPC   C1B 2014   7.213   5.182   7.719 -0.0854  0.1609  0.3073
  137POPC   C2B 2015   7.331   4.953   7.367 -0.2004 -0.1357 -0.0054
  137POPC   C3B 2016   7.234   4.679   7.051 -0.2147  0.2565  0.0523
  137POPC   C4B 2017   7.276   4.335   7.030  0.1177  0.4487 -0.4186
  138POPC   NC3 2018   9.590   6.318   8.660  0.1322 -0.1026  0.1377
  138POPC   PO4 2019   9.331   6.557   8.417  0.1419 -0.2418  0.3001
  138POPC   GL1 2020   9.420   6.665   7.955 -0.1878 -0.2641 -0.0513
  138POPC   GL2 2021   9.488   6.932   7.905 -0.0932  0.0771 -0.1279
  138POPC   C1A 2022   9.311   6.512   7.541  0.3960 -0.2517  0.0573
  138POPC   D2A 2023   9.620   6.645   7.193  0.0571  0.1121  0.2319
  138POPC   C3A 2024   9.590   6.852   6.797  0.1268 -0.2815  0.2973
  138POPC   C4A 2025   9.691   6.716   6.363 -0.0572  0.3968  0.1121
  138POPC   C1B 2026   9.630   7.069   7.535  0.5310 -0.1247  0.3568
  138POPC   C2B 2027   9.539   7.288   6.978  0.4584 -0.0132 -0.0144
  138POPC   C3B 2028   9.488   7.797   6.780  0.1019  0.1032  0.1532
  138POPC   C4B 2029   9.426   7.905   6.224  0.2381  0.1914  0.2722
  139POPC   NC3 2030   4.603   5.197   8.452 -0.0422  0.1950  0.1172
  139POPC   PO4 2031   4.196   5.166   8.359  0.1970  0.1102  0.1480
  139POPC   GL1 2032   4.143   5.216   7.975 -0.0214 -0.1200 -0.0564
  139POPC   GL2 2033   4.303   5.458   7.929 -0.0503  0.0364  0.1022
  139POPC   C1A 2034   4.264   5.105   7.574  0.0817 -0.0604  0.4372
  139POPC   D2A 2035   4.622   5.031   7.215 -0.0674 -0.1928  0.0536
  139POPC   C3A 2036   4.574   4.781   6.898 -0.2318  0.4446 -0.1994
  139POPC   C4A 2037   4.218   4.453   6.854  0.0496  0.0804  0.0728
  139POPC   C1B 2038   4.499   5.533   7.416  0.2264  0.0141 -0.2507
  139POPC   C2B 2039   4.351   5.604   7.033  0.0108 -0.3325 -0.0439
  139POPC   C3B 2040   4.457   5.538   6.539 -0.2078 -0.1476 -0.1998
  139POPC   C4B 2041   4.521   5.665   6.091  0.2650  0.0692 -0.0073
  140POPC   NC3 2042   9.617   5.232   8.468 -0.2768 -0.0237  0.1908
  140POPC   PO4 2043   9.204   5.188   8.593 -0.0955 -0.0043 -0.0140
  140POPC   GL1 2044   9.228   5.333   8.171  0.0016  0.0805 -0.3408
  140POPC   GL2 2045   9.553   5.129   7.965  0.0852 -0.2194 -0.0031
  140POPC   C1A 2046   9.233   5.487   7.747  0.0112 -0.0377 -0.3077
  140POPC   D2A 2047   9.318   5.540   7.296  0.0769 -0.1145 -0.3784
  140POPC   C3A 2048   9.110   5.640   6.926  0.0163  0.1828 -0.0617
  140POPC   C4A 2049   8.841   5.771   6.683  0.1561 -0.0389 -0.1019
  140POPC   C1B 2050   9.602   4.990   7.625  0.2312 -0.0331  0.2430
  140POPC   C2B 2051   9.776   4.718   7.382 -0.0198  0.2298 -0.4469
  140POPC   C3B 2052   9.977   4.840   7.044  0.0437 -0.0680  0.2560
  140POPC   C4B 2053  10.017   4.672   6.710 -0.0700  0.0381 -0.0115
  141POPC   NC3 2054   9.642   4.628   9.165 -0.1309  0.4459 -0.1915
  141POPC   PO4 2055   9.451   4.622   8.707 -0.1904  0.1200 -0.1891
  141POPC   GL1 2056   9.347   4.790   8.308 -0.1016  0.2470  0.1369
  141POPC   GL2 2057   9.501   4.603   8.085  0.2777 -0.2519  0.1608
  141POPC   C1A 2058   9.128   4.937   7.846  0.0668  0.1585 -0.1804
  141POPC   D2A 2059   9.020   5.026   7.501 -0.0411  0.0680  0.1162
  141POPC   C3A 2060   9.132   4.736   7.194 -0.2017 -0.0526 -0.1944
  141POPC   C4A 2061   8.783   4.450   7.050  0.2763 -0.3248 -0.2042
  141POPC   C1B 2062   9.339   4.481   7.646 -0.1112 -0.1028 -0.0127
  141POPC   C2B 2063   9.159   4.205   7.295  0.0114  0.0010 -0.1725
  141POPC   C3B 2064   8.883   3.973   7.114 -0.0770 -0.0898  0.1852
  141POPC   C4B 2065   8.626   3.666   7.091  0.1988 -0.3373  0.1973
  142POPC   NC3 2066   1.834   6.441   8.991  0.1384 -0.0033 -0.2395
  142POPC   PO4 2067   1.704   6.366   8.543 -0.0744  0.1180 -0.0150
  142POPC   GL1 2068   1.585   6.253   8.130  0.0578 -0.0741  0.2202
  142POPC   GL2 2069   1.561   6.512   7.959 -0.3213  0.0231  0.1678
  142POPC   C1A 2070   1.684   6.138   7.644 -0.1794  0.0380  0.0702
  142POPC   D2A 2071   1.726   5.852   7.363 -0.2639 -0.0684 -0.0047
  142POPC   C3A 2072   1.588   6.033   7.031 -0.0925 -0.1942 -0.3695
  142POPC   C4A 2073   1.421   6.527   6.928  0.3795  0.2145 -0.0912
  142POPC   C1B 2074   2.061   6.368   7.839 -0.1068  0.1575 -0.0023
  142POPC   C2B 2075   2.206   6.015   7.518 -0.1381 -0.2678 -0.0051
  142POPC   C3B 2076   2.149   5.927   7.189 -0.1963  0.0020  0.0211
  142POPC   C4B 2077   1.934   5.652   6.838  0.1802 -0.3581 -0.2564
  143POPC   NC3 2078   8.000   1.608   9.233  0.1122 -0.0154 -0.0485
  143POPC   PO4 2079   7.660   1.308   9.266 -0.1709 -0.3608  0.2895
  143POPC   GL1 2080   7.899   1.401   8.806 -0.0929  0.2153  0.0276
  143POPC   GL2 2081   8.121   1.093   8.639  0.0154  0.1157  0.4762
  143POPC   C1A 2082   7.840   1.756   8.612 -0.2428  0.0048  0.2179
  143POPC   D2A 2083   7.390   1.891   8.532 -0.0329  0.0750  0.1141
  143POPC   C3A 2084   7.365   2.086   8.116 -0.2340  0.1682 -0.2594
  143POPC   C4A 2085   7.416   2.119   7.641 -0.2591 -0.2331  0.0547
  143POPC   C1B 2086   7.954   1.201   8.308 -0.1418 -0.2580  0.5042
  143POPC   C2B 2087   7.506   1.276   8.120  0.2025 -0.0732  0.3026
  143POPC   C3B 2088   7.157   1.136   8.184  0.0469  0.1027  0.0652
  143POPC   C4B 2089   6.870   1.024   8.501  0.1440 -0.0731 -0.2052
  144POPC   NC3 2090   6.962   7.475   4.108 -0.4768  0.3488  0.2608
  144POPC   PO4 2091   7.193   7.250   4.631 -0.1795  0.0922  0.3191
  144POPC   GL1 2092   7.075   7.172   4.999  0.2173  0.0193 -0.1745
  144POPC   GL2 2093   7.149   6.846   5.105  0.3762  0.1433  0.1500
  144POPC   C1A 2094   7.009   7.320   5.475  0.0750 -0.1556 -0.3960
  144POPC   D2A 2095   6.758   7.347   5.921  0.1433 -0.0125 -0.1047
  144POPC   C3A 2096   6.966   7.334   6.323  0.0176 -0.0054 -0.1680
  144POPC   C4A 2097   7.286   7.249   6.762 -0.2477  0.1098 -0.0204
  144POPC   C1B 2098   7.177   6.555   5.359  0.0268  0.1930 -0.2990
  144POPC   C2B 2099   7.349   6.324   5.700 -0.0629  0.2663 -0.0814
  144POPC   C3B 2100   7.547   5.905   5.700 -0.0118  0.1039 -0.4865
  144POPC   C4B 2101   7.799   5.671   5.938 -0.4241 -0.1819  0.1155
  145POPC   NC3 2102   8.089   6.952   4.151 -0.0871 -0.1091 -0.2340
  145POPC   PO4 2103   8.327   6.822   4.512 -0.1868  0.1629  0.1058
  145POPC   GL1 2104   8.249   6.711   4.947  0.1960 -0.0912  0.2097
  145POPC   GL2 2105   8.093   6.393   5.112  0.1933 -0.1212  0.1658
  145POPC   C1A 2106   8.438   6.691   5.361  0.0737 -0.0572  0.2063
  145POPC   D2A 2107   8.816   6.564   5.687  0.2638  0.0668 -0.0000
  145POPC   C3A 2108   9.049   6.748   6.097 -0.2744  0.2118  0.1241
  145POPC   C4A 2109   8.810   6.931   6.446  0.1897  0.0817 -0.1719
  145POPC   C1B 2110   8.300   6.177   5.449  0.0010 -0.0692 -0.1286
  145POPC   C2B 2111   8.520   6.211   5.832  0.0583  0.0963 -0.1787
  145POPC   C3B 2112   8.773   6.296   6.240 -0.1533 -0.0001 -0.0094
  145POPC   C4B 2113   8.780   6.249   6.554  0.3502  0.2352 -0.4697
  146POPC   NC3 2114   5.637   2.046   3.961  0.0823  0.3380 -0.0376
  146POPC   PO4 2115   5.938   1.706   3.907  0.1437 -0.1129  0.3296
  146POPC   GL1 2116   5.882   1.901   4.389 -0.0077 -0.3934 -0.0417
  146POPC   GL2 2117   5.689   2.147   4.463  0.3065 -0.2909 -0.4209
  146POPC   C1A 2118   6.142   2.223   4.505  0.1254 -0.1115  0.0684
  146POPC   D2A 2119   6.334   2.586   4.590 -0.0799  0.2490 -0.0188
  146POPC   C3A 2120   6.721   2.446   4.794  0.0665  0.2201 -0.1273
  146POPC   C4A 2121   7.069   2.351   5.040 -0.0020 -0.1570  0.5456
  146POPC   C1B 2122   5.798   2.237   4.822  0.0119 -0.0815 -0.2363
  146POPC   C2B 2123   5.981   2.471   5.227 -0.1863  0.3596  0.2069
  146POPC   C3B 2124   5.936   2.572   5.665  0.0671 -0.0882 -0.2374
  146POPC   C4B 2125   5.559   2.699   5.883 -0.3068 -0.5086  0.0621
  147POPC   NC3 2126   0.736   6.421   4.802  0.0271  0.1560  0.1053
  147POPC   PO4 2127   0.942   6.069   4.580 -0.0776 -0.0802  0.3926
  147POPC   GL1 2128   1.165   6.188   4.892  0.1021  0.2904  0.0499
  147POPC   GL2 2129   1.238   6.476   4.947  0.0665  0.0625 -0.2287
  147POPC   C1A 2130   1.348   6.033   5.309  0.0127 -0.0364 -0.0564
  147POPC   D2A 2131   1.197   6.061   5.623 -0.0505 -0.5631  0.2937
  147POPC   C3A 2132   1.088   5.791   6.043  0.1453 -0.1626  0.0858
  147POPC   C4A 2133   1.179   5.727   6.300 -0.0991 -0.1109 -0.2022
  147POPC   C1B 2134   1.253   6.547   5.348  0.0606 -0.0889  0.0195
  147POPC   C2B 2135   1.231   6.498   5.790 -0.2957  0.1188  0.1172
  147POPC   C3B 2136   0.957   6.226   6.005 -0.1864  0.0596  0.1713
  147POPC   C4B 2137   0.721   6.072   6.269  0.0854  0.1319 -0.1462
  148POPC   NC3 2138   8.950   5.350   4.451  0.2671 -0.2473 -0.1205
  148POPC   PO4 2139   9.235   5.662   4.662 -0.3198  0.0129  0.2139
  148POPC   GL1 2140   9.337   5.596   5.079  0.1252 -0.2878  0.0091
  148POPC   GL2 2141   9.260   5.827   5.324  0.1924 -0.1579  0.1709
  148POPC   C1A 2142   9.577   5.457   5.404  0.2351 -0.0204  0.0152
  148POPC   D2A 2143   9.724   5.603   5.675 -0.2140 -0.2239  0.0715
  148POPC   C3A 2144   9.853   5.322   5.960  0.2060 -0.2001 -0.1145
  148POPC   C4A 2145   9.609   5.229   6.334  0.0093  0.0817  0.2836
  148POPC   C1B 2146   9.277   5.788   5.733  0.0478 -0.0613 -0.0821
  148POPC   C2B 2147   9.589   5.722   6.132 -0.1077  0.0776 -0.1073
  148POPC   C3B 2148   9.619   5.731   6.580  0.0690  0.2377 -0.1116
  148POPC   C4B 2149   9.613   5.694   6.909 -0.0212 -0.1719 -0.3425
  149POPC   NC3 2150   8.745   1.983   4.198 -0.2444 -0.2319  0.2738
  149POPC   PO4 2151   9.090   2.185   3.862  0.2158  0.0330 -0.1732
  149POPC   GL1 2152   9.053   2.434   4.296  0.2196 -0.1580  0.1678
  149POPC   GL2 2153   9.362   2.428   4.378 -0.0646  0.1673 -0.0464
  149POPC   C1A 2154   8.945   2.632   4.585 -0.0784 -0.0500 -0.1432
  149POPC   D2A 2155   8.812   3.054   4.740 -0.0927 -0.0424  0.3406
  149POPC   C3A 2156   8.972   3.244   5.215  0.1499  0.1061 -0.2349
  149POPC   C4A 2157   9.111   3.217   5.701 -0.0712 -0.0228 -0.4193
  149POPC   C1B 2158   9.500   2.632   4.751 -0.1456 -0.2841  0.0395
  149POPC   C2B 2159   9.103   2.706   5.052 -0.0535 -0.1114 -0.0197
  149POPC   C3B 2160   8.749   2.821   5.186  0.0510 -0.0106 -0.2164
  149POPC   C4B 2161   8.513   2.805   5.570  0.0874 -0.4644  0.1431
  150POPC   NC3 2162   2.927   1.100   4.844  0.2238 -0.4820 -0.3120
  150POPC   PO4 2163   2.930   0.659   4.846  0.0907  0.0989 -0.1638
  150POPC   GL1 2164   2.936   0.766   5.235  0.2995  0.0460 -0.0042
  150POPC   GL2 2165   3.169   0.976   5.271  0.0947  0.1312 -0.1628
  150POPC   C1A 2166   2.823   1.030   5.618 -0.2105  0.6949 -0.5669
  150POPC   D2A 2167   2.602   1.009   5.989 -0.2499 -0.2275  0.0177
  150POPC   C3A 2168   2.327   1.151   6.254 -0.3523 -0.3797 -0.2117
  150POPC   C4A 2169   2.350   1.686   6.344 -0.1964  0.0304 -0.4101
  150POPC   C1B 2170   3.336   0.852   5.622  0.2458  0.4397  0.3677
  150POPC   C2B 2171   3.579   0.899   5.907  0.2625 -0.2204  0.1555
  150POPC   C3B 2172   3.676   0.738   6.298 -0.0219  0.2162 -0.0395
  150POPC   C4B 2173   3.750   0.416   6.638  0.0933  0.0817  0.1235
  151POPC   NC3 2174   7.355   7.554   5.013  0.0881 -0.1313  0.1207
  151POPC   PO4 2175   7.202   7.965   4.954  0.1094  0.0264 -0.1646
  151POPC   GL1 2176   7.144   8.137   5.360 -0.0629  0.2282  0.1334
  151POPC   GL2 2177   6.746   8.222   5.380  0.0153 -0.0772 -0.1896
  151POPC   C1A 2178   7.238   8.119   5.774 -0.0788 -0.0597  0.1096
  151POPC   D2A 2179   7.447   8.078   6.181 -0.2886 -0.0425  0.1589
  151POPC   C3A 2180   7.625   8.416   6.441 -0.2307  0.1401  0.3221
  151POPC   C4A 2181   7.458   8.689   6.708  0.1518 -0.2360 -0.0688
  151POPC   C1B 2182   6.756   8.307   5.704  0.2158 -0.0694 -0.0649
  151POPC   C2B 2183   6.705   8.742   6.007 -0.0946  0.1761 -0.0071
  151POPC   C3B 2184   6.736   9.040   6.173  0.3527 -0.2232 -0.0448
  151POPC   C4B 2185   6.602   9.246   6.492 -0.0367  0.3074 -0.0222
  152POPC   NC3 2186   1.535   6.765   4.723  0.0821 -0.3882  0.1757
  152POPC   PO4 2187   1.630   7.198   4.808  0.1356  0.3751  0.2440
  152POPC   GL1 2188   1.624   6.924   5.178 -0.2059  0.1381 -0.3092
  152POPC   GL2 2189   1.672   6.559   5.176 -0.2158 -0.1552 -0.0350
  152POPC   C1A 2190   1.575   6.839   5.678 -0.1225 -0.0986  0.1356
  152POPC   D2A 2191   1.729   7.007   6.092 -0.0998  0.1761 -0.2548
  152POPC   C3A 2192   2.085   6.774   6.213 -0.1116  0.2356 -0.0678
  152POPC   C4A 2193   2.611   6.772   6.305  0.2126 -0.0562 -0.1341
  152POPC   C1B 2194   1.696   6.359   5.542  0.0467 -0.1013 -0.0501
  152POPC   C2B 2195   1.834   6.428   5.922 -0.3237  0.0879 -0.1524
  152POPC   C3B 2196   1.998   6.262   6.309 -0.1063 -0.0747  0.1864
  152POPC   C4B 2197   2.408   6.404   6.560  0.0643 -0.0015 -0.1738
  153POPC   NC3 2198   6.546   1.162   3.681 -0.2288  0.2607  0.1063
  153POPC   PO4 2199   6.804   1.431   3.619  0.1577  0.1497 -0.0873
  153POPC   GL1 2200   7.006   1.714   3.860 -0.0001 -0.0654  0.1638
  153POPC   GL2 2201   7.224   1.835   3.916  0.0436  0.1517  0.0809
  153POPC   C1A 2202   6.960   2.159   4.137 -0.4253  0.0312  0.0092
  153POPC   D2A 2203   7.034   2.155   4.543  0.5367 -0.2746  0.1528
  153POPC   C3A 2204   7.413   2.112   4.747  0.1545  0.3175  0.2151
  153POPC   C4A 2205   7.774   1.967   4.914 -0.0020 -0.1878  0.0228
  153POPC   C1B 2206   7.516   1.928   4.316  0.0100  0.0084 -0.0949
  153POPC   C2B 2207   7.689   2.398   4.451  0.1189  0.0231 -0.1118
  153POPC   C3B 2208   7.643   2.839   4.442 -0.1217 -0.0245 -0.1698
  153POPC   C4B 2209   7.328   3.136   4.349  0.2320 -0.0620  0.0161
  154POPC   NC3 2210   7.789   6.207   4.202  0.2254  0.1459 -0.2798
  154POPC   PO4 2211   7.511   6.242   4.520  0.0166 -0.0315 -0.0278
  154POPC   GL1 2212   7.282   5.924   4.876 -0.1898 -0.1595  0.2982
  154POPC   GL2 2213   7.167   5.652   4.788 -0.0006  0.2044 -0.0425
  154POPC   C1A 2214   7.107   5.797   5.397 -0.2357 -0.0548  0.0392
  154POPC   D2A 2215   7.072   5.886   5.838 -0.1398 -0.3582  0.2794
  154POPC   C3A 2216   6.881   5.567   6.065 -0.0549 -0.0251  0.0389
  154POPC   C4A 2217   6.534   5.495   6.278  0.0801 -0.1300  0.0494
  154POPC   C1B 2218   7.150   5.334   5.060 -0.1729  0.0172  0.1247
  154POPC   C2B 2219   7.111   5.326   5.591  0.3792  0.1795  0.3650
  154POPC   C3B 2220   7.275   5.315   5.925 -0.1013 -0.0136  0.0134
  154POPC   C4B 2221   7.372   5.470   6.347 -0.2844  0.0515  0.0531
  155POPC   NC3 2222   3.815   1.061   4.789 -0.3428 -0.0745  0.0027
  155POPC   PO4 2223   4.126   1.081   4.402  0.1443  0.2307 -0.0255
  155POPC   GL1 2224   4.347   1.083   4.758 -0.1404 -0.2621 -0.2179
  155POPC   GL2 2225   4.191   1.038   5.095  0.1576  0.0596  0.1184
  155POPC   C1A 2226   4.655   1.152   5.186  0.0615 -0.0630 -0.2006
  155POPC   D2A 2227   5.087   1.109   5.441 -0.0446  0.6031 -0.0014
  155POPC   C3A 2228   5.163   1.202   5.829 -0.0702 -0.0487 -0.1199
  155POPC   C4A 2229   5.043   1.260   6.230 -0.1005  0.1415 -0.0062
  155POPC   C1B 2230   4.271   0.859   5.447  0.0826 -0.1926 -0.1458
  155POPC   C2B 2231   4.629   0.850   5.712 -0.4343  0.1360  0.1029
  155POPC   C3B 2232   5.133   0.732   5.805  0.2268  0.0271 -0.2710
  155POPC   C4B 2233   5.451   0.865   6.080 -0.0681 -0.1544  0.0312
  156POPC   NC3 2234   5.062   6.547   4.705 -0.4860  0.0767  0.2068
  156POPC   PO4 2235   5.390   6.534   4.851  0.0066 -0.0725 -0.0097
  156POPC   GL1 2236   5.646   6.519   5.164 -0.1494  0.2252 -0.1201
  156POPC   GL2 2237   5.394   6.580   5.387 -0.0594 -0.0587  0.3661
  156POPC   C1A 2238   5.900   6.768   5.487 -0.2244  0.0187  0.1892
  156POPC   D2A 2239   6.017   7.088   5.720  0.1902 -0.2436 -0.3807
  156POPC   C3A 2240   6.366   7.269   5.500 -0.2903 -0.0833 -0.1392
  156POPC   C4A 2241   6.599   7.228   5.171  0.1804  0.0702  0.2216
  156POPC   C1B 2242   5.556   6.337   5.668  0.1034  0.1092  0.1039
  156POPC   C2B 2243   5.498   5.967   5.966 -0.3116  0.0935 -0.0340
  156POPC   C3B 2244   5.430   5.621   6.393 -0.0624  0.3381 -0.2860
  156POPC   C4B 2245   5.753   5.393   6.551 -0.2384 -0.0623  0.0688
  157POPC   NC3 2246   3.872   2.071   4.509  0.1557  0.2084  0.0838
  157POPC   PO4 2247   4.305   2.167   4.367 -0.3394 -0.1267 -0.0323
  157POPC   GL1 2248   4.289   1.976   4.830  0.0475 -0.0688  0.0200
  157POPC   GL2 2249   3.975   2.046   4.975 -0.0214 -0.1337  0.3411
  157POPC   C1A 2250   4.377   2.081   5.303 -0.0071 -0.0427 -0.3726
  157POPC   D2A 2251   4.160   2.249   5.654 -0.3096  0.0913 -0.1653
  157POPC   C3A 2252   4.141   2.420   6.079 -0.0647  0.0866  0.1622
  157POPC   C4A 2253   4.062   2.158   6.516 -0.3031  0.0846 -0.0194
  157POPC   C1B 2254   3.793   2.148   5.375  0.1776 -0.1304  0.2374
  157POPC   C2B 2255   3.630   1.980   5.846  0.0353  0.1125  0.0009
  157POPC   C3B 2256   3.762   1.847   6.164 -0.0758  0.0665 -0.1904
  157POPC   C4B 2257   3.683   1.756   6.624 -0.3484 -0.1702 -0.2913
  158POPC   NC3 2258   3.089   4.216   5.057  0.2006 -0.1279 -0.1785
  158POPC   PO4 2259   3.520   4.528   4.914 -0.0417  0.1816 -0.2467
  158POPC   GL1 2260   3.602   4.389   5.330 -0.0208  0.1094  0.0314
  158POPC   GL2 2261   3.365   4.419   5.459 -0.0608 -0.1651  0.3362
  158POPC   C1A 2262   3.751   4.497   5.718 -0.2753 -0.0403 -0.0933
  158POPC   D2A 2263   3.817   4.567   6.098 -0.0340  0.0408  0.2075
  158POPC   C3A 2264   3.514   4.744   6.391  0.0729  0.1462  0.1045
  158POPC   C4A 2265   3.277   4.683   6.795  0.1566 -0.4257 -0.0816
  158POPC   C1B 2266   3.283   4.369   5.842  0.4302 -0.2160  0.0894
  158POPC   C2B 2267   3.094   4.542   6.170 -0.0558 -0.2944 -0.1322
  158POPC   C3B 2268   2.776   4.529   6.454  0.1353  0.0816  0.1036
  158POPC   C4B 2269   2.342   4.455   6.407  0.2625 -0.1755 -0.0055
  159POPC   NC3 2270   1.160   0.464   4.195 -0.0754  0.0591  0.4652
  159POPC   PO4 2271   0.951   0.161   4.365 -0.1814 -0.0982 -0.1663
  159POPC   GL1 2272   1.029  -0.036   4.801 -0.1423  0.1367  0.1230
  159POPC   GL2 2273   0.883   0.074   5.079  0.1039 -0.1991  0.2257
  159POPC   C1A 2274   1.128  -0.318   5.158 -0.0457  0.1525  0.1186
  159POPC   D2A 2275   1.265  -0.533   5.455 -0.0994  0.2184 -0.0074
  159POPC   C3A 2276   1.472  -0.404   5.812  0.2706 -0.0091  0.1217
  159POPC   C4A 2277   1.644  -0.321   6.235  0.2452  0.0101 -0.2905
  159POPC   C1B 2278   0.834   0.437   5.289  0.2985  0.0056 -0.0085
  159POPC   C2B 2279   0.849   0.797   5.563  0.1497 -0.2057 -0.0623
  159POPC   C3B 2280   0.768   1.140   5.778 -0.1078 -0.1606 -0.0054
  159POPC   C4B 2281   0.423   1.371   5.991 -0.1301 -0.2504  0.1167
  160POPC   NC3 2282   9.351   9.481   4.369  0.1636  0.3270  0.1390
  160POPC   PO4 2283   9.427  10.012   4.468  0.0058 -0.0019 -0.0655
  160POPC   GL1 2284   9.325  10.075   4.958  0.1888  0.0034 -0.3664
  160POPC   GL2 2285   9.385  10.438   5.026  0.2042 -0.1414 -0.0582
  160POPC   C1A 2286   9.010  10.095   5.297  0.0985 -0.1949  0.2374
  160POPC   D2A 2287   8.931  10.175   5.627  0.1251  0.2917 -0.1507
  160POPC   C3A 2288   9.245  10.077   5.800 -0.0877  0.1264  0.4820
  160POPC   C4A 2289   9.562  10.172   6.024  0.3748 -0.0286 -0.1638
  160POPC   C1B 2290   9.366  10.492   5.389 -0.1991 -0.2039 -0.1850
  160POPC   C2B 2291   9.164  10.596   5.777 -0.0905 -0.0774  0.2614
  160POPC   C3B 2292   8.871  10.418   6.074  0.0981  0.2631  0.0243
  160POPC   C4B 2293   8.772  10.221   6.404  0.1205 -0.2329 -0.1475
  161POPC   NC3 2294   0.586   0.302   4.709 -0.0673 -0.2695  0.0876
  161POPC   PO4 2295   0.227   0.411   4.552  0.3382  0.0596  0.2375
  161POPC   GL1 2296   0.073   0.332   4.980 -0.1955 -0.2288  0.1735
  161POPC   GL2 2297   0.360   0.400   5.114  0.2901 -0.1906  0.2864
  161POPC   C1A 2298   0.008   0.334   5.414  0.1469 -0.2081  0.2381
  161POPC   D2A 2299   0.220   0.121   5.785 -0.0906 -0.1265  0.4204
  161POPC   C3A 2300   0.447   0.214   6.140  0.4036 -0.1994  0.2341
  161POPC   C4A 2301   0.485   0.204   6.641 -0.2615  0.0687 -0.0335
  161POPC   C1B 2302   0.411  -0.064   5.312 -0.1531 -0.0015  0.0400
  161POPC   C2B 2303   0.208  -0.396   5.652 -0.0307 -0.1620 -0.1528
  161POPC   C3B 2304   0.425  -0.507   6.094 -0.3553  0.1248 -0.4115
  161POPC   C4B 2305   0.294  -0.725   6.473  0.1862 -0.0543  0.0610
  162POPC   NC3 2306   0.953   4.249   4.404 -0.0487 -0.1286  0.1325
  162POPC   PO4 2307   0.619   4.624   4.391 -0.0128  0.0313 -0.0434
  162POPC   GL1 2308   0.672   4.410   4.806  0.1133 -0.1350  0.0630
  162POPC   GL2 2309   0.888   4.534   5.061  0.0800 -0.2225 -0.0221
  162POPC   C1A 2310   0.601   4.166   5.226 -0.0119 -0.1081 -0.0694
  162POPC   D2A 2311   0.599   4.064   5.729 -0.0257  0.2664  0.0546
  162POPC   C3A 2312   0.203   4.000   5.995 -0.1078  0.2672  0.0321
  162POPC   C4A 2313  -0.154   3.817   5.849  0.0744  0.1821 -0.0229
  162POPC   C1B 2314   0.961   4.383   5.577  0.1367 -0.1660  0.0129
  162POPC   C2B 2315   0.769   4.434   5.988 -0.4466 -0.1343  0.0694
  162POPC   C3B 2316   0.752   4.646   6.477  0.0799 -0.1445 -0.1094
  162POPC   C4B 2317   0.922   4.742   6.946  0.1280 -0.0732 -0.1013
  163POPC   NC3 2318   3.772   8.506   4.421 -0.0114 -0.3746  0.2316
  163POPC   PO4 2319   3.490   8.686   4.520 -0.3160 -0.1587  0.1679
  163POPC   GL1 2320   3.749   8.903   4.855  0.1719 -0.1987  0.3717
  163POPC   GL2 2321   3.882   9.295   4.761  0.1308  0.0229  0.0846
  163POPC   C1A 2322   3.808   8.660   5.250  0.2849 -0.0397  0.3129
  163POPC   D2A 2323   3.992   8.247   5.387 -0.1887 -0.2416  0.1022
  163POPC   C3A 2324   4.385   7.989   5.438 -0.1482  0.0461 -0.2476
  163POPC   C4A 2325   4.672   7.641   5.529  0.1106  0.0356 -0.0689
  163POPC   C1B 2326   3.630   9.363   5.168 -0.3862 -0.0366  0.4798
  163POPC   C2B 2327   3.357   9.659   5.364 -0.6605  0.0219 -0.0417
  163POPC   C3B 2328   3.138  10.046   5.579  0.0327 -0.1347 -0.2186
  163POPC   C4B 2329   2.879  10.275   5.930 -0.2973  0.0425 -0.2322
  164POPC   NC3 2330   1.224   2.498   4.760  0.2761  0.0996 -0.1376
  164POPC   PO4 2331   1.105   2.138   4.619 -0.1934 -0.0933  0.0091
  164POPC   GL1 2332   1.266   1.979   4.963 -0.2491  0.1165  0.3017
  164POPC   GL2 2333   1.022   1.785   4.982  0.2111  0.0046  0.0374
  164POPC   C1A 2334   1.205   1.880   5.405 -0.1612 -0.0480 -0.0110
  164POPC   D2A 2335   1.189   1.610   5.810  0.0265  0.0703  0.1325
  164POPC   C3A 2336   1.511   1.420   5.943 -0.0497  0.4065  0.1815
  164POPC   C4A 2337   1.920   1.340   5.916 -0.1030 -0.1718 -0.2546
  164POPC   C1B 2338   1.012   1.418   5.252 -0.4657 -0.0224  0.0351
  164POPC   C2B 2339   1.228   1.126   5.508  0.4150  0.0746 -0.0887
  164POPC   C3B 2340   1.281   0.868   5.841  0.3194 -0.1379 -0.0284
  164POPC   C4B 2341   1.300   0.612   6.286  0.1089  0.2926 -0.0897
  165POPC   NC3 2342   3.353   8.191   4.708 -0.0107  0.0487  0.0617
  165POPC   PO4 2343   3.725   7.953   4.647 -0.3407 -0.1838  0.1174
  165POPC   GL1 2344   3.580   7.900   5.073  0.2971 -0.2354 -0.0564
  165POPC   GL2 2345   3.367   7.802   5.208 -0.1387 -0.1616 -0.0858
  165POPC   C1A 2346   3.513   8.222   5.477 -0.0893  0.0897 -0.4841
  165POPC   D2A 2347   3.258   8.395   5.817  0.0106 -0.1176 -0.1448
  165POPC   C3A 2348   3.292   8.813   5.798  0.2138 -0.4022 -0.1423
  165POPC   C4A 2349   3.406   8.992   5.351  0.0035  0.0181 -0.4590
  165POPC   C1B 2350   3.469   7.734   5.643 -0.1323  0.1672 -0.2838
  165POPC   C2B 2351   3.616   8.066   5.948 -0.1395  0.1894 -0.0503
  165POPC   C3B 2352   3.719   8.526   5.761  0.1938 -0.2777  0.3074
  165POPC   C4B 2353   3.876   8.876   5.870 -0.0682 -0.1997 -0.2363
  166POPC   NC3 2354   4.357   8.733   4.319  0.0748 -0.1633 -0.0437
  166POPC   PO4 2355   4.699   8.896   4.225  0.0943 -0.1238 -0.0320
  166POPC   GL1 2356   4.766   9.069   4.679  0.0332 -0.5192  0.2582
  166POPC   GL2 2357   4.515   9.125   4.821  0.1171  0.0526 -0.3554
  166POPC   C1A 2358   5.078   9.241   5.010 -0.0669  0.1875  0.1630
  166POPC   D2A 2359   5.275   9.317   5.322 -0.0797  0.2333 -0.0817
  166POPC   C3A 2360   5.278   9.194   5.649 -0.1294 -0.0010 -0.1103
  166POPC   C4A 2361   5.076   8.936   5.932 -0.0722 -0.0743  0.0246
  166POPC   C1B 2362   4.575   9.104   5.192 -0.0308  0.1710 -0.0608
  166POPC   C2B 2363   4.220   9.075   5.384  0.0248  0.2365 -0.1737
  166POPC   C3B 2364   3.845   9.268   5.605  0.2534 -0.2824 -0.0095
  166POPC   C4B 2365   3.930   9.562   5.935  0.0660 -0.1633 -0.0057
  167POPC   NC3 2366   9.664   1.742   4.209 -0.0164 -0.2427  0.2449
  167POPC   PO4 2367   9.723   2.205   4.165 -0.2299  0.0227 -0.0737
  167POPC   GL1 2368   9.880   2.130   4.603 -0.2477  0.1248 -0.2631
  167POPC   GL2 2369   9.918   1.796   4.671 -0.2305  0.3330 -0.0339
  167POPC   C1A 2370   9.741   2.282   4.945 -0.0343 -0.1290  0.3490
  167POPC   D2A 2371   9.549   2.455   5.220 -0.2087  0.0701 -0.0236
  167POPC   C3A 2372   9.559   2.978   5.277 -0.3914 -0.1710  0.0158
  167POPC   C4A 2373   9.354   3.153   4.923 -0.0482 -0.2087  0.1226
  167POPC   C1B 2374  10.006   1.824   5.039  0.2168  0.0988 -0.2469
  167POPC   C2B 2375  10.312   1.720   5.342  0.0495  0.1773  0.4123
  167POPC   C3B 2376  10.421   1.783   5.810 -0.1145  0.2146 -0.0054
  167POPC   C4B 2377  10.557   1.608   6.220  0.0666 -0.2202  0.3152
  168POPC   NC3 2378   6.058   6.554   4.625 -0.1263 -0.1531  0.0466
  168POPC   PO4 2379   5.829   6.175   4.701  0.2110  0.1176 -0.0428
  168POPC   GL1 2380   5.937   6.081   5.117 -0.1969 -0.2993 -0.2067
  168POPC   GL2 2381   5.714   5.904   5.421  0.2100  0.1757 -0.2083
  168POPC   C1A 2382   6.165   6.245   5.445  0.2664 -0.0314  0.1864
  168POPC   D2A 2383   6.068   6.488   5.835  0.1722 -0.1201  0.1418
  168POPC   C3A 2384   5.704   6.694   5.945 -0.2385  0.1120 -0.1891
  168POPC   C4A 2385   5.322   6.802   5.833 -0.0882 -0.3329 -0.1958
  168POPC   C1B 2386   5.933   5.930   5.734 -0.2339  0.0143 -0.0708
  168POPC   C2B 2387   5.917   6.173   6.160  0.1097 -0.0748 -0.2663
  168POPC   C3B 2388   6.191   6.184   6.478 -0.1206  0.2316  0.2024
  168POPC   C4B 2389   6.574   6.414   6.587 -0.0177  0.1233 -0.1488
  169POPC   NC3 2390   9.300   8.609   4.573  0.0782  0.0612  0.5648
  169POPC   PO4 2391   9.227   9.014   4.445 -0.0209  0.1760  0.2110
  169POPC   GL1 2392   9.427   9.033   4.799  0.0699  0.3047  0.0594
  169POPC   GL2 2393   9.760   9.153   4.962  0.0595  0.1137  0.5352
  169POPC   C1A 2394   9.352   9.045   5.315  0.0870  0.0879  0.0164
  169POPC   D2A 2395   9.236   9.135   5.751  0.0399 -0.1005  0.2846
  169POPC   C3A 2396   9.525   9.038   6.106  0.1310 -0.1590 -0.3314
  169POPC   C4A 2397   9.441   9.150   6.513 -0.0059  0.0181 -0.0182
  169POPC   C1B 2398   9.612   9.516   5.194 -0.0908 -0.0215 -0.3602
  169POPC   C2B 2399   9.494   9.584   5.641  0.0781 -0.0771 -0.0407
  169POPC   C3B 2400   9.493   9.658   6.122 -0.0705  0.3541  0.3653
  169POPC   C4B 2401   9.183   9.979   6.311  0.0235 -0.0989 -0.0146
  170POPC   NC3 2402   5.084   8.553   4.363  0.0740 -0.1118  0.1835
  170POPC   PO4 2403   4.652   8.327   4.262  0.1035 -0.0432  0.3358
  170POPC   GL1 2404   4.641   8.523   4.706  0.1130 -0.1589  0.0570
  170POPC   GL2 2405   4.251   8.681   4.772 -0.0730 -0.0779  0.0701
  170POPC   C1A 2406   4.978   8.718   4.990  0.0289 -0.0730  0.0585
  170POPC   D2A 2407   5.010   8.900   5.376 -0.0705  0.1082 -0.0350
  170POPC   C3A 2408   4.660   8.982   5.646  0.0141  0.0912 -0.0667
  170POPC   C4A 2409   4.333   9.203   5.856  0.1301  0.2585 -0.0928
  170POPC   C1B 2410   4.350   8.582   5.163  0.0294 -0.1157  0.3348
  170POPC   C2B 2411   4.267   8.612   5.603 -0.1425  0.3304 -0.0700
  170POPC   C3B 2412   4.172   8.282   5.850 -0.0880 -0.0291 -0.1573
  170POPC   C4B 2413   3.945   8.182   6.293  0.1532  0.0618 -0.1290
  171POPC   NC3 2414   0.449   2.415   4.223 -0.0442 -0.0220 -0.2482
  171POPC   PO4 2415   0.749   2.545   4.529 -0.0598 -0.0194  0.0150
  171POPC   GL1 2416   0.796   2.393   4.981  0.0764 -0.0201  0.0354
  171POPC   GL2 2417   0.652   2.183   5.060 -0.0715 -0.1426 -0.1422
  171POPC   C1A 2418   0.901   2.229   5.523 -0.3966  0.0826 -0.1150
  171POPC   D2A 2419   0.928   2.261   5.981 -0.0399  0.1919  0.2648
  171POPC   C3A 2420   1.233   1.975   6.113  0.1372  0.0152 -0.1431
  171POPC   C4A 2421   1.313   1.687   6.384 -0.3738 -0.0249  0.0387
  171POPC   C1B 2422   0.419   2.216   5.506  0.0534 -0.0098  0.1188
  171POPC   C2B 2423   0.436   2.152   5.988  0.3120 -0.1356  0.3203
  171POPC   C3B 2424   0.630   2.012   6.371  0.1323  0.0030  0.1601
  171POPC   C4B 2425   0.956   2.068   6.524  0.0777  0.1552 -0.3459
  172POPC   NC3 2426   6.175   5.661   4.113 -0.1566  0.3412  0.1756
  172POPC   PO4 2427   6.439   5.749   4.413  0.2531  0.1658  0.2121
  172POPC   GL1 2428   6.652   5.668   4.885  0.0016 -0.0801 -0.2642
  172POPC   GL2 2429   6.802   5.938   5.013  0.0931  0.0858 -0.0722
  172POPC   C1A 2430   6.681   5.514   5.322 -0.1249 -0.1406 -0.0594
  172POPC   D2A 2431   6.573   5.410   5.655  0.0538 -0.2955  0.1903
  172POPC   C3A 2432   6.678   5.080   5.955 -0.0800  0.2892  0.2991
  172POPC   C4A 2433   7.128   4.852   6.066 -0.1103  0.0100 -0.5541
  172POPC   C1B 2434   6.397   5.904   5.166  0.2148 -0.0696 -0.2026
  172POPC   C2B 2435   6.448   5.880   5.587 -0.2149 -0.2252  0.3505
  172POPC   C3B 2436   6.531   5.971   5.865  0.1761 -0.0488 -0.1970
  172POPC   C4B 2437   6.661   6.005   6.241  0.0722 -0.0541  0.3434
  173POPC   NC3 2438   4.173   4.277   4.188  0.2949  0.0591 -0.1002
  173POPC   PO4 2439   4.216   4.049   4.648 -0.2119 -0.0804 -0.2271
  173POPC   GL1 2440   4.218   4.144   5.090  0.1391 -0.5291 -0.0754
  173POPC   GL2 2441   4.200   4.421   5.071 -0.2153  0.0401 -0.2698
  173POPC   C1A 2442   4.084   4.101   5.457 -0.1182 -0.1550  0.0062
  173POPC   D2A 2443   3.936   3.648   5.640  0.1510 -0.1142  0.0829
  173POPC   C3A 2444   3.554   3.490   5.565 -0.1939  0.1898 -0.1460
  173POPC   C4A 2445   3.258   3.566   5.836 -0.5794 -0.0538 -0.0555
  173POPC   C1B 2446   4.316   4.527   5.577  0.0638 -0.0704  0.2658
  173POPC   C2B 2447   4.378   4.277   5.977  0.1711 -0.1885  0.3734
  173POPC   C3B 2448   4.098   4.220   6.368  0.3062 -0.0139 -0.2625
  173POPC   C4B 2449   4.303   3.987   6.712 -0.0653  0.2396  0.1908
  174POPC   NC3 2450   8.241   9.370   4.330  0.2284 -0.0051 -0.2135
  174POPC   PO4 2451   7.761   9.437   4.402 -0.0964  0.1642 -0.0956
  174POPC   GL1 2452   7.984   9.688   4.645  0.0696  0.1188  0.1877
  174POPC   GL2 2453   8.002   9.604   5.062  0.2089  0.2608 -0.2311
  174POPC   C1A 2454   7.833  10.065   4.874 -0.1541  0.0369  0.1535
  174POPC   D2A 2455   7.523  10.159   5.165  0.2471 -0.2133  0.1538
  174POPC   C3A 2456   7.552  10.364   5.657 -0.0046  0.3110  0.0870
  174POPC   C4A 2457   7.306  10.475   6.103 -0.1655  0.1157  0.1776
  174POPC   C1B 2458   7.942   9.908   5.334  0.1400 -0.3345 -0.1023
  174POPC   C2B 2459   7.949   9.976   5.709 -0.0434  0.4190 -0.2213
  174POPC   C3B 2460   7.794  10.203   6.087 -0.2159 -0.2282  0.0126
  174POPC   C4B 2461   7.788  10.327   6.463  0.1114 -0.0298  0.1895
  175POPC   NC3 2462   0.616   8.994   4.424  0.3909 -0.0259 -0.1507
  175POPC   PO4 2463   0.581   8.614   4.406 -0.3479 -0.2174  0.0136
  175POPC   GL1 2464   0.423   8.444   4.729  0.0641 -0.2087 -0.0852
  175POPC   GL2 2465   0.090   8.513   4.841 -0.2014 -0.0307  0.1042
  175POPC   C1A 2466   0.481   8.393   5.143 -0.2866  0.0982  0.0666
  175POPC   D2A 2467   0.686   8.412   5.438  0.1790 -0.1866 -0.1254
  175POPC   C3A 2468   0.744   8.046   5.818 -0.4457  0.3180  0.0066
  175POPC   C4A 2469   0.774   8.217   6.248 -0.3555 -0.1398 -0.1652
  175POPC   C1B 2470  -0.065   8.638   5.250  0.0067 -0.0152 -0.0954
  175POPC   C2B 2471  -0.038   8.710   5.733  0.1503 -0.1393 -0.1219
  175POPC   C3B 2472   0.070   8.612   6.150 -0.0672 -0.1977  0.0508
  175POPC   C4B 2473   0.422   8.512   6.451  0.0779 -0.0937 -0.1256
  176POPC   NC3 2474   5.174   2.971   3.876 -0.1090 -0.2027  0.3962
  176POPC   PO4 2475   4.965   2.938   4.276  0.0616  0.0920  0.3588
  176POPC   GL1 2476   5.216   3.142   4.562  0.2000  0.1950  0.1141
  176POPC   GL2 2477   5.219   3.518   4.407  0.1031  0.1630 -0.1285
  176POPC   C1A 2478   5.293   3.081   5.084  0.1203 -0.2900 -0.0683
  176POPC   D2A 2479   5.574   2.905   5.441  0.0441  0.2322  0.1238
  176POPC   C3A 2480   5.888   3.077   5.725 -0.1923 -0.2833  0.4045
  176POPC   C4A 2481   6.011   3.491   5.805 -0.0584 -0.2001 -0.0276
  176POPC   C1B 2482   4.913   3.568   4.810 -0.2051 -0.0329  0.0551
  176POPC   C2B 2483   4.963   3.852   5.223  0.0257  0.2175  0.0828
  176POPC   C3B 2484   5.022   3.728   5.714 -0.1197 -0.0699  0.3758
  176POPC   C4B 2485   4.927   3.607   6.126  0.1972 -0.5097 -0.0215
  177POPC   NC3 2486   8.803   8.772   4.631  0.1750  0.2135  0.0551
  177POPC   PO4 2487   8.584   8.980   4.460  0.3238 -0.5377 -0.1230
  177POPC   GL1 2488   8.360   9.025   4.841 -0.1124 -0.0161  0.2801
  177POPC   GL2 2489   8.350   9.370   4.823  0.0591  0.1305  0.1845
  177POPC   C1A 2490   8.316   9.209   5.311  0.1204 -0.3504  0.0748
  177POPC   D2A 2491   7.986   9.341   5.551 -0.2638  0.0840 -0.0653
  177POPC   C3A 2492   8.073   9.044   5.812 -0.1618  0.0016  0.2268
  177POPC   C4A 2493   7.829   8.816   6.176 -0.0086  0.2615  0.2473
  177POPC   C1B 2494   8.555   9.613   5.145  0.2311 -0.1344 -0.0488
  177POPC   C2B 2495   8.325   9.643   5.614  0.0391  0.1643  0.1109
  177POPC   C3B 2496   8.231   9.639   6.003 -0.0083 -0.2513  0.2136
  177POPC   C4B 2497   8.037   9.254   6.261  0.0290 -0.2841  0.0517
  178POPC   NC3 2498   3.626   2.755   4.727 -0.0925  0.0308 -0.0385
  178POPC   PO4 2499   3.233   2.880   4.939  0.3249  0.3605 -0.2105
  178POPC   GL1 2500   3.094   3.183   5.330 -0.0246  0.1558  0.2155
  178POPC   GL2 2501   2.719   3.275   5.323  0.1308  0.0063 -0.2030
  178POPC   C1A 2502   2.960   3.212   5.848 -0.0218 -0.1023  0.0368
  178POPC   D2A 2503   3.057   3.088   6.251 -0.0952  0.0972 -0.0296
  178POPC   C3A 2504   3.314   3.376   6.464  0.2553  0.1469 -0.0374
  178POPC   C4A 2505   3.302   3.818   6.681  0.1309 -0.3462  0.0874
  178POPC   C1B 2506   2.547   3.463   5.653 -0.1276  0.5017 -0.1457
  178POPC   C2B 2507   2.596   3.643   6.016  0.2053 -0.1800  0.1055
  178POPC   C3B 2508   2.265   4.029   6.153  0.3014  0.2667 -0.2858
  178POPC   C4B 2509   1.982   4.043   6.534  0.4574  0.5152 -0.1536
  179POPC   NC3 2510   5.356   0.490   4.047  0.0145  0.0206 -0.1162
  179POPC   PO4 2511   5.706   0.173   4.042  0.0523  0.1066 -0.4669
  179POPC   GL1 2512   5.839   0.419   4.385  0.1568 -0.1285  0.0300
  179POPC   GL2 2513   5.595   0.511   4.644 -0.0350  0.0660  0.1613
  179POPC   C1A 2514   6.049   0.232   4.798  0.1767 -0.1269 -0.1707
  179POPC   D2A 2515   6.094  -0.167   5.146 -0.0904 -0.2828 -0.1920
  179POPC   C3A 2516   6.208  -0.077   5.564  0.1669  0.1682  0.0298
  179POPC   C4A 2517   6.490   0.124   5.845 -0.0523  0.2146  0.0617
  179POPC   C1B 2518   5.754   0.524   4.973  0.1402  0.1876  0.0444
  179POPC   C2B 2519   5.948   0.306   5.317 -0.0890 -0.0071  0.1094
  179POPC   C3B 2520   6.021   0.298   5.815 -0.1940  0.1131  0.1805
  179POPC   C4B 2521   6.353   0.548   6.075  0.0571 -0.0698 -0.3111
  180POPC   NC3 2522   3.476   6.061   4.661 -0.3625  0.0238 -0.1503
  180POPC   PO4 2523   3.551   5.570   4.592 -0.1718  0.2777  0.0428
  180POPC   GL1 2524   3.695   5.439   5.065  0.0326 -0.1643  0.1035
  180POPC   GL2 2525   3.521   5.328   5.258  0.1492 -0.0939  0.1653
  180POPC   C1A 2526   4.050   5.385   5.361 -0.1319  0.1549  0.0914
  180POPC   D2A 2527   4.321   5.727   5.546  0.3879 -0.0772  0.1764
  180POPC   C3A 2528   4.213   5.946   5.854  0.0563  0.2846  0.2538
  180POPC   C4A 2529   4.059   5.810   6.234 -0.2601  0.0473 -0.0375
  180POPC   C1B 2530   3.650   5.384   5.661 -0.1417  0.1352  0.0858
  180POPC   C2B 2531   4.000   5.470   5.849 -0.2608 -0.0320 -0.0299
  180POPC   C3B 2532   4.114   5.297   6.215 -0.0350  0.0293 -0.0172
  180POPC   C4B 2533   3.728   5.234   6.520  0.0140 -0.1275 -0.0191
  181POPC   NC3 2534   4.895   3.370   4.068  0.2449  0.0809  0.0238
  181POPC   PO4 2535   4.950   3.794   4.100  0.2567 -0.4109 -0.3641
  181POPC   GL1 2536   5.126   4.021   4.460  0.0108 -0.0287 -0.3432
  181POPC   GL2 2537   5.181   4.284   4.392 -0.2020 -0.1953  0.1708
  181POPC   C1A 2538   5.331   3.924   4.854 -0.1713  0.1572  0.1861
  181POPC   D2A 2539   5.387   4.062   5.307 -0.1229  0.0945 -0.1892
  181POPC   C3A 2540   5.584   3.741   5.625 -0.2600 -0.2629 -0.1773
  181POPC   C4A 2541   5.482   3.309   5.894  0.1243 -0.1330 -0.1831
  181POPC   C1B 2542   5.141   4.463   4.916  0.1854  0.1467  0.1072
  181POPC   C2B 2543   5.149   4.560   5.344  0.0234 -0.0401  0.1694
  181POPC   C3B 2544   5.264   4.594   5.701 -0.2259  0.1362  0.4225
  181POPC   C4B 2545   5.338   4.228   5.816 -0.0584 -0.0156 -0.0663
  182POPC   NC3 2546   2.073   3.242   4.406 -0.0589 -0.0556  0.2523
  182POPC   PO4 2547   1.847   3.269   4.827 -0.3920  0.2179  0.0309
  182POPC   GL1 2548   1.755   3.103   5.256  0.1842 -0.0920 -0.1906
  182POPC   GL2 2549   2.156   3.196   5.377  0.1283  0.1184 -0.2498
  182POPC   C1A 2550   1.650   2.909   5.662 -0.2649  0.1577  0.1698
  182POPC   D2A 2551   1.710   3.048   6.060  0.0188 -0.2239 -0.0123
  182POPC   C3A 2552   1.252   3.029   6.270  0.0763  0.1983  0.0285
  182POPC   C4A 2553   0.963   3.249   6.424 -0.0234 -0.0634 -0.0251
  182POPC   C1B 2554   2.067   3.275   5.745 -0.3854  0.1237 -0.0137
  182POPC   C2B 2555   1.944   3.561   6.048  0.0570 -0.0727 -0.2072
  182POPC   C3B 2556   1.721   3.525   6.373 -0.3505  0.0293 -0.2075
  182POPC   C4B 2557   1.422   3.398   6.704 -0.1605 -0.2241  0.2285
  183POPC   NC3 2558   4.519   0.128   4.291  0.1446  0.1796 -0.0611
  183POPC   PO4 2559   4.911   0.295   4.267  0.1699 -0.0911 -0.2646
  183POPC   GL1 2560   4.875   0.436   4.627  0.1183  0.0178 -0.3311
  183POPC   GL2 2561   4.489   0.383   4.738 -0.0248  0.0307 -0.1561
  183POPC   C1A 2562   4.747   0.850   4.723  0.1243  0.0261 -0.0101
  183POPC   D2A 2563   4.812   1.295   4.673  0.1665 -0.1573  0.0230
  183POPC   C3A 2564   5.188   1.451   4.591  0.1269 -0.1380  0.3746
  183POPC   C4A 2565   5.471   1.633   4.772  0.0321 -0.5170 -0.1300
  183POPC   C1B 2566   4.686   0.557   5.074 -0.1422 -0.1344 -0.1465
  183POPC   C2B 2567   4.868   0.449   5.461  0.1892  0.1159 -0.2692
  183POPC   C3B 2568   4.829   0.258   5.896 -0.1117 -0.0555  0.4236
  183POPC   C4B 2569   4.532  -0.047   6.114  0.0896  0.1631 -0.0391
  184POPC   NC3 2570   4.173   2.525   4.026 -0.1144  0.1646  0.1618
  184POPC   PO4 2571   3.918   2.544   4.366 -0.0433  0.0710 -0.0644
  184POPC   GL1 2572   4.149   2.487   4.725 -0.0516  0.1027 -0.4127
  184POPC   GL2 2573   4.372   2.720   4.870  0.1674  0.1770 -0.1419
  184POPC   C1A 2574   4.018   2.557   5.161 -0.0257  0.0473 -0.1144
  184POPC   D2A 2575   4.059   2.827   5.472  0.0678 -0.1772  0.1572
  184POPC   C3A 2576   4.256   2.724   5.722  0.0637 -0.4212 -0.0743
  184POPC   C4A 2577   4.411   2.918   6.085  0.0072 -0.3006 -0.0252
  184POPC   C1B 2578   4.504   2.507   5.204  0.0325 -0.1524  0.0307
  184POPC   C2B 2579   4.602   2.439   5.626 -0.2261 -0.0018 -0.1016
  184POPC   C3B 2580   4.658   2.478   6.068  0.0792  0.2247  0.1447
  184POPC   C4B 2581   4.542   2.557   6.494 -0.0251  0.1057  0.3865
  185POPC   NC3 2582   7.453   4.403   3.677 -0.1781 -0.0640 -0.0842
  185POPC   PO4 2583   7.288   4.792   3.699  0.0438  0.0520 -0.0071
  185POPC   GL1 2584   7.231   4.628   4.203 -0.2496 -0.0301  0.1174
  185POPC   GL2 2585   6.890   4.535   4.331  0.2230  0.1897  0.0813
  185POPC   C1A 2586   7.542   4.335   4.394  0.0430  0.1178  0.0127
  185POPC   D2A 2587   7.464   3.805   4.582  0.0193 -0.0864  0.2710
  185POPC   C3A 2588   7.694   3.753   5.057 -0.0260 -0.0499 -0.0187
  185POPC   C4A 2589   7.805   3.971   5.347  0.2526 -0.3686 -0.3591
  185POPC   C1B 2590   6.678   4.225   4.612  0.0174 -0.0505 -0.1039
  185POPC   C2B 2591   6.431   3.839   4.959  0.0485 -0.0702 -0.1113
  185POPC   C3B 2592   6.307   3.760   5.360  0.1218  0.1765 -0.2187
  185POPC   C4B 2593   6.137   3.969   5.689  0.1430  0.1755  0.1709
  186POPC   NC3 2594   1.543   5.560   4.233  0.1167  0.0602 -0.0374
  186POPC   PO4 2595   1.787   5.493   4.603  0.1547  0.0554 -0.0550
  186POPC   GL1 2596   1.741   5.461   4.992 -0.1918  0.0771  0.0972
  186POPC   GL2 2597   1.407   5.385   5.066  0.1800  0.0086 -0.1284
  186POPC   C1A 2598   1.918   5.396   5.463 -0.1921 -0.0087  0.1930
  186POPC   D2A 2599   1.846   5.470   5.812  0.2754 -0.0530  0.0689
  186POPC   C3A 2600   2.011   5.290   6.170  0.0045  0.3257  0.1763
  186POPC   C4A 2601   2.045   5.114   6.549 -0.3490  0.2945 -0.2033
  186POPC   C1B 2602   1.452   5.539   5.472  0.0550  0.0303 -0.3605
  186POPC   C2B 2603   1.172   5.348   5.812 -0.2015 -0.0219  0.3430
  186POPC   C3B 2604   0.990   4.957   5.883  0.0262  0.0036 -0.0699
  186POPC   C4B 2605   0.581   4.983   5.890  0.0595  0.2985  0.0480
  187POPC   NC3 2606   8.971   9.115   3.999 -0.2317 -0.2080 -0.3501
  187POPC   PO4 2607   8.811   9.408   4.367  0.0940 -0.1385 -0.5163
  187POPC   GL1 2608   8.975   9.303   4.783 -0.0754  0.0627  0.1271
  187POPC   GL2 2609   9.298   9.561   4.846 -0.2273  0.0807  0.0065
  187POPC   C1A 2610   8.859   9.054   5.182  0.3000  0.1331 -0.0196
  187POPC   D2A 2611   8.621   8.641   5.271 -0.0539 -0.1198  0.2537
  187POPC   C3A 2612   8.416   8.673   5.650  0.0159 -0.1029  0.1014
  187POPC   C4A 2613   8.332   8.491   5.996  0.3770 -0.1909  0.2068
  187POPC   C1B 2614   9.047   9.565   5.206 -0.1458 -0.2215  0.0599
  187POPC   C2B 2615   8.975   9.660   5.577 -0.3963 -0.1409 -0.0379
  187POPC   C3B 2616   8.985   9.556   6.027 -0.0794 -0.0125  0.1475
  187POPC   C4B 2617   8.992   9.188   6.302  0.1426  0.0696 -0.0384
  188POPC   NC3 2618   5.996   2.492   2.864  0.2872 -0.3556  0.1155
  188POPC   PO4 2619   6.032   2.478   3.288 -0.0744  0.0913  0.3377
  188POPC   GL1 2620   6.016   2.394   3.776  0.1215  0.0830  0.3237
  188POPC   GL2 2621   6.148   2.146   3.966  0.1763 -0.0626 -0.1039
  188POPC   C1A 2622   6.058   2.662   4.181 -0.0754  0.1053  0.1413
  188POPC   D2A 2623   6.084   3.061   4.457 -0.1567 -0.1203 -0.0393
  188POPC   C3A 2624   6.266   3.397   4.885  0.3170  0.0620 -0.0324
  188POPC   C4A 2625   5.924   3.803   4.934 -0.1641  0.0201 -0.1188
  188POPC   C1B 2626   6.508   2.386   4.086  0.0020 -0.1356 -0.0242
  188POPC   C2B 2627   6.781   2.581   4.324  0.1553 -0.4867  0.0822
  188POPC   C3B 2628   7.107   2.702   4.647  0.0244 -0.0860  0.2314
  188POPC   C4B 2629   7.412   2.744   4.912  0.0645  0.2064 -0.1333
  189POPC   NC3 2630   0.967   7.319   4.003  0.1332 -0.2405 -0.0123
  189POPC   PO4 2631   0.725   7.081   4.434  0.0142 -0.2918  0.0114
  189POPC   GL1 2632   0.696   6.930   4.837  0.2348  0.0308  0.0637
  189POPC   GL2 2633   0.671   7.236   5.077  0.1555 -0.2140 -0.1808
  189POPC   C1A 2634   0.544   6.886   5.297 -0.4129 -0.1636 -0.3955
  189POPC   D2A 2635   0.455   6.907   5.732  0.0488 -0.0399 -0.1429
  189POPC   C3A 2636   0.031   7.055   5.933 -0.3091 -0.3104  0.3432
  189POPC   C4A 2637  -0.186   6.651   5.908  0.1404  0.1724 -0.0041
  189POPC   C1B 2638   0.740   7.298   5.460  0.0872 -0.0845 -0.0149
  189POPC   C2B 2639   0.760   7.252   5.941 -0.2532 -0.0104  0.3200
  189POPC   C3B 2640   0.805   7.245   6.408 -0.1162  0.1007  0.1190
  189POPC   C4B 2641   0.661   7.421   6.797  0.3379  0.0249  0.0376
  190POPC   NC3 2642   7.354   8.264   4.349  0.1531 -0.2724  0.2613
  190POPC   PO4 2643   7.231   8.432   4.759  0.3546 -0.0532 -0.0446
  190POPC   GL1 2644   7.449   8.742   5.079  0.2622  0.3140 -0.1650
  190POPC   GL2 2645   7.259   8.682   5.253 -0.0377 -0.1792 -0.0361
  190POPC   C1A 2646   7.561   8.882   5.623  0.0177 -0.0392 -0.1016
  190POPC   D2A 2647   7.615   9.217   5.873  0.1610  0.1930 -0.1869
  190POPC   C3A 2648   7.700   9.637   6.003 -0.0408 -0.3062  0.3621
  190POPC   C4A 2649   7.867   9.791   6.340 -0.4143 -0.0271 -0.3565
  190POPC   C1B 2650   7.074   8.636   5.570  0.1218 -0.0369 -0.0960
  190POPC   C2B 2651   7.165   9.014   5.930 -0.2299 -0.2277 -0.0022
  190POPC   C3B 2652   7.285   9.393   6.168  0.2952 -0.0085 -0.3203
  190POPC   C4B 2653   7.424   9.927   6.282 -0.1827 -0.2313  0.0206
  191POPC   NC3 2654   9.205   6.125   4.857 -0.2653 -0.0072  0.2099
  191POPC   PO4 2655   9.606   6.178   4.764 -0.2684  0.2963  0.1519
  191POPC   GL1 2656   9.762   6.321   5.099 -0.0294 -0.1186 -0.3628
  191POPC   GL2 2657  10.041   6.351   5.097 -0.4035 -0.3183  0.1427
  191POPC   C1A 2658   9.620   6.053   5.535  0.1748 -0.0851 -0.1350
  191POPC   D2A 2659   9.726   6.141   5.872  0.0574  0.0506  0.1009
  191POPC   C3A 2660  10.050   5.824   6.040  0.3866 -0.0473  0.2877
  191POPC   C4A 2661  10.071   5.670   6.434  0.2679  0.0239 -0.2866
  191POPC   C1B 2662   9.930   6.457   5.563  0.0512 -0.3828  0.1442
  191POPC   C2B 2663   9.972   6.529   6.013 -0.0098 -0.0153 -0.3137
  191POPC   C3B 2664  10.165   6.543   6.466  0.1510 -0.2191 -0.2018
  191POPC   C4B 2665  10.114   6.599   6.900 -0.1555  0.4425 -0.0456
  192POPC   NC3 2666   2.133   7.173   4.728 -0.1272 -0.0773  0.1536
  192POPC   PO4 2667   1.989   7.526   4.603  0.0799  0.1490 -0.1865
  192POPC   GL1 2668   1.889   7.489   5.089  0.0882 -0.1176  0.1872
  192POPC   GL2 2669   1.586   7.543   5.152 -0.0504  0.2102 -0.1633
  192POPC   C1A 2670   2.211   7.219   5.431 -0.1753  0.1320  0.1107
  192POPC   D2A 2671   2.062   7.169   5.735  0.1245  0.0324 -0.0633
  192POPC   C3A 2672   2.361   7.288   6.112  0.4877  0.0691  0.0683
  192POPC   C4A 2673   2.524   7.713   6.429 -0.1263  0.0709  0.0467
  192POPC   C1B 2674   1.585   7.326   5.443 -0.0548 -0.0072  0.0956
  192POPC   C2B 2675   1.380   7.327   5.886  0.1038  0.2181  0.0085
  192POPC   C3B 2676   1.193   6.981   6.155  0.2580  0.0815  0.3078
  192POPC   C4B 2677   0.837   6.787   6.089 -0.0912  0.1348  0.0355
  193POPC   NC3 2678   8.499   6.383   4.717 -0.0352 -0.0589  0.1901
  193POPC   PO4 2679   8.172   5.975   4.471  0.2343  0.1120 -0.0714
  193POPC   GL1 2680   8.328   5.904   4.903 -0.0962  0.1909  0.0295
  193POPC   GL2 2681   8.585   6.018   5.012  0.0578  0.2267  0.1452
  193POPC   C1A 2682   8.474   5.670   5.337 -0.0066 -0.2148 -0.0968
  193POPC   D2A 2683   8.445   5.345   5.661  0.0423  0.1355 -0.0623
  193POPC   C3A 2684   8.355   5.395   6.088  0.0162 -0.3594  0.1076
  193POPC   C4A 2685   8.306   5.121   6.413  0.4189  0.0653 -0.0649
  193POPC   C1B 2686   8.813   6.088   5.402  0.0946 -0.0962 -0.1527
  193POPC   C2B 2687   8.752   5.812   5.794  0.0398  0.2729  0.0491
  193POPC   C3B 2688   9.043   5.792   6.163  0.3970 -0.1776 -0.0389
  193POPC   C4B 2689   9.218   5.489   6.468  0.1347 -0.2437  0.0826
  194POPC   NC3 2690   5.341   4.127   3.777  0.0169  0.1256 -0.1551
  194POPC   PO4 2691   5.818   4.316   3.724 -0.0321 -0.0065 -0.0974
  194POPC   GL1 2692   5.780   4.394   4.308  0.1091  0.2435 -0.0385
  194POPC   GL2 2693   5.662   4.142   4.511  0.1344 -0.1105 -0.2731
  194POPC   C1A 2694   6.088   4.306   4.767 -0.0355 -0.2596 -0.0644
  194POPC   D2A 2695   6.058   4.243   5.242  0.1309 -0.4008 -0.0230
  194POPC   C3A 2696   6.570   4.202   5.373  0.0895 -0.2360 -0.2561
  194POPC   C4A 2697   6.782   3.907   5.431 -0.4064  0.2017 -0.2519
  194POPC   C1B 2698   5.606   4.312   4.939 -0.1267 -0.0677 -0.4006
  194POPC   C2B 2699   5.624   4.478   5.451  0.0494 -0.0038  0.1690
  194POPC   C3B 2700   5.782   4.259   5.697  0.2380 -0.0715 -0.0337
  194POPC   C4B 2701   5.792   3.984   6.060  0.2773  0.0404 -0.2476
  195POPC   NC3 2702   6.957   5.111   4.036  0.0092 -0.0741 -0.0529
  195POPC   PO4 2703   7.187   5.507   4.167  0.2028  0.1036 -0.1394
  195POPC   GL1 2704   7.385   5.294   4.600 -0.0524  0.0414  0.1588
  195POPC   GL2 2705   7.151   5.038   4.586  0.0747  0.0543 -0.0499
  195POPC   C1A 2706   7.604   5.131   4.959  0.1578 -0.0228 -0.0417
  195POPC   D2A 2707   7.636   4.810   5.266 -0.3034 -0.1408 -0.2758
  195POPC   C3A 2708   7.380   4.434   5.300 -0.1381 -0.2171 -0.3928
  195POPC   C4A 2709   7.065   4.275   5.416  0.1927 -0.0423 -0.0181
  195POPC   C1B 2710   7.116   4.886   5.054 -0.0499 -0.0488  0.1215
  195POPC   C2B 2711   7.174   4.804   5.527 -0.1519 -0.1600  0.0432
  195POPC   C3B 2712   7.550   4.993   5.775  0.0586  0.2616  0.2150
  195POPC   C4B 2713   7.791   5.221   6.121 -0.1575 -0.1245 -0.1528
  196POPC   NC3 2714   2.372   5.927   4.439  0.1877 -0.1557 -0.2355
  196POPC   PO4 2715   2.251   6.237   4.440 -0.2143 -0.0092 -0.2710
  196POPC   GL1 2716   2.037   6.469   4.795 -0.3489 -0.0263  0.0983
  196POPC   GL2 2717   2.130   6.737   4.961  0.2200 -0.0311 -0.1668
  196POPC   C1A 2718   2.120   6.266   5.201  0.1778  0.0423  0.0334
  196POPC   D2A 2719   2.193   6.207   5.626 -0.1387 -0.0887  0.2238
  196POPC   C3A 2720   2.142   5.871   5.900  0.0616  0.1146  0.1870
  196POPC   C4A 2721   2.021   5.772   6.291  0.0333  0.0119  0.1417
  196POPC   C1B 2722   2.035   6.737   5.422  0.0855  0.2807  0.0223
  196POPC   C2B 2723   2.287   6.721   5.747 -0.0937 -0.2970  0.3204
  196POPC   C3B 2724   2.390   6.419   6.037 -0.0928 -0.0266  0.4246
  196POPC   C4B 2725   2.817   6.333   6.270  0.1905 -0.0521 -0.1056
  197POPC   NC3 2726   1.474   8.314   4.170  0.0426  0.0313 -0.0302
  197POPC   PO4 2727   1.889   8.533   4.385  0.0893  0.0225 -0.2051
  197POPC   GL1 2728   2.031   8.385   4.821  0.1473 -0.0271 -0.0796
  197POPC   GL2 2729   2.031   8.010   4.853 -0.0715  0.0414 -0.1083
  197POPC   C1A 2730   1.910   8.358   5.283 -0.0971 -0.0918 -0.1005
  197POPC   D2A 2731   1.605   8.346   5.595  0.1595  0.2295  0.1121
  197POPC   C3A 2732   1.512   8.736   5.854 -0.1125 -0.0113 -0.0549
  197POPC   C4A 2733   1.785   8.885   6.169 -0.3588  0.1618  0.1167
  197POPC   C1B 2734   2.168   7.873   5.275  0.0845 -0.0799 -0.1990
  197POPC   C2B 2735   2.089   7.641   5.652 -0.4389 -0.0217 -0.1816
  197POPC   C3B 2736   1.979   7.534   6.065 -0.0846 -0.2834  0.1031
  197POPC   C4B 2737   1.918   7.372   6.401 -0.0346 -0.2713 -0.3229
  198POPC   NC3 2738   2.178   1.185   4.459 -0.1874  0.0187 -0.4171
  198POPC   PO4 2739   2.485   1.338   4.816  0.2681  0.0382 -0.3967
  198POPC   GL1 2740   2.683   1.403   5.214 -0.1811 -0.2886 -0.2952
  198POPC   GL2 2741   2.511   1.674   5.204 -0.3849 -0.0243 -0.0429
  198POPC   C1A 2742   3.098   1.419   5.506 -0.2233  0.0087 -0.2361
  198POPC   D2A 2743   3.426   1.392   5.745 -0.0750  0.2284 -0.1420
  198POPC   C3A 2744   3.151   1.094   6.076 -0.0936 -0.2180 -0.1249
  198POPC   C4A 2745   3.171   0.727   6.435 -0.3239 -0.0299 -0.0539
  198POPC   C1B 2746   2.844   1.863   5.433 -0.0351 -0.0346 -0.0204
  198POPC   C2B 2747   3.138   1.856   5.779  0.1613 -0.0508  0.3007
  198POPC   C3B 2748   3.212   2.213   6.040 -0.0737 -0.2046 -0.4308
  198POPC   C4B 2749   3.579   2.345   6.307 -0.2135  0.1554  0.1160
  199POPC   NC3 2750   8.679   2.500   3.457  0.1978  0.0321  0.0870
  199POPC   PO4 2751   8.213   2.408   3.467  0.2231 -0.0773 -0.3261
  199POPC   GL1 2752   8.024   2.290   3.797  0.0010 -0.2673  0.1155
  199POPC   GL2 2753   7.989   2.663   3.975 -0.0302  0.0466  0.1364
  199POPC   C1A 2754   8.044   2.121   4.220  0.1302  0.0124  0.0466
  199POPC   D2A 2755   8.256   2.149   4.535 -0.1434 -0.1339 -0.1573
  199POPC   C3A 2756   8.247   2.051   4.963  0.0307 -0.0832  0.2606
  199POPC   C4A 2757   8.031   2.204   5.335  0.1377  0.0706  0.0800
  199POPC   C1B 2758   8.093   2.647   4.415 -0.1496  0.4407 -0.1157
  199POPC   C2B 2759   8.402   2.652   4.734  0.1951  0.0740  0.0055
  199POPC   C3B 2760   8.717   2.422   4.933  0.0607  0.0187  0.0822
  199POPC   C4B 2761   9.190   2.235   4.844  0.1205  0.2352  0.0853
  200POPC   NC3 2762   8.091   7.200   4.715  0.2217 -0.1868 -0.3867
  200POPC   PO4 2763   7.902   7.500   4.993  0.0841  0.1869 -0.2002
  200POPC   GL1 2764   7.812   7.692   5.354  0.2247 -0.0139 -0.1849
  200POPC   GL2 2765   7.564   7.887   5.353  0.0526  0.6200 -0.0301
  200POPC   C1A 2766   7.768   7.486   5.866  0.0583 -0.1358  0.1736
  200POPC   D2A 2767   7.579   7.230   6.141 -0.1936 -0.2355 -0.0642
  200POPC   C3A 2768   7.889   6.915   6.104 -0.1201  0.1111  0.2670
  200POPC   C4A 2769   8.380   6.901   6.133 -0.1325  0.1259  0.1860
  200POPC   C1B 2770   7.337   7.644   5.657 -0.0935 -0.3003  0.0550
  200POPC   C2B 2771   7.283   7.673   5.995 -0.1865  0.0214  0.2169
  200POPC   C3B 2772   7.389   7.654   6.377 -0.0717  0.1617 -0.0761
  200POPC   C4B 2773   7.635   7.968   6.671  0.0561  0.0432  0.1108
  201POPC   NC3 2774   6.725   5.341   4.532 -0.1344 -0.4244  0.2972
  201POPC   PO4 2775   6.669   4.944   4.442 -0.1144 -0.3120  0.3014
  201POPC   GL1 2776   6.430   4.728   4.634 -0.0872  0.2032  0.1736
  201POPC   GL2 2777   6.098   4.748   4.487 -0.1539 -0.2640 -0.1701
  201POPC   C1A 2778   6.357   4.667   5.088 -0.2159  0.2223  0.0616
  201POPC   D2A 2779   6.116   4.647   5.523  0.0195  0.3412  0.0400
  201POPC   C3A 2780   6.180   4.832   5.909 -0.1941  0.2135  0.0196
  201POPC   C4A 2781   6.035   5.216   6.150  0.0445 -0.1575  0.1731
  201POPC   C1B 2782   5.848   4.782   4.910  0.1743  0.0298 -0.0250
  201POPC   C2B 2783   5.544   4.902   5.058  0.4238  0.1682  0.1667
  201POPC   C3B 2784   5.364   5.040   5.378  0.0754  0.2648 -0.0225
  201POPC   C4B 2785   5.071   5.281   5.420  0.2008 -0.1003 -0.3706
  202POPC   NC3 2786   1.900   5.033   4.671 -0.0700  0.1421 -0.1334
  202POPC   PO4 2787   2.230   5.340   4.545  0.0315 -0.1007  0.1741
  202POPC   GL1 2788   2.259   5.441   4.944  0.0209 -0.0623 -0.2448
  202POPC   GL2 2789   2.161   5.761   4.930 -0.2086 -0.0107  0.0588
  202POPC   C1A 2790   2.371   5.551   5.403 -0.0053  0.1502  0.2451
  202POPC   D2A 2791   2.436   5.486   5.898 -0.0013 -0.0801 -0.0038
  202POPC   C3A 2792   2.459   5.395   6.348  0.2633 -0.1880 -0.1607
  202POPC   C4A 2793   2.377   5.403   6.739 -0.0552 -0.1865  0.3043
  202POPC   C1B 2794   1.825   5.896   5.340 -0.1389 -0.2824 -0.0687
  202POPC   C2B 2795   1.651   5.943   5.815 -0.1147 -0.3387 -0.0405
  202POPC   C3B 2796   1.432   6.184   6.187 -0.0515 -0.2786  0.1037
  202POPC   C4B 2797   1.307   6.501   6.424 -0.1447  0.2249  0.1534
  203POPC   NC3 2798   5.877   5.398   4.517  0.0490 -0.2074  0.2646
  203POPC   PO4 2799   6.274   5.240   4.378 -0.0109 -0.1478 -0.1634
  203POPC   GL1 2800   6.306   5.169   4.757  0.0303 -0.1018 -0.0408
  203POPC   GL2 2801   6.664   5.100   4.951  0.0584 -0.2497  0.0346
  203POPC   C1A 2802   6.260   5.156   5.232 -0.0079 -0.0612 -0.2449
  203POPC   D2A 2803   5.878   5.119   5.484  0.1386 -0.1163  0.0899
  203POPC   C3A 2804   5.701   4.858   5.743  0.1147 -0.2392  0.2002
  203POPC   C4A 2805   5.825   4.570   6.213 -0.3608  0.2738  0.2032
  203POPC   C1B 2806   6.724   5.023   5.405 -0.0723  0.1121  0.2273
  203POPC   C2B 2807   6.667   4.693   5.489 -0.0204 -0.0568  0.1519
  203POPC   C3B 2808   6.842   4.529   5.796  0.1290  0.1638  0.0407
  203POPC   C4B 2809   6.912   4.300   6.185  0.0405 -0.3891  0.0991
  204POPC   NC3 2810   3.927   3.385   4.283 -0.5331  0.2084  0.1262
  204POPC   PO4 2811   4.098   3.018   4.529 -0.0451  0.1380  0.2048
  204POPC   GL1 2812   4.027   3.068   5.038  0.2451  0.0298 -0.0664
  204POPC   GL2 2813   3.728   3.091   5.099  0.0662 -0.1309 -0.0729
  204POPC   C1A 2814   4.166   3.293   5.399 -0.1004 -0.0508 -0.2440
  204POPC   D2A 2815   4.099   3.207   5.807  0.0792  0.2344  0.3720
  204POPC   C3A 2816   3.683   3.334   6.043 -0.1366 -0.0422 -0.0862
  204POPC   C4A 2817   3.616   3.676   6.258  0.3571  0.0773  0.0111
  204POPC   C1B 2818   3.544   2.984   5.497  0.1147 -0.1095  0.1400
  204POPC   C2B 2819   3.291   2.862   5.800 -0.2051 -0.1481 -0.0649
  204POPC   C3B 2820   2.874   2.697   5.995 -0.0870 -0.0529  0.0037
  204POPC   C4B 2821   2.476   2.627   6.151 -0.0920  0.0745  0.1215
  205POPC   NC3 2822   9.094   7.050   4.726  0.1261  0.0835 -0.0280
  205POPC   PO4 2823   9.032   6.613   4.662 -0.0247 -0.4572  0.0070
  205POPC   GL1 2824   9.355   6.618   4.976  0.1609  0.2804  0.0795
  205POPC   GL2 2825   9.275   6.905   5.138  0.3166  0.2014  0.1651
  205POPC   C1A 2826   9.386   6.485   5.385  0.1026  0.4571  0.0369
  205POPC   D2A 2827   9.227   6.274   5.686  0.0787 -0.0871 -0.1760
  205POPC   C3A 2828   9.359   6.207   6.192 -0.3496  0.2544 -0.0356
  205POPC   C4A 2829   9.230   6.543   6.540 -0.1983 -0.0439  0.0196
  205POPC   C1B 2830   8.921   6.909   5.371 -0.1075  0.1668  0.1355
  205POPC   C2B 2831   8.814   7.093   5.756  0.2311 -0.1460  0.2366
  205POPC   C3B 2832   8.610   7.415   5.855  0.2114  0.0976 -0.0311
  205POPC   C4B 2833   8.271   7.724   5.756 -0.0556 -0.0885 -0.0154
  206POPC   NC3 2834   0.758   5.128   4.354 -0.1903  0.0729 -0.0350
  206POPC   PO4 2835   0.573   5.612   4.457 -0.3575  0.0197  0.1314
  206POPC   GL1 2836   0.487   5.513   4.925  0.0987 -0.0879  0.1123
  206POPC   GL2 2837   0.252   5.213   5.052 -0.0581  0.1542  0.1603
  206POPC   C1A 2838   0.384   5.606   5.332  0.1838  0.0151 -0.2751
  206POPC   D2A 2839   0.608   5.495   5.692 -0.2732 -0.1877  0.0090
  206POPC   C3A 2840   0.778   5.433   6.155  0.2492  0.0409  0.1638
  206POPC   C4A 2841   0.980   5.086   6.336 -0.3105 -0.3933  0.1277
  206POPC   C1B 2842   0.207   5.038   5.519 -0.0484  0.2202  0.3354
  206POPC   C2B 2843  -0.003   4.843   5.956 -0.0224 -0.1314  0.0594
  206POPC   C3B 2844  -0.441   4.778   6.024  0.4115  0.1867 -0.0174
  206POPC   C4B 2845  -0.728   4.501   5.761  0.1721  0.2467  0.2047
  207POPC   NC3 2846   1.491   3.604   5.039  0.4935 -0.1975  0.0429
  207POPC   PO4 2847   1.139   3.759   4.648  0.1181  0.0220  0.1382
  207POPC   GL1 2848   0.970   3.512   5.039  0.0197  0.1350  0.1723
  207POPC   GL2 2849   1.091   3.416   5.357 -0.1143 -0.0533 -0.1377
  207POPC   C1A 2850   0.692   3.724   5.338  0.0154 -0.0083  0.3361
  207POPC   D2A 2851   0.311   3.658   5.651  0.0099 -0.1609  0.0338
  207POPC   C3A 2852   0.187   3.464   6.027  0.2714  0.0172 -0.2194
  207POPC   C4A 2853   0.468   3.280   6.320  0.1064 -0.3593  0.1199
  207POPC   C1B 2854   1.163   3.757   5.714 -0.1849 -0.0899  0.0966
  207POPC   C2B 2855   1.098   4.047   6.031  0.0734 -0.1907 -0.0096
  207POPC   C3B 2856   1.050   4.210   6.399 -0.0934 -0.0717  0.0661
  207POPC   C4B 2857   1.034   4.216   6.844 -0.1126  0.0573  0.1259
  208POPC   NC3 2858   7.687   7.916   4.784  0.3989 -0.0332  0.1375
  208POPC   PO4 2859   8.108   7.695   4.608 -0.0435 -0.0479  0.2195
  208POPC   GL1 2860   8.397   7.481   4.936 -0.0331 -0.0216 -0.2198
  208POPC   GL2 2861   8.501   7.714   5.093  0.1525  0.0662  0.0666
  208POPC   C1A 2862   8.413   7.300   5.383  0.2132 -0.0902 -0.1250
  208POPC   D2A 2863   8.149   7.126   5.696 -0.3538 -0.1794 -0.1554
  208POPC   C3A 2864   8.145   7.341   6.090  0.2000  0.0542  0.0589
  208POPC   C4A 2865   8.368   7.325   6.496 -0.2098  0.1116 -0.1451
  208POPC   C1B 2866   8.556   8.063   5.403  0.1041  0.0302 -0.1413
  208POPC   C2B 2867   8.582   8.191   5.698 -0.0563  0.0963  0.0186
  208POPC   C3B 2868   8.840   8.412   5.942 -0.2874 -0.1126  0.0347
  208POPC   C4B 2869   8.685   8.795   6.092 -0.0658 -0.2113  0.2022
  209POPC   NC3 2870   2.660   5.075   4.771  0.0838  0.2786 -0.2956
  209POPC   PO4 2871   2.432   4.647   4.687 -0.1221  0.0781 -0.0822
  209POPC   GL1 2872   2.270   4.945   4.987  0.3412  0.0825  0.1158
  209POPC   GL2 2873   1.896   5.000   5.175  0.1132  0.4421  0.0171
  209POPC   C1A 2874   2.309   4.891   5.452 -0.1255  0.2762  0.0468
  209POPC   D2A 2875   2.172   5.059   5.758  0.6656 -0.0328  0.0971
  209POPC   C3A 2876   1.856   4.677   6.071  0.0982  0.0904  0.2108
  209POPC   C4A 2877   1.801   4.611   6.465 -0.0062 -0.1697 -0.3198
  209POPC   C1B 2878   1.794   4.902   5.469  0.5039  0.0677  0.1574
  209POPC   C2B 2879   1.612   5.025   5.750 -0.2334  0.4315 -0.1559
  209POPC   C3B 2880   1.525   5.108   6.157  0.1913  0.0242  0.2148
  209POPC   C4B 2881   1.564   5.515   6.217  0.0170 -0.1715 -0.3685
  210POPC   NC3 2882   2.261   8.156   4.431 -0.2401 -0.2023 -0.0401
  210POPC   PO4 2883   2.542   8.395   4.708  0.3300 -0.1250 -0.2374
  210POPC   GL1 2884   2.681   8.699   5.041 -0.1404 -0.1531  0.0358
  210POPC   GL2 2885   2.393   8.513   5.195 -0.1078 -0.2827 -0.0380
  210POPC   C1A 2886   2.876   8.716   5.462  0.0599 -0.0827  0.2224
  210POPC   D2A 2887   2.839   8.654   5.958  0.0562  0.4727  0.0283
  210POPC   C3A 2888   2.515   8.847   6.185  0.1995  0.0738 -0.0864
  210POPC   C4A 2889   2.248   9.114   6.388  0.4906  0.0059  0.1814
  210POPC   C1B 2890   2.483   8.293   5.476  0.0271  0.1363 -0.1900
  210POPC   C2B 2891   2.543   8.229   5.807  0.0492 -0.1965 -0.2782
  210POPC   C3B 2892   2.717   8.244   6.215  0.2901  0.0010  0.2159
  210POPC   C4B 2893   2.978   8.087   6.579 -0.0092 -0.2339  0.1765
  211POPC   NC3 2894   0.124   6.327   4.244  0.0240  0.1708 -0.0807
  211POPC   PO4 2895   0.261   6.619   4.664 -0.3285 -0.0776 -0.0331
  211POPC   GL1 2896   0.106   6.841   4.952 -0.0893  0.0921 -0.1018
  211POPC   GL2 2897  -0.068   7.111   4.863  0.1929 -0.0459 -0.2141
  211POPC   C1A 2898  -0.014   6.943   5.473 -0.0165 -0.1339  0.0299
  211POPC   D2A 2899  -0.356   7.128   5.684  0.2354 -0.0515 -0.0349
  211POPC   C3A 2900  -0.418   7.180   6.086 -0.3475 -0.1301  0.1182
  211POPC   C4A 2901  -0.322   7.248   6.450 -0.0556  0.1731  0.3503
  211POPC   C1B 2902   0.175   7.258   5.126 -0.4726  0.2266 -0.3682
  211POPC   C2B 2903   0.356   7.555   5.509 -0.0620 -0.1830  0.1282
  211POPC   C3B 2904   0.436   7.606   5.963 -0.0086  0.2573  0.2132
  211POPC   C4B 2905   0.572   7.673   6.258  0.0304  0.0498 -0.1560
  212POPC   NC3 2906   1.934   0.694   3.863  0.1025 -0.1620 -0.1144
  212POPC   PO4 2907   1.852   0.887   4.227  0.1092  0.0963 -0.0536
  212POPC   GL1 2908   1.985   0.716   4.715  0.0384 -0.3851  0.1512
  212POPC   GL2 2909   1.882   0.365   4.695 -0.1038 -0.1527  0.0301
  212POPC   C1A 2910   1.770   0.716   5.033  0.0707 -0.0059 -0.0651
  212POPC   D2A 2911   1.683   0.913   5.427  0.1433  0.3154  0.1400
  212POPC   C3A 2912   1.720   0.722   5.891  0.0180 -0.2203  0.1279
  212POPC   C4A 2913   1.734   0.974   6.268 -0.0029  0.1210 -0.0649
  212POPC   C1B 2914   1.892   0.277   5.166  0.0330 -0.1284 -0.0020
  212POPC   C2B 2915   1.785   0.347   5.531  0.1997  0.0454  0.1231
  212POPC   C3B 2916   1.929  -0.030   5.827  0.0291 -0.4268  0.1478
  212POPC   C4B 2917   2.086  -0.455   5.955 -0.4435  0.4151 -0.0726
  213POPC   NC3 2918   8.347   1.459   3.467  0.0219  0.0653  0.1712
  213POPC   PO4 2919   8.180   1.553   3.898  0.1538  0.1880  0.1032
  213POPC   GL1 2920   7.962   1.625   4.243 -0.1837 -0.2260  0.1118
  213POPC   GL2 2921   7.743   1.456   4.498 -0.1615  0.0529  0.0275
  213POPC   C1A 2922   8.280   1.605   4.706 -0.2706  0.1548 -0.1879
  213POPC   D2A 2923   8.550   1.364   4.938 -0.1384  0.0452 -0.2741
  213POPC   C3A 2924   8.289   1.160   5.288 -0.0962  0.1002 -0.1207
  213POPC   C4A 2925   8.029   0.765   5.228  0.0990  0.0992  0.2625
  213POPC   C1B 2926   7.440   1.595   4.808  0.0791 -0.0059 -0.2841
  213POPC   C2B 2927   7.286   1.459   5.169 -0.1190  0.2312  0.1297
  213POPC   C3B 2928   7.179   1.044   5.454 -0.2658 -0.1655 -0.2196
  213POPC   C4B 2929   6.998   1.131   5.880  0.1021  0.1172  0.3597
  214POPC   NC3 2930   9.364   2.576   3.905 -0.0017  0.2364 -0.1773
  214POPC   PO4 2931   9.716   2.767   4.147  0.2783  0.2120 -0.2052
  214POPC   GL1 2932   9.892   2.745   4.496  0.4268  0.2196  0.0171
  214POPC   GL2 2933  10.096   2.902   4.595  0.0909 -0.1055  0.2547
  214POPC   C1A 2934  10.041   2.684   5.035 -0.1406  0.0682  0.2040
  214POPC   D2A 2935   9.901   2.698   5.510 -0.0253  0.0977  0.0910
  214POPC   C3A 2936   9.612   2.430   5.785 -0.0823 -0.0973 -0.1085
  214POPC   C4A 2937   9.230   2.266   5.927 -0.0070 -0.0670  0.2501
  214POPC   C1B 2938   9.838   3.127   4.942 -0.1761 -0.2268 -0.2947
  214POPC   C2B 2939   9.885   3.498   5.100  0.4271 -0.4589 -0.0226
  214POPC   C3B 2940   9.873   3.891   5.268  0.1383  0.2105  0.2274
  214POPC   C4B 2941   9.772   4.121   5.532 -0.1419  0.2365 -0.0762
  215POPC   NC3 2942   2.867   2.557   4.760  0.0528  0.2634  0.2326
  215POPC   PO4 2943   3.046   2.144   4.680 -0.0560 -0.0385 -0.0126
  215POPC   GL1 2944   3.224   2.149   5.182  0.1418  0.0182  0.2800
  215POPC   GL2 2945   3.392   1.864   5.372 -0.0638 -0.2661 -0.1938
  215POPC   C1A 2946   3.316   2.386   5.615 -0.4350 -0.0655 -0.0286
  215POPC   D2A 2947   3.729   2.505   5.820  0.0198 -0.0119 -0.0665
  215POPC   C3A 2948   3.898   2.856   6.097  0.1212 -0.1828  0.0440
  215POPC   C4A 2949   3.965   3.125   6.372  0.5431 -0.1354  0.2771
  215POPC   C1B 2950   3.712   1.635   5.422  0.1225  0.2438 -0.2571
  215POPC   C2B 2951   4.020   1.735   5.699  0.1176 -0.0093  0.1074
  215POPC   C3B 2952   4.308   1.880   6.072  0.3949 -0.1618  0.2944
  215POPC   C4B 2953   4.622   1.999   6.252 -0.1852  0.4611  0.1426
  216POPC   NC3 2954   1.471   0.649   4.457  0.3169  0.1609 -0.2100
  216POPC   PO4 2955   1.393   0.204   4.583  0.0111 -0.3012 -0.0677
  216POPC   GL1 2956   1.465   0.423   4.910  0.0268 -0.0421 -0.3969
  216POPC   GL2 2957   1.350   0.311   5.085 -0.2003 -0.3366 -0.0620
  216POPC   C1A 2958   1.221   0.807   5.120 -0.0963  0.1215  0.2727
  216POPC   D2A 2959   1.455   1.242   5.043 -0.0865  0.1739  0.0346
  216POPC   C3A 2960   1.600   1.392   5.388 -0.2221 -0.1785  0.0755
  216POPC   C4A 2961   1.637   1.830   5.656  0.2087 -0.1654  0.1536
  216POPC   C1B 2962   1.285   0.457   5.523 -0.0193 -0.0752 -0.0559
  216POPC   C2B 2963   1.068   0.395   5.841  0.1556 -0.0215 -0.2114
  216POPC   C3B 2964   0.933   0.241   6.227 -0.3116 -0.2065 -0.2425
  216POPC   C4B 2965   0.992   0.272   6.669 -0.0981  0.1308  0.0656
  217POPC   NC3 2966   4.495   3.629   4.375  0.0018  0.2340  0.1913
  217POPC   PO4 2967   4.514   3.160   4.314 -0.0259  0.0462  0.1020
  217POPC   GL1 2968   4.722   3.160   4.637 -0.0450 -0.2025 -0.1985
  217POPC   GL2 2969   4.469   3.234   4.871 -0.0615 -0.2377  0.1555
  217POPC   C1A 2970   4.799   2.953   4.989 -0.1678  0.1337  0.0157
  217POPC   D2A 2971   4.520   2.916   5.385 -0.0210 -0.6074  0.3706
  217POPC   C3A 2972   4.636   3.259   5.737  0.1384  0.0753  0.0958
  217POPC   C4A 2973   4.481   3.397   6.149 -0.0083  0.0855 -0.0071
  217POPC   C1B 2974   4.820   3.359   5.218  0.0637  0.2897 -0.0510
  217POPC   C2B 2975   5.134   3.243   5.538 -0.0021  0.1509 -0.1457
  217POPC   C3B 2976   5.063   3.141   6.061  0.0115  0.1585 -0.1631
  217POPC   C4B 2977   4.836   2.980   6.324  0.0465 -0.1723 -0.5025
  218POPC   NC3 2978   0.555   1.152   4.427  0.1490  0.2396 -0.0533
  218POPC   PO4 2979   0.167   1.326   4.454 -0.2256  0.3259  0.0282
  218POPC   GL1 2980  -0.127   1.480   4.756  0.0278  0.0165  0.0445
  218POPC   GL2 2981  -0.028   1.388   5.045  0.0355 -0.0904 -0.0330
  218POPC   C1A 2982  -0.250   1.861   5.041 -0.1892 -0.0194  0.0346
  218POPC   D2A 2983  -0.063   1.987   5.375 -0.1972 -0.0206 -0.1378
  218POPC   C3A 2984  -0.235   1.840   5.763  0.4124  0.0692  0.1919
  218POPC   C4A 2985  -0.298   1.500   6.008  0.3073 -0.0714 -0.0534
  218POPC   C1B 2986  -0.171   1.271   5.479 -0.3176  0.0907 -0.0478
  218POPC   C2B 2987  -0.033   1.055   5.827 -0.0090  0.1551  0.3326
  218POPC   C3B 2988  -0.281   1.035   6.179  0.1342 -0.0837 -0.0869
  218POPC   C4B 2989  -0.508   1.243   6.532 -0.0143 -0.1395  0.1128
  219POPC   NC3 2990   5.838   9.335   3.960  0.0194 -0.1086 -0.0108
  219POPC   PO4 2991   6.298   9.208   4.081 -0.1827  0.1389 -0.3034
  219POPC   GL1 2992   6.536   9.245   4.477 -0.0315 -0.2718 -0.0176
  219POPC   GL2 2993   6.531   9.015   4.710 -0.0429 -0.2549 -0.0878
  219POPC   C1A 2994   6.963   9.366   4.743  0.2488 -0.1252 -0.2712
  219POPC   D2A 2995   7.457   9.476   4.815 -0.1420 -0.0835 -0.3279
  219POPC   C3A 2996   7.584   9.355   5.245  0.1237 -0.1641 -0.1170
  219POPC   C4A 2997   7.225   9.391   5.632  0.1799 -0.0898 -0.2154
  219POPC   C1B 2998   6.622   9.157   5.145  0.3072 -0.2623  0.1921
  219POPC   C2B 2999   6.743   9.515   5.394 -0.1805 -0.1319  0.0452
  219POPC   C3B 3000   6.912   9.817   5.585  0.0026 -0.1789  0.1289
  219POPC   C4B 3001   7.090  10.132   5.428  0.0789  0.1439 -0.1946
  220POPC   NC3 3002   0.467   0.143   4.232  0.5947  0.1413  0.0355
  220POPC   PO4 3003   0.567  -0.187   4.635 -0.1091 -0.1343 -0.0128
  220POPC   GL1 3004   0.576  -0.398   4.965  0.0746  0.0623  0.1495
  220POPC   GL2 3005   0.540  -0.785   4.915  0.0880  0.0575  0.1219
  220POPC   C1A 3006   0.734  -0.506   5.390  0.1844  0.1036  0.1857
  220POPC   D2A 3007   0.914  -0.360   5.826 -0.1588 -0.1339  0.0425
  220POPC   C3A 3008   1.170  -0.676   6.109 -0.1687  0.1949  0.1855
  220POPC   C4A 3009   0.968  -0.646   6.550 -0.1521 -0.0905 -0.0049
  220POPC   C1B 3010   0.379  -0.795   5.301 -0.2133  0.1432 -0.0262
  220POPC   C2B 3011   0.491  -0.791   5.708 -0.1764 -0.2295 -0.0141
  220POPC   C3B 3012   0.752  -0.873   6.115 -0.1465 -0.0644  0.0448
  220POPC   C4B 3013   0.880  -1.095   6.547  0.0527 -0.0375  0.1827
  221POPC   NC3 3014   8.372   5.426   4.368 -0.2764  0.0458  0.3468
  221POPC   PO4 3015   8.614   5.661   4.590  0.3173  0.0048  0.2494
  221POPC   GL1 3016   8.588   5.356   4.878 -0.0921  0.2981  0.0636
  221POPC   GL2 3017   8.756   5.447   5.033 -0.0335  0.0457 -0.3282
  221POPC   C1A 3018   8.386   5.058   5.145 -0.2278 -0.3123  0.1727
  221POPC   D2A 3019   8.217   4.884   5.487 -0.0763 -0.2512  0.1699
  221POPC   C3A 3020   8.040   4.860   5.900 -0.2541  0.1813  0.0505
  221POPC   C4A 3021   8.098   4.519   6.048 -0.1527  0.2522  0.4054
  221POPC   C1B 3022   8.986   5.434   5.478  0.1426 -0.1598  0.0055
  221POPC   C2B 3023   8.900   5.307   5.936 -0.0478  0.0734  0.1485
  221POPC   C3B 3024   8.911   5.078   6.347  0.0459  0.0381  0.0948
  221POPC   C4B 3025   8.621   4.952   6.793  0.0766  0.1922  0.1446
  222POPC   NC3 3026   5.091   5.596   4.369  0.3021  0.1112 -0.1919
  222POPC   PO4 3027   4.991   5.521   4.843  0.1070 -0.1308  0.0531
  222POPC   GL1 3028   5.130   5.723   5.278  0.0668 -0.0260 -0.0101
  222POPC   GL2 3029   4.774   5.720   5.285  0.1186  0.1198 -0.1469
  222POPC   C1A 3030   5.110   6.087   5.576  0.0601 -0.2140 -0.0627
  222POPC   D2A 3031   5.119   6.342   5.952 -0.3275  0.1247 -0.0834
  222POPC   C3A 3032   5.352   6.718   6.316 -0.2403 -0.1326 -0.1221
  222POPC   C4A 3033   5.775   6.536   6.519 -0.1202  0.0449 -0.2049
  222POPC   C1B 3034   4.849   5.667   5.675  0.3416 -0.0598  0.2356
  222POPC   C2B 3035   5.169   5.540   6.015  0.2314 -0.1126 -0.2810
  222POPC   C3B 3036   5.056   5.218   6.329 -0.0358  0.0070  0.2036
  222POPC   C4B 3037   4.965   4.766   6.516  0.0557 -0.2305 -0.3232
  223POPC   NC3 3038   6.637   4.011   2.779  0.0056 -0.1605 -0.4410
  223POPC   PO4 3039   6.583   4.343   3.162 -0.0538 -0.1976 -0.2482
  223POPC   GL1 3040   6.516   4.271   3.658 -0.2097  0.3857 -0.1154
  223POPC   GL2 3041   6.485   4.522   3.982  0.1369 -0.0380 -0.0517
  223POPC   C1A 3042   6.898   4.294   3.890  0.1793 -0.2534 -0.0148
  223POPC   D2A 3043   7.210   4.139   4.038 -0.0157  0.1222 -0.0584
  223POPC   C3A 3044   7.101   4.082   4.464 -0.3787 -0.0311 -0.1678
  223POPC   C4A 3045   6.940   3.795   4.801 -0.2324 -0.2587 -0.1236
  223POPC   C1B 3046   6.481   4.085   4.151 -0.0404 -0.2438 -0.3580
  223POPC   C2B 3047   6.093   3.990   4.315 -0.2256  0.1026  0.0748
  223POPC   C3B 3048   6.033   3.626   4.351  0.2053 -0.0748 -0.0027
  223POPC   C4B 3049   5.689   3.349   4.584  0.1080 -0.2800 -0.4153
  224POPC   NC3 3050   0.960   5.608   4.804 -0.1403  0.1492  0.1986
  224POPC   PO4 3051   0.877   5.177   4.854 -0.3758  0.2114  0.0968
  224POPC   GL1 3052   0.888   5.017   5.186  0.0830 -0.1424  0.1123
  224POPC   GL2 3053   0.638   5.128   5.360 -0.2490 -0.1096 -0.2535
  224POPC   C1A 3054   1.215   4.836   5.374 -0.1745 -0.0627 -0.0951
  224POPC   D2A 3055   1.492   4.455   5.234  0.3067  0.0478  0.0386
  224POPC   C3A 3056   1.920   4.452   5.374 -0.2983 -0.1299 -0.0417
  224POPC   C4A 3057   2.152   4.515   5.784  0.0362  0.1005  0.1095
  224POPC   C1B 3058   0.544   4.702   5.400  0.0102 -0.0663  0.1101
  224POPC   C2B 3059   0.372   4.503   5.684 -0.2166  0.2217  0.0183
  224POPC   C3B 3060   0.282   4.499   6.164 -0.1373 -0.1275  0.0603
  224POPC   C4B 3061   0.510   4.122   6.362 -0.1148  0.0971  0.2832
  225POPC   NC3 3062   0.898   8.424   4.066  0.2692  0.0689  0.1185
  225POPC   PO4 3063   1.043   8.087   4.405  0.0145 -0.0777  0.0819
  225POPC   GL1 3064   1.226   8.050   4.730 -0.0636 -0.2531  0.0608
  225POPC   GL2 3065   1.511   8.321   4.672  0.1901  0.1196 -0.0454
  225POPC   C1A 3066   1.569   8.031   5.145  0.1952 -0.1485 -0.0380
  225POPC   D2A 3067   1.625   7.822   5.597  0.0317  0.2281  0.0026
  225POPC   C3A 3068   1.864   8.078   5.874 -0.1222 -0.0968  0.1780
  225POPC   C4A 3069   2.031   8.430   6.012 -0.1359 -0.2089 -0.0836
  225POPC   C1B 3070   1.465   8.500   5.020  0.1025 -0.0157  0.2626
  225POPC   C2B 3071   1.596   8.765   5.358 -0.0229 -0.3820  0.1527
  225POPC   C3B 3072   1.976   8.782   5.581 -0.2561 -0.2216 -0.1203
  225POPC   C4B 3073   2.336   8.767   5.683 -0.1194  0.1501 -0.0060
  226POPC   NC3 3074   4.791   2.229   4.190 -0.0135 -0.0119  0.0711
  226POPC   PO4 3075   5.165   2.500   3.986  0.2233  0.1970  0.3313
  226POPC   GL1 3076   5.094   2.445   4.437 -0.0617  0.1425 -0.3676
  226POPC   GL2 3077   5.096   2.710   4.700 -0.0285 -0.2523 -0.0756
  226POPC   C1A 3078   5.280   2.142   4.809  0.0256  0.2298  0.2939
  226POPC   D2A 3079   5.322   1.920   5.241  0.4025 -0.0434  0.1565
  226POPC   C3A 3080   5.798   1.996   5.321  0.2214 -0.4051 -0.1001
  226POPC   C4A 3081   6.225   1.835   5.264  0.0774 -0.0625  0.2870
  226POPC   C1B 3082   5.411   2.639   4.793 -0.1459 -0.0749 -0.0274
  226POPC   C2B 3083   5.485   2.460   5.135 -0.0415 -0.1045 -0.2502
  226POPC   C3B 3084   5.489   2.358   5.470  0.5368 -0.1388 -0.0616
  226POPC   C4B 3085   5.599   2.102   5.761 -0.3127  0.4722 -0.1507
  227POPC   NC3 3086   8.064   8.196   4.446  0.0148 -0.0828 -0.0137
  227POPC   PO4 3087   7.786   8.434   4.306  0.0558  0.2685 -0.0524
  227POPC   GL1 3088   7.749   8.457   4.792 -0.2400 -0.2230 -0.0558
  227POPC   GL2 3089   7.949   8.725   4.904  0.0980 -0.1519  0.1193
  227POPC   C1A 3090   7.619   8.369   5.318 -0.1905  0.2674 -0.0426
  227POPC   D2A 3091   7.995   8.148   5.500 -0.0223  0.0871 -0.0223
  227POPC   C3A 3092   7.899   8.099   5.961 -0.0701 -0.1940  0.0659
  227POPC   C4A 3093   7.940   7.804   6.255  0.0134 -0.1453  0.2226
  227POPC   C1B 3094   7.941   8.856   5.342  0.3187  0.4078  0.1998
  227POPC   C2B 3095   7.922   8.557   5.741  0.0365 -0.2320  0.2308
  227POPC   C3B 3096   7.573   8.481   5.904  0.1463 -0.1679  0.2776
  227POPC   C4B 3097   7.198   8.529   6.020  0.0208 -0.2061 -0.0838
  228POPC   NC3 3098   7.103   9.454   3.675 -0.1352 -0.1691 -0.2023
  228POPC   PO4 3099   7.428   9.675   3.930 -0.2525 -0.2258  0.0765
  228POPC   GL1 3100   7.229   9.709   4.306  0.0294 -0.2036  0.2100
  228POPC   GL2 3101   7.469   9.870   4.495 -0.3786 -0.2952  0.1658
  228POPC   C1A 3102   6.845   9.648   4.396 -0.2886 -0.1327 -0.1753
  228POPC   D2A 3103   6.482   9.710   4.653  0.1087 -0.2802  0.1825
  228POPC   C3A 3104   6.573   9.782   5.061  0.1331 -0.0522 -0.0476
  228POPC   C4A 3105   6.501  10.077   5.415  0.1733 -0.1074 -0.0788
  228POPC   C1B 3106   7.468  10.271   4.614  0.2713 -0.2319 -0.2451
  228POPC   C2B 3107   7.158  10.461   4.971 -0.2244  0.1734 -0.3688
  228POPC   C3B 3108   6.902  10.917   4.975 -0.3555 -0.0330 -0.0179
  228POPC   C4B 3109   6.686  11.121   5.257 -0.0610  0.0114 -0.3958
  229POPC   NC3 3110   3.120   5.711   4.388 -0.1203  0.1078  0.1807
  229POPC   PO4 3111   2.944   6.153   4.417  0.1771  0.0863  0.1582
  229POPC   GL1 3112   2.922   6.172   4.793  0.0277 -0.0395 -0.0525
  229POPC   GL2 3113   3.128   6.307   5.034  0.0971  0.0899 -0.1955
  229POPC   C1A 3114   2.765   6.025   5.208  0.0582  0.1434 -0.1749
  229POPC   D2A 3115   2.728   5.833   5.521 -0.1184  0.2025  0.2353
  229POPC   C3A 3116   2.648   5.992   5.873 -0.1120 -0.1213  0.0214
  229POPC   C4A 3117   2.515   5.963   6.257  0.1294  0.1216  0.0777
  229POPC   C1B 3118   3.088   6.693   5.352  0.1141  0.0806  0.0774
  229POPC   C2B 3119   3.299   6.842   5.689  0.1424 -0.1761 -0.1601
  229POPC   C3B 3120   3.385   7.109   5.975 -0.1639  0.0002  0.2474
  229POPC   C4B 3121   3.540   7.099   6.372 -0.2569  0.0028 -0.1160
  230POPC   NC3 3122   7.357   6.747   4.668  0.0216 -0.1490 -0.1859
  230POPC   PO4 3123   7.617   7.012   4.869 -0.1455  0.1380  0.0115
  230POPC   GL1 3124   7.663   6.629   5.162 -0.0746  0.2322 -0.4834
  230POPC   GL2 3125   7.600   6.403   5.005  0.1490 -0.0883 -0.4415
  230POPC   C1A 3126   7.818   6.382   5.546 -0.0452  0.0213 -0.2287
  230POPC   D2A 3127   7.966   6.180   5.916 -0.1159  0.3985 -0.1322
  230POPC   C3A 3128   7.560   6.193   6.129 -0.1924 -0.0533  0.0601
  230POPC   C4A 3129   7.260   5.963   6.406 -0.1570  0.1395 -0.3343
  230POPC   C1B 3130   7.588   6.070   5.221 -0.3753  0.0722 -0.3820
  230POPC   C2B 3131   7.532   5.607   5.128 -0.0876 -0.1625  0.1346
  230POPC   C3B 3132   7.602   5.409   5.458  0.0086  0.1174 -0.1775
  230POPC   C4B 3133   7.932   5.303   5.611  0.0779  0.0121  0.4921
  231POPC   NC3 3134   1.821   4.131   4.513  0.3834  0.0964  0.2494
  231POPC   PO4 3135   1.679   4.017   4.894 -0.0458 -0.0577  0.0797
  231POPC   GL1 3136   1.697   3.997   5.287 -0.0957  0.1255  0.1925
  231POPC   GL2 3137   1.510   4.049   5.528 -0.0388  0.0407  0.0061
  231POPC   C1A 3138   1.689   3.569   5.638  0.1330 -0.0836  0.2076
  231POPC   D2A 3139   1.463   3.474   5.978  0.3722 -0.2762 -0.0018
  231POPC   C3A 3140   1.225   3.696   6.297 -0.0001  0.1618 -0.1078
  231POPC   C4A 3141   0.922   3.758   6.615 -0.0739  0.1794 -0.0428
  231POPC   C1B 3142   1.532   4.485   5.734  0.1580  0.0398 -0.1336
  231POPC   C2B 3143   1.336   4.584   6.156  0.1417 -0.1118  0.0405
  231POPC   C3B 3144   1.229   4.635   6.603  0.1089 -0.2303  0.2941
  231POPC   C4B 3145   1.494   4.485   6.931  0.1449  0.1517  0.1545
  232POPC   NC3 3146   4.073   7.156   4.716 -0.1678  0.2350  0.1236
  232POPC   PO4 3147   4.078   6.764   4.624  0.1351  0.1962  0.1766
  232POPC   GL1 3148   4.033   6.739   5.062 -0.2530 -0.2649  0.1262
  232POPC   GL2 3149   4.159   6.971   5.212  0.1905 -0.1830  0.2038
  232POPC   C1A 3150   3.636   6.519   5.271  0.2496  0.0171 -0.0250
  232POPC   D2A 3151   3.492   6.333   5.622 -0.1500  0.0303  0.4784
  232POPC   C3A 3152   3.487   6.402   5.984 -0.3174 -0.0841  0.1090
  232POPC   C4A 3153   3.411   6.086   6.416 -0.3345  0.0658  0.0757
  232POPC   C1B 3154   4.356   7.213   5.507 -0.0859 -0.1865  0.4403
  232POPC   C2B 3155   4.388   7.427   5.882 -0.2248 -0.2417  0.0726
  232POPC   C3B 3156   4.640   7.389   6.209  0.1816  0.0435  0.2506
  232POPC   C4B 3157   4.527   7.117   6.458  0.2171 -0.3670 -0.0581
  233POPC   NC3 3158   8.388   4.117   3.630  0.0371 -0.1631 -0.0535
  233POPC   PO4 3159   8.773   4.149   3.852  0.1269  0.3591 -0.1470
  233POPC   GL1 3160   8.570   4.313   4.266  0.1030  0.0974  0.0328
  233POPC   GL2 3161   8.238   4.146   4.162 -0.2694  0.3873 -0.1985
  233POPC   C1A 3162   8.817   4.382   4.606 -0.3003 -0.0093 -0.2547
  233POPC   D2A 3163   9.080   4.146   4.761  0.0990 -0.2083 -0.1681
  233POPC   C3A 3164   9.427   4.264   5.073 -0.1530  0.2614 -0.4724
  233POPC   C4A 3165   9.873   4.383   5.082  0.0863 -0.0522 -0.2433
  233POPC   C1B 3166   8.426   3.905   4.552  0.0079 -0.1558  0.0281
  233POPC   C2B 3167   8.649   4.141   4.989 -0.1287  0.3878  0.0163
  233POPC   C3B 3168   8.965   4.190   5.272 -0.1202  0.1702  0.1242
  233POPC   C4B 3169   9.241   4.121   5.591  0.1681  0.0036  0.0619
  234POPC   NC3 3170   0.130   0.969   4.774  0.0962 -0.0118  0.0977
  234POPC   PO4 3171   0.568   0.779   4.859 -0.0446  0.0641 -0.2008
  234POPC   GL1 3172   0.557   0.915   5.188  0.0151  0.1005 -0.2195
  234POPC   GL2 3173   0.212   0.834   5.317 -0.0238  0.0326 -0.1218
  234POPC   C1A 3174   0.352   1.334   5.399 -0.2823  0.4712  0.0758
  234POPC   D2A 3175   0.296   1.731   5.688 -0.1344  0.0669  0.1191
  234POPC   C3A 3176   0.115   1.776   6.139  0.1536  0.1011  0.1241
  234POPC   C4A 3177   0.065   1.415   6.372 -0.3329 -0.2347  0.3138
  234POPC   C1B 3178   0.293   0.670   5.784  0.1115 -0.2071 -0.0632
  234POPC   C2B 3179   0.200   0.808   6.219 -0.2974 -0.2409 -0.2307
  234POPC   C3B 3180  -0.110   0.786   6.599 -0.1580  0.0655  0.0773
  234POPC   C4B 3181  -0.481   0.693   6.643 -0.3446  0.0544 -0.0879
  235POPC   NC3 3182   2.291   9.299   4.119  0.1779 -0.2788 -0.1080
  235POPC   PO4 3183   1.936   9.028   4.272  0.0372 -0.1643  0.2294
  235POPC   GL1 3184   1.892   8.912   4.682 -0.0990  0.0411 -0.0237
  235POPC   GL2 3185   1.661   8.958   4.837  0.1445  0.0850  0.1472
  235POPC   C1A 3186   2.145   8.897   5.082 -0.0816  0.1666  0.1455
  235POPC   D2A 3187   2.530   9.093   5.319  0.1196  0.2928 -0.1415
  235POPC   C3A 3188   2.386   9.447   5.516  0.4028 -0.1464 -0.0117
  235POPC   C4A 3189   2.316   9.787   5.391  0.2310  0.2274  0.5515
  235POPC   C1B 3190   1.738   9.235   5.315  0.1604 -0.0876 -0.1995
  235POPC   C2B 3191   1.577   9.571   5.406 -0.0314  0.0406 -0.1244
  235POPC   C3B 3192   1.164   9.669   5.521  0.0816 -0.0851 -0.0042
  235POPC   C4B 3193   0.739   9.740   5.724  0.0261 -0.1535  0.1259
  236POPC   NC3 3194   2.159   6.472   3.970  0.1386  0.0624  0.1039
  236POPC   PO4 3195   2.585   6.762   4.095  0.1973 -0.3250 -0.2789
  236POPC   GL1 3196   2.697   6.692   4.618 -0.2335 -0.1278 -0.1787
  236POPC   GL2 3197   2.567   6.952   4.839 -0.0216 -0.2596 -0.1898
  236POPC   C1A 3198   2.673   6.530   5.056 -0.0027 -0.0461  0.1883
  236POPC   D2A 3199   2.620   6.448   5.465  0.0136 -0.0553 -0.3367
  236POPC   C3A 3200   2.997   6.293   5.608  0.1172 -0.3141 -0.1935
  236POPC   C4A 3201   3.168   6.044   5.994 -0.2277 -0.0764  0.1181
  236POPC   C1B 3202   2.636   7.202   5.191 -0.1883  0.1789 -0.3454
  236POPC   C2B 3203   2.705   6.929   5.576  0.2493  0.4458 -0.1651
  236POPC   C3B 3204   2.919   6.758   5.909 -0.0037  0.1256  0.1010
  236POPC   C4B 3205   3.237   6.733   6.290  0.1228  0.1684 -0.1310
  237POPC   NC3 3206   7.516   8.859   4.544 -0.0127 -0.0664 -0.0811
  237POPC   PO4 3207   7.062   8.837   4.425 -0.3024 -0.2481  0.0413
  237POPC   GL1 3208   7.012   8.870   4.841 -0.0041 -0.2390 -0.1259
  237POPC   GL2 3209   6.815   8.601   5.012  0.0695  0.0023 -0.1512
  237POPC   C1A 3210   7.092   9.111   5.259  0.2023  0.0154 -0.1078
  237POPC   D2A 3211   6.755   9.135   5.665  0.2239  0.0724  0.0045
  237POPC   C3A 3212   6.863   9.437   5.938  0.0933 -0.2776  0.0333
  237POPC   C4A 3213   6.913   9.726   6.133 -0.0027  0.1688  0.1268
  237POPC   C1B 3214   6.582   8.746   5.423  0.2143  0.1944  0.2286
  237POPC   C2B 3215   6.264   8.625   5.729  0.0892  0.0577  0.0258
  237POPC   C3B 3216   6.190   8.525   6.069 -0.0046 -0.2158 -0.2120
  237POPC   C4B 3217   6.455   8.724   6.429 -0.2940 -0.4918 -0.2446
  238POPC   NC3 3218   3.644   1.163   4.118 -0.2017  0.0363  0.0225
  238POPC   PO4 3219   3.742   1.458   4.401 -0.0349  0.0106 -0.2367
  238POPC   GL1 3220   4.042   1.566   4.697 -0.1223  0.3785  0.0312
  238POPC   GL2 3221   3.981   1.510   4.993 -0.0923  0.0545 -0.1571
  238POPC   C1A 3222   4.485   1.573   4.933  0.1190  0.2994  0.0371
  238POPC   D2A 3223   4.664   1.669   5.351 -0.2833 -0.3350 -0.1359
  238POPC   C3A 3224   4.697   1.949   5.795 -0.1886 -0.5062 -0.0245
  238POPC   C4A 3225   5.055   2.152   5.853 -0.3031  0.3445  0.3040
  238POPC   C1B 3226   4.207   1.433   5.394 -0.0089  0.1169  0.1700
  238POPC   C2B 3227   4.491   1.319   5.728 -0.0211 -0.1845  0.1601
  238POPC   C3B 3228   4.726   1.462   5.951 -0.0355 -0.2742  0.0972
  238POPC   C4B 3229   5.010   1.745   6.129 -0.0349  0.0603 -0.2400
  239POPC   NC3 3230   5.211   9.063   4.377  0.2518  0.2477 -0.2178
  239POPC   PO4 3231   4.908   9.434   4.310  0.3324 -0.0427 -0.0563
  239POPC   GL1 3232   4.993   9.642   4.720  0.0807 -0.2560  0.2979
  239POPC   GL2 3233   4.717   9.603   4.806 -0.0328 -0.3184 -0.1533
  239POPC   C1A 3234   5.119   9.801   5.115 -0.0043 -0.1956  0.1338
  239POPC   D2A 3235   5.498   9.760   5.079 -0.2671  0.2465  0.0902
  239POPC   C3A 3236   5.690   9.474   4.825 -0.1807  0.1335  0.0465
  239POPC   C4A 3237   6.064   9.190   4.795 -0.0995 -0.3814  0.3656
  239POPC   C1B 3238   4.669   9.646   5.191 -0.0045 -0.4267 -0.0605
  239POPC   C2B 3239   4.827   9.449   5.540 -0.1619 -0.1121 -0.1199
  239POPC   C3B 3240   4.982   9.428   5.980  0.0908  0.2333  0.2138
  239POPC   C4B 3241   5.023   9.524   6.428 -0.0349 -0.0499 -0.1124
  240POPC   NC3 3242   1.284   3.240   4.732 -0.3617  0.1256 -0.0297
  240POPC   PO4 3243   1.467   2.912   4.917 -0.0409  0.2509 -0.0199
  240POPC   GL1 3244   1.364   2.754   5.318 -0.0108 -0.0187  0.0737
  240POPC   GL2 3245   1.334   2.383   5.297  0.0971  0.0142 -0.1183
  240POPC   C1A 3246   1.150   2.777   5.726  0.1225 -0.2094  0.1270
  240POPC   D2A 3247   1.078   3.253   5.819  0.0819 -0.0454 -0.2677
  240POPC   C3A 3248   0.746   3.532   5.862 -0.0990 -0.3033 -0.2217
  240POPC   C4A 3249   0.728   3.717   6.151  0.0263 -0.1949  0.0772
  240POPC   C1B 3250   1.390   2.260   5.708 -0.1821 -0.0380 -0.1973
  240POPC   C2B 3251   1.509   2.442   6.171 -0.2202 -0.3697  0.0500
  240POPC   C3B 3252   1.310   2.551   6.518  0.2326 -0.1673  0.0504
  240POPC   C4B 3253   1.172   2.960   6.795 -0.1246 -0.0954 -0.0955
  241POPC   NC3 3254   5.947   7.743   4.515  0.1306  0.0779 -0.1433
  241POPC   PO4 3255   5.696   7.266   4.301  0.1441 -0.3119 -0.0968
  241POPC   GL1 3256   5.873   7.142   4.740  0.4059  0.0118 -0.0580
  241POPC   GL2 3257   5.712   6.909   4.884 -0.2710 -0.0539 -0.0405
  241POPC   C1A 3258   6.177   6.969   5.087  0.0282  0.0075  0.1066
  241POPC   D2A 3259   6.389   6.708   5.445  0.0601 -0.0040 -0.0489
  241POPC   C3A 3260   6.466   6.921   5.806  0.1234  0.1888  0.2835
  241POPC   C4A 3261   6.455   7.106   6.236  0.0526  0.0257  0.0572
  241POPC   C1B 3262   5.752   7.214   5.222 -0.2016  0.1151  0.2486
  241POPC   C2B 3263   5.497   7.280   5.547  0.0150 -0.0279  0.2223
  241POPC   C3B 3264   5.498   7.266   5.966 -0.0386 -0.0952  0.1436
  241POPC   C4B 3265   5.758   7.041   6.330  0.0501 -0.1660 -0.0320
  242POPC   NC3 3266   8.169   3.569   2.940 -0.1478  0.2463  0.1921
  242POPC   PO4 3267   8.254   3.774   3.265  0.3739 -0.1527  0.1008
  242POPC   GL1 3268   8.138   3.646   3.702  0.1282 -0.0715  0.0594
  242POPC   GL2 3269   7.770   3.685   3.744 -0.0647 -0.1097 -0.0469
  242POPC   C1A 3270   8.212   3.641   4.113 -0.0532 -0.1339  0.1117
  242POPC   D2A 3271   8.213   3.498   4.693 -0.1048  0.3505  0.5252
  242POPC   C3A 3272   8.229   3.746   4.994 -0.0460 -0.0478 -0.0109
  242POPC   C4A 3273   8.302   4.013   5.334 -0.1163 -0.2459 -0.1141
  242POPC   C1B 3274   7.772   3.876   4.138 -0.2153  0.1926  0.3647
  242POPC   C2B 3275   7.941   3.913   4.526 -0.0173 -0.2291 -0.0032
  242POPC   C3B 3276   7.703   4.190   4.830  0.3419 -0.3145 -0.1576
  242POPC   C4B 3277   7.291   4.058   4.981 -0.3556  0.1790  0.1073
  243POPC   NC3 3278   1.451   1.651   4.680 -0.0611 -0.1177  0.0849
  243POPC   PO4 3279   1.936   1.635   4.513 -0.2074 -0.4519 -0.1274
  243POPC   GL1 3280   1.930   1.518   4.958 -0.4254 -0.1164 -0.0762
  243POPC   GL2 3281   2.012   1.178   5.046  0.1364  0.2135 -0.0671
  243POPC   C1A 3282   2.116   1.624   5.401  0.2248 -0.2305  0.1074
  243POPC   D2A 3283   2.235   1.791   5.574  0.3538  0.3081 -0.0115
  243POPC   C3A 3284   2.121   1.796   5.906  0.2479 -0.0498 -0.0600
  243POPC   C4A 3285   1.785   1.739   6.269 -0.1225  0.1421 -0.2975
  243POPC   C1B 3286   2.309   1.184   5.459  0.0989  0.0077 -0.1686
  243POPC   C2B 3287   2.541   1.444   5.751 -0.3962 -0.0882  0.1216
  243POPC   C3B 3288   2.839   1.483   6.079  0.0182 -0.1098  0.0442
  243POPC   C4B 3289   3.270   1.671   6.269  0.0826  0.1672  0.0528
  244POPC   NC3 3290   2.934   3.225   4.847  0.0739  0.2048  0.1765
  244POPC   PO4 3291   2.931   3.650   5.042  0.0895  0.4275 -0.0129
  244POPC   GL1 3292   3.087   3.721   5.332 -0.1888  0.0768 -0.4583
  244POPC   GL2 3293   3.400   3.916   5.279 -0.3947 -0.3233  0.1516
  244POPC   C1A 3294   2.966   3.955   5.681  0.1802 -0.3145  0.4034
  244POPC   D2A 3295   3.230   3.965   6.153  0.2447  0.2647 -0.2285
  244POPC   C3A 3296   3.368   4.280   6.471  0.2348 -0.0105 -0.0958
  244POPC   C4A 3297   3.760   4.404   6.699  0.0530  0.1496  0.0602
  244POPC   C1B 3298   3.513   3.930   5.719 -0.0239 -0.2782 -0.0201
  244POPC   C2B 3299   3.776   4.069   6.009  0.1116 -0.1682  0.1008
  244POPC   C3B 3300   3.826   3.913   6.607  0.1085 -0.1509 -0.2876
  244POPC   C4B 3301   3.713   3.502   6.782 -0.3406  0.2941 -0.0449
  245POPC   NC3 3302   6.541   6.661   4.301 -0.0582 -0.0134 -0.2021
  245POPC   PO4 3303   6.801   6.796   4.620  0.0967  0.0511  0.0029
  245POPC   GL1 3304   6.662   6.675   5.024  0.0655 -0.0613 -0.1021
  245POPC   GL2 3305   6.374   6.426   5.013 -0.1934  0.1035  0.0466
  245POPC   C1A 3306   6.847   6.868   5.498  0.0102  0.1324  0.1020
  245POPC   D2A 3307   7.289   7.049   5.714 -0.1782  0.1461  0.1928
  245POPC   C3A 3308   7.696   6.818   5.619  0.1726 -0.0988  0.1220
  245POPC   C4A 3309   8.186   6.617   5.780  0.2662  0.2990  0.1315
  245POPC   C1B 3310   6.687   6.318   5.348  0.0765 -0.0758 -0.1370
  245POPC   C2B 3311   6.836   6.430   5.732  0.0598 -0.3420 -0.0713
  245POPC   C3B 3312   6.514   6.464   6.057  0.1927 -0.2071  0.2251
  245POPC   C4B 3313   6.234   6.664   6.259  0.1574  0.0650 -0.2381
  246POPC   NC3 3314   4.033   5.432   4.737  0.0458  0.2052  0.1941
  246POPC   PO4 3315   3.975   5.824   4.635 -0.1427 -0.2021  0.0543
  246POPC   GL1 3316   3.976   5.872   5.082 -0.2325 -0.0197 -0.0440
  246POPC   GL2 3317   3.757   6.109   5.100  0.0633 -0.0345 -0.0366
  246POPC   C1A 3318   3.825   5.819   5.500  0.0814 -0.0843 -0.0809
  246POPC   D2A 3319   3.680   5.918   5.946  0.0549  0.0688 -0.3171
  246POPC   C3A 3320   3.563   5.670   6.246 -0.0960  0.0104 -0.1634
  246POPC   C4A 3321   3.458   5.634   6.667 -0.4177  0.2642  0.2916
  246POPC   C1B 3322   3.383   5.837   5.354 -0.2001 -0.0474  0.3402
  246POPC   C2B 3323   3.172   5.580   5.655 -0.2328 -0.1591 -0.2254
  246POPC   C3B 3324   2.976   5.529   6.080  0.0160 -0.1956 -0.3898
  246POPC   C4B 3325   3.004   5.772   6.389 -0.0149  0.0754  0.0275
  247POPC   NC3 3326   9.496   3.298   3.440  0.1282  0.1891  0.0147
  247POPC   PO4 3327   9.481   3.612   3.723 -0.0344  0.2355  0.2344
  247POPC   GL1 3328   9.291   3.550   4.134  0.0915 -0.3047 -0.1470
  247POPC   GL2 3329   8.899   3.656   4.023 -0.0037  0.0857 -0.1208
  247POPC   C1A 3330   9.246   3.507   4.579 -0.1835  0.2761  0.0265
  247POPC   D2A 3331   9.348   3.706   4.924  0.1412  0.3321  0.0617
  247POPC   C3A 3332   9.394   3.750   5.329 -0.2904 -0.2077  0.5085
  247POPC   C4A 3333   9.599   3.391   5.572 -0.0504 -0.1595  0.1925
  247POPC   C1B 3334   8.776   3.511   4.407 -0.1821  0.3017 -0.0899
  247POPC   C2B 3335   8.769   3.589   4.880 -0.1918 -0.2058  0.1442
  247POPC   C3B 3336   8.747   3.698   5.267  0.2403  0.0678 -0.3470
  247POPC   C4B 3337   8.960   3.673   5.692 -0.2205  0.1455  0.1811
  248POPC   NC3 3338   8.806   4.668   3.944 -0.1806  0.2417 -0.1978
  248POPC   PO4 3339   8.642   4.978   4.155  0.2885 -0.0119  0.2258
  248POPC   GL1 3340   8.646   4.829   4.585  0.2405  0.1521 -0.0491
  248POPC   GL2 3341   8.914   4.903   4.647  0.1410 -0.1018  0.1421
  248POPC   C1A 3342   8.432   4.663   4.808  0.1447 -0.0022  0.1029
  248POPC   D2A 3343   8.184   4.328   4.936  0.1244  0.0746 -0.2265
  248POPC   C3A 3344   7.985   4.441   5.338  0.3550 -0.2965  0.0890
  248POPC   C4A 3345   7.741   4.457   5.678 -0.0033 -0.0010 -0.0249
  248POPC   C1B 3346   8.937   4.637   5.018  0.1831  0.2154  0.6476
  248POPC   C2B 3347   9.118   4.610   5.321 -0.0418 -0.1048 -0.1210
  248POPC   C3B 3348   9.510   4.557   5.591  0.0471  0.0162  0.0842
  248POPC   C4B 3349   9.447   4.343   5.989  0.0448  0.1296  0.0416
  249POPC   NC3 3350   0.488   3.398   4.302 -0.3249  0.0453  0.1163
  249POPC   PO4 3351   0.762   3.257   4.503 -0.0515  0.0963  0.3398
  249POPC   GL1 3352   0.758   3.076   4.904 -0.0481  0.3412  0.0420
  249POPC   GL2 3353   0.925   2.855   4.898 -0.1349 -0.1597 -0.0357
  249POPC   C1A 3354   0.542   3.180   5.341  0.1079 -0.2418 -0.0884
  249POPC   D2A 3355   0.493   3.109   5.795  0.0439 -0.1511 -0.0400
  249POPC   C3A 3356   0.255   2.732   6.001  0.1924  0.3025  0.2615
  249POPC   C4A 3357  -0.056   2.762   6.272 -0.1733  0.1779 -0.1729
  249POPC   C1B 3358   0.890   2.741   5.326 -0.1039 -0.2723 -0.1051
  249POPC   C2B 3359   0.673   2.609   5.725  0.3584  0.1446  0.1790
  249POPC   C3B 3360   0.717   2.700   6.133  0.0479  0.0431  0.0855
  249POPC   C4B 3361   0.408   2.514   6.410 -0.2026  0.0947 -0.1511
  250POPC   NC3 3362   4.241   5.582   4.135 -0.0135 -0.0830 -0.1696
  250POPC   PO4 3363   4.617   5.511   4.454 -0.0610 -0.0533  0.2718
  250POPC   GL1 3364   4.510   5.316   4.917 -0.0219  0.0136 -0.0237
  250POPC   GL2 3365   4.445   4.932   4.931  0.0757 -0.0045 -0.1179
  250POPC   C1A 3366   4.583   5.291   5.388  0.0516 -0.1972 -0.2284
  250POPC   D2A 3367   4.494   5.218   5.752  0.2303 -0.2106  0.1674
  250POPC   C3A 3368   4.829   5.221   5.929  0.0640  0.1488  0.1385
  250POPC   C4A 3369   5.185   5.010   5.874  0.1674  0.0784 -0.1016
  250POPC   C1B 3370   4.657   4.784   5.262 -0.0474 -0.2417  0.2156
  250POPC   C2B 3371   4.821   4.784   5.641 -0.0474 -0.0627  0.2857
  250POPC   C3B 3372   4.838   4.678   6.035 -0.0461 -0.0686  0.1112
  250POPC   C4B 3373   5.182   4.505   6.201 -0.3728  0.1437 -0.0931
  251POPC   NC3 3374   9.231   8.194   4.136  0.0310 -0.3740  0.1396
  251POPC   PO4 3375   8.881   8.274   4.569 -0.0412  0.1871 -0.1220
  251POPC   GL1 3376   8.852   8.212   4.982  0.3264 -0.0598  0.0500
  251POPC   GL2 3377   8.971   7.918   5.050 -0.0254 -0.2957 -0.3150
  251POPC   C1A 3378   9.043   8.340   5.409 -0.1294  0.1092  0.0488
  251POPC   D2A 3379   9.054   8.684   5.592 -0.1606 -0.4448 -0.0667
  251POPC   C3A 3380   8.760   9.018   5.653 -0.1960  0.1144  0.2994
  251POPC   C4A 3381   8.594   9.270   5.912  0.0533 -0.1143 -0.3897
  251POPC   C1B 3382   9.384   8.019   5.239 -0.0062  0.0516 -0.1419
  251POPC   C2B 3383   9.600   8.177   5.471 -0.1277  0.3834 -0.6113
  251POPC   C3B 3384   9.978   8.050   5.471  0.0785 -0.1268 -0.3120
  251POPC   C4B 3385  10.410   7.884   5.337  0.0067 -0.0899 -0.0518
  252POPC   NC3 3386   4.182   0.626   4.264  0.3614 -0.2803  0.1329
  252POPC   PO4 3387   4.044   0.634   4.828 -0.2921  0.1535 -0.1550
  252POPC   GL1 3388   3.802   0.693   5.160  0.0117 -0.1402  0.0002
  252POPC   GL2 3389   3.545   0.508   5.307  0.3300  0.2085  0.0767
  252POPC   C1A 3390   3.776   1.120   5.412 -0.3255 -0.0919  0.0707
  252POPC   D2A 3391   3.901   1.262   5.805 -0.1628 -0.2323 -0.1481
  252POPC   C3A 3392   3.631   1.252   6.276 -0.0507 -0.1739  0.1414
  252POPC   C4A 3393   3.407   1.344   6.616  0.2053  0.1897 -0.1098
  252POPC   C1B 3394   3.870   0.594   5.682  0.2667  0.0440  0.0787
  252POPC   C2B 3395   4.148   0.865   5.941 -0.1377  0.2615 -0.0246
  252POPC   C3B 3396   4.467   0.982   6.153 -0.0946 -0.2064 -0.4018
  252POPC   C4B 3397   4.958   0.734   6.269 -0.0517  0.0707  0.0347
  253POPC   NC3 3398   7.830   0.362   4.182 -0.0542 -0.0908  0.1769
  253POPC   PO4 3399   8.117   0.698   4.120  0.1443  0.0527 -0.1754
  253POPC   GL1 3400   8.151   0.594   4.563 -0.1322  0.3162  0.0970
  253POPC   GL2 3401   8.366   0.374   4.781  0.0470  0.0145  0.0224
  253POPC   C1A 3402   8.410   0.860   4.912 -0.3367 -0.0755  0.0167
  253POPC   D2A 3403   8.861   0.917   5.183  0.0665 -0.0244  0.0334
  253POPC   C3A 3404   8.671   1.059   5.650  0.0553 -0.3306 -0.2605
  253POPC   C4A 3405   8.422   1.396   5.958  0.0133  0.1794  0.3256
  253POPC   C1B 3406   8.458   0.443   5.264  0.1479  0.0398 -0.1037
  253POPC   C2B 3407   8.483   0.443   5.741  0.1119 -0.1742  0.0257
  253POPC   C3B 3408   8.666   0.200   6.100  0.3183  0.3022 -0.3540
  253POPC   C4B 3409   8.805   0.067   6.570 -0.1987 -0.0677  0.1364
  254POPC   NC3 3410   7.691   2.222   3.368  0.0997  0.1543 -0.1410
  254POPC   PO4 3411   7.299   2.394   3.373 -0.1303  0.2717  0.0400
  254POPC   GL1 3412   7.486   2.638   3.683  0.0973  0.0454  0.0728
  254POPC   GL2 3413   7.489   2.299   3.850 -0.1504  0.3565  0.1715
  254POPC   C1A 3414   7.559   2.966   3.906  0.0555  0.1501  0.3788
  254POPC   D2A 3415   7.762   3.303   4.127  0.1576  0.0581 -0.1309
  254POPC   C3A 3416   8.061   3.197   4.355  0.1059  0.0282 -0.1504
  254POPC   C4A 3417   8.488   3.025   4.341 -0.1770 -0.0749 -0.0329
  254POPC   C1B 3418   7.243   2.569   4.148 -0.0665 -0.1502 -0.0427
  254POPC   C2B 3419   6.983   2.918   3.992  0.0513 -0.2814 -0.1509
  254POPC   C3B 3420   6.879   3.324   3.989 -0.0603  0.0960  0.1432
  254POPC   C4B 3421   6.859   3.765   3.945  0.2734  0.4422  0.1341
  255POPC   NC3 3422   4.565   6.853   4.617  0.1076  0.0063 -0.0495
  255POPC   PO4 3423   4.791   7.054   4.739 -0.0409  0.1581  0.3910
  255POPC   GL1 3424   4.978   6.876   5.068  0.3283  0.2872 -0.1580
  255POPC   GL2 3425   5.207   7.131   5.187 -0.2385 -0.0542  0.2356
  255POPC   C1A 3426   4.819   6.695   5.444  0.1627  0.1805  0.0524
  255POPC   D2A 3427   4.413   6.634   5.698 -0.0986 -0.1183 -0.0387
  255POPC   C3A 3428   4.263   6.939   6.009  0.3024 -0.0076  0.0314
  255POPC   C4A 3429   3.882   7.258   5.931  0.2353  0.3299 -0.1442
  255POPC   C1B 3430   4.850   7.167   5.500  0.1770  0.1344 -0.0650
  255POPC   C2B 3431   4.762   6.938   5.966 -0.0398 -0.3311  0.1059
  255POPC   C3B 3432   4.860   6.585   6.272 -0.1006  0.0179 -0.2367
  255POPC   C4B 3433   5.034   6.437   6.642 -0.0065 -0.2867  0.0738
  256POPC   NC3 3434   5.450   6.075   4.992 -0.1352  0.1431 -0.3572
  256POPC   PO4 3435   5.497   5.726   4.825 -0.0733 -0.1430  0.1229
  256POPC   GL1 3436   5.564   5.477   5.182 -0.0628 -0.2179 -0.0333
  256POPC   GL2 3437   5.785   5.332   5.005  0.4696 -0.1990 -0.0273
  256POPC   C1A 3438   5.492   5.495   5.577  0.0554 -0.1221 -0.0431
  256POPC   D2A 3439   5.636   5.476   5.939 -0.1525  0.0288  0.1985
  256POPC   C3A 3440   5.537   5.198   6.135 -0.0440  0.2156 -0.1251
  256POPC   C4A 3441   5.482   4.897   6.612  0.1038  0.1776 -0.1258
  256POPC   C1B 3442   6.053   5.574   5.286  0.1062  0.0109 -0.1301
  256POPC   C2B 3443   6.082   5.493   5.722  0.1864 -0.1607 -0.3019
  256POPC   C3B 3444   5.995   5.693   6.214 -0.1776 -0.0088 -0.3684
  256POPC   C4B 3445   6.215   5.653   6.649 -0.2155  0.1099 -0.1672
  257POPC   NC3 3446   4.922   5.982   4.739  0.0581  0.0858  0.1798
  257POPC   PO4 3447   4.613   6.241   4.810  0.0148  0.0165  0.1169
  257POPC   GL1 3448   4.367   6.248   5.213 -0.1852  0.3422  0.1143
  257POPC   GL2 3449   4.571   6.187   5.470  0.2336  0.1504  0.0336
  257POPC   C1A 3450   4.057   6.377   5.460 -0.1511  0.0112 -0.2460
  257POPC   D2A 3451   3.862   6.751   5.710 -0.1180  0.2387  0.2872
  257POPC   C3A 3452   3.807   6.745   6.158  0.2727  0.0458  0.0130
  257POPC   C4A 3453   3.704   6.693   6.550 -0.0777  0.0704  0.2226
  257POPC   C1B 3454   4.719   6.116   5.883  0.1510 -0.0697 -0.0592
  257POPC   C2B 3455   5.037   6.015   6.309 -0.0765  0.1070 -0.2737
  257POPC   C3B 3456   5.397   6.225   6.433 -0.1369 -0.0266 -0.0755
  257POPC   C4B 3457   5.725   5.983   6.639  0.0026  0.1588 -0.3530
  258POPC   NC3 3458   6.180   8.802   4.300 -0.0270  0.0729  0.1073
  258POPC   PO4 3459   5.989   8.533   4.530  0.3101  0.0771 -0.2063
  258POPC   GL1 3460   6.224   8.653   4.868  0.0333  0.1389 -0.0946
  258POPC   GL2 3461   6.347   8.387   5.100  0.1073  0.1541  0.0582
  258POPC   C1A 3462   6.154   8.879   5.233  0.1226  0.1036 -0.1779
  258POPC   D2A 3463   6.229   9.113   5.606  0.0335 -0.2830 -0.1387
  258POPC   C3A 3464   5.883   9.325   5.894  0.0739  0.1810 -0.0122
  258POPC   C4A 3465   5.710   9.706   6.154 -0.2298 -0.2278 -0.2393
  258POPC   C1B 3466   6.225   8.251   5.399  0.2455  0.0757  0.1662
  258POPC   C2B 3467   6.210   8.049   5.850 -0.1108 -0.0215 -0.2083
  258POPC   C3B 3468   6.178   7.962   6.306  0.2525  0.0540  0.0869
  258POPC   C4B 3469   6.146   8.284   6.528  0.1310  0.0702 -0.0802
  259POPC   NC3 3470   0.876   7.531   4.551  0.0016  0.2785 -0.0110
  259POPC   PO4 3471   1.239   7.177   4.418  0.0038  0.3122  0.1151
  259POPC   GL1 3472   1.104   7.286   4.892  0.4670  0.2193 -0.3067
  259POPC   GL2 3473   1.079   7.610   5.027 -0.2819  0.4565  0.2757
  259POPC   C1A 3474   1.125   7.041   5.283  0.0764  0.0081  0.4128
  259POPC   D2A 3475   0.997   6.902   5.599 -0.0161 -0.1560 -0.0770
  259POPC   C3A 3476   0.747   6.482   5.549 -0.1817  0.1493 -0.2719
  259POPC   C4A 3477   0.666   6.010   5.671 -0.1952 -0.0124  0.3167
  259POPC   C1B 3478   1.111   7.619   5.556 -0.2771 -0.0832 -0.0392
  259POPC   C2B 3479   1.039   7.623   6.000  0.0253 -0.2445 -0.3550
  259POPC   C3B 3480   1.047   7.704   6.462 -0.0022  0.0185 -0.3692
  259POPC   C4B 3481   1.158   7.532   6.827  0.1542  0.1806  0.1897
  260POPC   NC3 3482   3.259   9.051   4.710  0.1253  0.0051 -0.0350
  260POPC   PO4 3483   3.406   9.542   4.649 -0.4469  0.0481 -0.4473
  260POPC   GL1 3484   3.047   9.465   4.974 -0.0764  0.2098  0.0583
  260POPC   GL2 3485   2.896   9.159   5.045  0.2766 -0.0959 -0.1948
  260POPC   C1A 3486   2.862   9.687   5.333 -0.0707 -0.1647  0.3949
  260POPC   D2A 3487   2.792   9.664   5.784 -0.1861  0.1118  0.3176
  260POPC   C3A 3488   2.884   9.241   5.999 -0.1983 -0.0843  0.1479
  260POPC   C4A 3489   3.111   9.017   6.231 -0.0319  0.1710  0.0418
  260POPC   C1B 3490   2.978   9.218   5.502  0.0724 -0.0830 -0.1097
  260POPC   C2B 3491   3.357   9.404   5.780 -0.0130  0.1377  0.0258
  260POPC   C3B 3492   3.520   9.325   6.095  0.4151  0.2967 -0.1383
  260POPC   C4B 3493   3.770   9.069   6.368  0.2480  0.4630 -0.0774
  261POPC   NC3 3494   8.831   7.059   4.274 -0.6318 -0.1077 -0.2867
  261POPC   PO4 3495   8.839   7.480   4.648  0.2813 -0.1557 -0.1669
  261POPC   GL1 3496   8.969   7.413   5.054  0.3437 -0.3040  0.3058
  261POPC   GL2 3497   9.265   7.480   4.977 -0.2029  0.1260 -0.0314
  261POPC   C1A 3498   8.901   7.451   5.446  0.2457 -0.0749 -0.0878
  261POPC   D2A 3499   9.114   7.607   5.907  0.0066  0.3962  0.2999
  261POPC   C3A 3500   9.143   7.974   5.737  0.4300 -0.0538 -0.0190
  261POPC   C4A 3501   9.344   8.329   5.849  0.0838 -0.2698 -0.0287
  261POPC   C1B 3502   9.479   7.478   5.371  0.1022 -0.3544 -0.0206
  261POPC   C2B 3503   9.629   7.712   5.745 -0.2577  0.0853 -0.1308
  261POPC   C3B 3504   9.846   8.090   5.952 -0.0099  0.2908 -0.0568
  261POPC   C4B 3505  10.148   8.463   5.928  0.2054  0.1580 -0.0192
  262POPC   NC3 3506   2.982   8.148   3.966 -0.1013 -0.1364  0.1307
  262POPC   PO4 3507   2.984   8.269   4.422  0.1565  0.0092  0.1828
  262POPC   GL1 3508   2.895   8.143   4.890  0.1544  0.0457 -0.0389
  262POPC   GL2 3509   2.630   7.981   5.035  0.0083  0.0396  0.1197
  262POPC   C1A 3510   2.984   8.169   5.409 -0.0373  0.0300  0.0169
  262POPC   D2A 3511   2.963   7.912   5.674  0.0415 -0.0251  0.2141
  262POPC   C3A 3512   3.116   7.793   6.044  0.4220  0.2235 -0.0916
  262POPC   C4A 3513   3.506   7.593   6.155  0.2200  0.2775 -0.1901
  262POPC   C1B 3514   2.774   7.625   5.226 -0.2205 -0.2769  0.0788
  262POPC   C2B 3515   2.607   7.548   5.576  0.2414  0.1454 -0.3516
  262POPC   C3B 3516   2.437   7.807   5.964 -0.1952 -0.1795  0.0840
  262POPC   C4B 3517   2.233   8.069   6.277  0.1055 -0.1357  0.4246
  263POPC   NC3 3518   1.957   9.515   4.470 -0.1468 -0.0073 -0.0448
  263POPC   PO4 3519   2.387   9.717   4.437 -0.1554 -0.3090 -0.0789
  263POPC   GL1 3520   2.373  10.127   4.831  0.3587 -0.2228 -0.2117
  263POPC   GL2 3521   2.601  10.077   5.097 -0.0955  0.1109  0.3264
  263POPC   C1A 3522   2.175  10.308   5.294  0.0693  0.2066 -0.0846
  263POPC   D2A 3523   2.178  10.504   5.734  0.2677 -0.0724 -0.0924
  263POPC   C3A 3524   2.316  10.344   6.160  0.0082  0.0596 -0.0047
  263POPC   C4A 3525   2.408  10.356   6.539  0.2309 -0.0180  0.1650
  263POPC   C1B 3526   2.649  10.118   5.534  0.2134  0.1620  0.3651
  263POPC   C2B 3527   2.345   9.956   5.849  0.0114  0.0338  0.0018
  263POPC   C3B 3528   2.417   9.543   6.147 -0.1458  0.1195 -0.1655
  263POPC   C4B 3529   2.702   9.416   6.497 -0.0727  0.1444  0.1678
  264POPC   NC3 3530   7.663   5.769   4.492  0.0473 -0.1189  0.0627
  264POPC   PO4 3531   7.904   5.418   4.367  0.2979  0.2669  0.1325
  264POPC   GL1 3532   8.028   5.414   4.777  0.0222  0.1572  0.1968
  264POPC   GL2 3533   8.132   5.060   4.654 -0.1550 -0.0034  0.1467
  264POPC   C1A 3534   8.044   5.572   5.127 -0.1092  0.1269  0.0751
  264POPC   D2A 3535   7.943   5.799   5.472 -0.1125 -0.1676  0.0846
  264POPC   C3A 3536   8.262   5.797   5.845  0.1745  0.1265  0.0551
  264POPC   C4A 3537   8.524   5.879   6.277 -0.1244 -0.0254  0.0906
  264POPC   C1B 3538   7.872   4.708   4.829 -0.1595  0.2636  0.0607
  264POPC   C2B 3539   7.470   4.633   4.798 -0.3884  0.2148 -0.2219
  264POPC   C3B 3540   7.157   4.490   4.785  0.1854  0.0545 -0.2139
  264POPC   C4B 3541   6.819   4.494   5.053  0.1458  0.1384 -0.0608
  265POPC   NC3 3542   3.510   5.076   4.700 -0.4114  0.2332 -0.1445
  265POPC   PO4 3543   3.118   5.264   4.711 -0.2731 -0.2181  0.0148
  265POPC   GL1 3544   3.048   5.261   5.123 -0.2584  0.0864 -0.1816
  265POPC   GL2 3545   2.726   5.316   5.231 -0.0307  0.3086  0.0942
  265POPC   C1A 3546   3.088   4.897   5.470  0.0519  0.4087  0.0556
  265POPC   D2A 3547   2.868   4.552   5.574 -0.1258  0.0011 -0.0956
  265POPC   C3A 3548   2.611   4.674   5.856 -0.2327 -0.2318  0.2592
  265POPC   C4A 3549   2.343   4.867   6.192  0.0207 -0.0778 -0.0805
  265POPC   C1B 3550   2.726   5.244   5.600 -0.0333  0.2190 -0.0449
  265POPC   C2B 3551   2.921   5.056   5.957  0.0156 -0.0523 -0.2039
  265POPC   C3B 3552   2.836   5.053   6.383 -0.0264  0.0429  0.3174
  265POPC   C4B 3553   2.571   4.945   6.661 -0.1290 -0.1172 -0.0919
  266POPC   NC3 3554   5.691   1.071   3.586 -0.1054  0.2020  0.0402
  266POPC   PO4 3555   5.433   1.094   4.077 -0.0104  0.4734  0.2921
  266POPC   GL1 3556   5.770   1.020   4.385  0.0873  0.4408  0.1642
  266POPC   GL2 3557   5.990   1.304   4.368  0.0741  0.0240 -0.0737
  266POPC   C1A 3558   5.650   1.159   4.693 -0.0702  0.1420 -0.0268
  266POPC   D2A 3559   5.725   0.972   5.160  0.2810 -0.1056 -0.1584
  266POPC   C3A 3560   5.409   0.548   5.397 -0.1732  0.1019  0.0291
  266POPC   C4A 3561   5.559   0.442   5.824 -0.1022 -0.1498 -0.0718
  266POPC   C1B 3562   5.982   1.503   4.735 -0.0911 -0.1138  0.1571
  266POPC   C2B 3563   5.815   1.483   5.116  0.0559  0.0333  0.3765
  266POPC   C3B 3564   5.583   1.444   5.470  0.0551 -0.2592  0.3361
  266POPC   C4B 3565   5.167   1.652   5.641  0.0790 -0.2157 -0.1705
  267POPC   NC3 3566   4.619   1.587   3.635 -0.3895 -0.1906  0.3070
  267POPC   PO4 3567   4.738   1.761   4.054  0.0536  0.0293 -0.1688
  267POPC   GL1 3568   4.706   1.842   4.529  0.0193 -0.0460 -0.1214
  267POPC   GL2 3569   4.781   2.176   4.719  0.1112 -0.4062 -0.1812
  267POPC   C1A 3570   4.936   1.757   4.865 -0.0920  0.0250 -0.0845
  267POPC   D2A 3571   5.131   1.461   5.092 -0.1784  0.0156 -0.1812
  267POPC   C3A 3572   5.204   1.131   4.970  0.0428  0.3261  0.1467
  267POPC   C4A 3573   5.249   0.732   4.966 -0.0163 -0.1167 -0.1446
  267POPC   C1B 3574   4.974   2.369   5.092 -0.0620 -0.0962  0.1322
  267POPC   C2B 3575   4.993   2.714   5.376  0.0186  0.2283 -0.1457
  267POPC   C3B 3576   5.015   2.632   5.814 -0.0448 -0.0195  0.2193
  267POPC   C4B 3577   5.205   2.640   6.239 -0.2066  0.1083 -0.0627
  268POPC   NC3 3578   8.760   1.159   4.438 -0.1681  0.1031 -0.0627
  268POPC   PO4 3579   9.006   1.510   4.381  0.1527  0.0285 -0.0056
  268POPC   GL1 3580   9.002   1.628   4.768 -0.2597  0.2086 -0.0211
  268POPC   GL2 3581   8.757   1.797   4.711  0.2567  0.2305  0.0301
  268POPC   C1A 3582   9.154   1.393   5.126  0.1208 -0.1151 -0.5644
  268POPC   D2A 3583   8.991   1.456   5.569  0.0628 -0.1208  0.0742
  268POPC   C3A 3584   8.640   1.513   5.458  0.3559  0.2357 -0.1145
  268POPC   C4A 3585   8.324   1.714   5.272  0.1032 -0.1572 -0.0422
  268POPC   C1B 3586   8.878   1.849   5.168 -0.1532 -0.1920 -0.1308
  268POPC   C2B 3587   9.120   2.234   5.337 -0.0473 -0.0763  0.0477
  268POPC   C3B 3588   9.241   2.679   5.533 -0.0008  0.0639 -0.0098
  268POPC   C4B 3589   9.519   2.961   5.788  0.1692  0.2351  0.2658
  269POPC   NC3 3590   3.017   6.882   4.278 -0.1973  0.2544 -0.1134
  269POPC   PO4 3591   3.165   7.314   4.311  0.0021 -0.2017  0.0383
  269POPC   GL1 3592   3.181   7.113   4.699  0.0710 -0.4278 -0.0997
  269POPC   GL2 3593   3.253   6.808   4.860  0.1411 -0.0292 -0.3370
  269POPC   C1A 3594   3.117   7.245   5.089  0.1939 -0.3595  0.1207
  269POPC   D2A 3595   3.136   7.294   5.503 -0.1645 -0.2979 -0.0314
  269POPC   C3A 3596   2.917   7.277   5.892  0.1864  0.0000 -0.2992
  269POPC   C4A 3597   2.868   7.181   6.310  0.2887 -0.2609  0.0781
  269POPC   C1B 3598   3.496   6.979   5.109 -0.1081 -0.1238  0.0762
  269POPC   C2B 3599   3.654   7.304   5.412  0.0286  0.1349 -0.1189
  269POPC   C3B 3600   3.980   7.521   5.428 -0.0355  0.2272 -0.0877
  269POPC   C4B 3601   4.019   7.753   5.805 -0.0780  0.0102 -0.0370
  270POPC   NC3 3602   2.123   2.899   4.999 -0.1714 -0.1030  0.0980
  270POPC   PO4 3603   2.554   2.884   4.976  0.1050 -0.0900 -0.1456
  270POPC   GL1 3604   2.411   2.714   5.404  0.3402 -0.2803 -0.1533
  270POPC   GL2 3605   2.093   2.708   5.488 -0.2961  0.1418 -0.0378
  270POPC   C1A 3606   2.482   3.004   5.811 -0.2484 -0.0356 -0.2711
  270POPC   D2A 3607   2.525   3.166   6.172 -0.0062 -0.2825  0.0604
  270POPC   C3A 3608   2.772   3.448   6.422 -0.3238  0.0216 -0.1361
  270POPC   C4A 3609   2.872   3.588   6.805  0.3234 -0.0631 -0.1923
  270POPC   C1B 3610   2.065   2.682   5.883 -0.1489 -0.1163  0.0204
  270POPC   C2B 3611   1.930   2.602   6.382  0.0481 -0.4853  0.0012
  270POPC   C3B 3612   1.787   2.307   6.646 -0.1475  0.0895 -0.4740
  270POPC   C4B 3613   1.487   2.063   6.795  0.0358 -0.0983 -0.0933
  271POPC   NC3 3614   2.647   3.724   4.633 -0.0473 -0.0038  0.2673
  271POPC   PO4 3615   2.715   4.200   4.793 -0.1119 -0.0843  0.0570
  271POPC   GL1 3616   2.622   4.063   5.244 -0.1263  0.0321  0.1716
  271POPC   GL2 3617   2.453   3.748   5.305 -0.1933 -0.1103  0.1133
  271POPC   C1A 3618   2.532   4.140   5.730  0.2518 -0.0336 -0.1057
  271POPC   D2A 3619   2.776   4.219   6.082 -0.1621  0.3220  0.2067
  271POPC   C3A 3620   2.761   3.965   6.411  0.2444  0.0796  0.3099
  271POPC   C4A 3621   2.836   4.112   6.712  0.0543  0.0652 -0.1632
  271POPC   C1B 3622   2.170   3.996   5.485  0.2961  0.0718  0.4011
  271POPC   C2B 3623   1.854   4.056   5.911  0.2028 -0.0171  0.3360
  271POPC   C3B 3624   1.573   4.152   6.204  0.0814 -0.0123  0.1610
  271POPC   C4B 3625   1.510   4.086   6.592  0.1303  0.2326 -0.0194
  272POPC   NC3 3626   5.660   8.181   4.414  0.0633 -0.0852 -0.1168
  272POPC   PO4 3627   5.544   8.632   4.320 -0.0319  0.0619 -0.1836
  272POPC   GL1 3628   5.511   8.693   4.776 -0.2440  0.5602  0.3956
  272POPC   GL2 3629   5.358   8.404   4.773 -0.0716  0.3028 -0.0004
  272POPC   C1A 3630   5.551   8.930   5.163 -0.1249  0.2471 -0.1704
  272POPC   D2A 3631   5.800   9.241   5.380  0.1890  0.1162  0.1872
  272POPC   C3A 3632   5.619   9.594   5.564 -0.1292 -0.0829  0.0315
  272POPC   C4A 3633   5.238   9.763   5.641  0.0769 -0.0387  0.0806
  272POPC   C1B 3634   5.355   8.503   5.359  0.1352  0.0051  0.2476
  272POPC   C2B 3635   5.365   8.418   5.851  0.1521  0.3679  0.0661
  272POPC   C3B 3636   5.432   8.658   6.208 -0.2055  0.1536  0.1771
  272POPC   C4B 3637   5.490   9.142   6.185 -0.4460  0.0729 -0.1367
  273POPC   NC3 3638   1.480   8.842   4.384  0.2613  0.0842  0.1234
  273POPC   PO4 3639   1.123   8.889   4.303 -0.0497  0.0320 -0.2331
  273POPC   GL1 3640   1.018   8.696   4.711  0.0958 -0.0897 -0.4118
  273POPC   GL2 3641   0.933   8.427   4.751 -0.1864  0.2920  0.5014
  273POPC   C1A 3642   0.967   8.739   5.126  0.1352 -0.1723 -0.6603
  273POPC   D2A 3643   1.100   8.690   5.620  0.0555  0.0791 -0.1089
  273POPC   C3A 3644   1.099   8.468   5.955  0.1815 -0.3907  0.0071
  273POPC   C4A 3645   1.382   8.690   6.402 -0.0743 -0.1913 -0.0529
  273POPC   C1B 3646   1.001   8.228   5.113 -0.1571  0.3389 -0.2710
  273POPC   C2B 3647   1.182   8.187   5.488  0.0406  0.2694  0.1195
  273POPC   C3B 3648   1.269   8.026   5.902 -0.0020  0.0345 -0.1714
  273POPC   C4B 3649   1.532   7.824   6.204 -0.0704  0.1027  0.0657
  274POPC   NC3 3650   5.262   7.605   4.071 -0.2170  0.0088 -0.2851
  274POPC   PO4 3651   5.408   7.679   4.472  0.1687 -0.3284  0.2266
  274POPC   GL1 3652   5.330   7.890   4.753  0.0842 -0.0166 -0.2497
  274POPC   GL2 3653   5.483   7.933   4.932  0.1445 -0.2247  0.0549
  274POPC   C1A 3654   5.060   8.153   5.077 -0.3068 -0.0773  0.3469
  274POPC   D2A 3655   4.959   8.050   5.543  0.1639  0.0359  0.0323
  274POPC   C3A 3656   4.701   8.045   5.899  0.1447  0.0757 -0.1977
  274POPC   C4A 3657   4.541   7.963   6.211 -0.1384 -0.5009 -0.1349
  274POPC   C1B 3658   5.564   8.016   5.318  0.0300 -0.1917  0.0755
  274POPC   C2B 3659   5.720   8.144   5.685  0.1529  0.0863 -0.0209
  274POPC   C3B 3660   5.750   8.277   6.114 -0.1023 -0.0716  0.1775
  274POPC   C4B 3661   5.637   8.372   6.545 -0.0641 -0.0343 -0.5217
  275POPC   NC3 3662   6.706   8.083   4.860 -0.0382  0.2758  0.5305
  275POPC   PO4 3663   6.264   8.062   4.571 -0.1502 -0.0252  0.1946
  275POPC   GL1 3664   6.176   7.982   4.921  0.0978 -0.1723 -0.0368
  275POPC   GL2 3665   5.890   8.245   4.887  0.0126  0.2524  0.1667
  275POPC   C1A 3666   6.001   7.795   5.169 -0.0272  0.0880  0.0212
  275POPC   D2A 3667   5.854   7.671   5.579  0.2929  0.2163  0.2636
  275POPC   C3A 3668   5.841   7.706   6.007  0.1194 -0.0186 -0.0079
  275POPC   C4A 3669   5.643   7.788   6.348 -0.2354 -0.2519 -0.0850
  275POPC   C1B 3670   5.845   8.502   5.230 -0.0899 -0.1082  0.2096
  275POPC   C2B 3671   5.754   8.637   5.578 -0.1714 -0.3020  0.0896
  275POPC   C3B 3672   5.854   8.836   5.953  0.2017  0.3061 -0.0131
  275POPC   C4B 3673   6.222   9.040   6.153 -0.0617  0.1153 -0.0442
  276POPC   NC3 3674   7.628   1.383   3.965  0.0400 -0.2362  0.2078
  276POPC   PO4 3675   7.410   0.999   3.814 -0.0669  0.1450 -0.1320
  276POPC   GL1 3676   7.141   1.303   4.047 -0.3758  0.2012  0.2774
  276POPC   GL2 3677   6.762   1.107   4.136  0.4018 -0.1934  0.1447
  276POPC   C1A 3678   6.922   1.603   4.342 -0.0111 -0.0899 -0.0505
  276POPC   D2A 3679   6.785   1.668   4.798 -0.0071 -0.3357 -0.4715
  276POPC   C3A 3680   6.902   1.911   5.119 -0.1604 -0.1286 -0.1163
  276POPC   C4A 3681   6.668   2.037   5.472  0.1007  0.4712 -0.4277
  276POPC   C1B 3682   6.539   1.054   4.621 -0.0102  0.0312  0.1190
  276POPC   C2B 3683   6.388   1.254   4.932  0.1505  0.0609 -0.1709
  276POPC   C3B 3684   6.208   1.217   5.335  0.1362 -0.2382 -0.3339
  276POPC   C4B 3685   6.428   1.086   5.786 -0.2779 -0.2058  0.1847
  277POPC   NC3 3686   5.211   7.228   4.558 -0.1569  0.0229  0.1366
  277POPC   PO4 3687   4.933   7.606   4.436  0.0421 -0.0336  0.0671
  277POPC   GL1 3688   4.975   7.579   4.886  0.4571  0.1479  0.2785
  277POPC   GL2 3689   4.633   7.737   4.917 -0.3157  0.0760 -0.1803
  277POPC   C1A 3690   5.259   7.655   5.310 -0.1732  0.0817 -0.1674
  277POPC   D2A 3691   5.371   7.766   5.715  0.0530 -0.1712  0.1599
  277POPC   C3A 3692   5.003   7.524   5.899  0.1089  0.1175  0.0713
  277POPC   C4A 3693   5.080   7.175   6.284  0.0063 -0.1291  0.2970
  277POPC   C1B 3694   4.524   8.177   4.999  0.1731 -0.5246 -0.3797
  277POPC   C2B 3695   4.759   8.464   5.352 -0.0996  0.1454 -0.2172
  277POPC   C3B 3696   4.786   8.517   5.755  0.1622 -0.1227  0.0106
  277POPC   C4B 3697   4.869   8.529   6.164  0.1469 -0.1857 -0.0474
  278POPC   NC3 3698   5.671   3.896   3.463  0.0509  0.2515 -0.0114
  278POPC   PO4 3699   6.059   3.612   3.344 -0.0026  0.1058  0.2435
  278POPC   GL1 3700   6.416   3.421   3.644 -0.1090 -0.3336  0.0478
  278POPC   GL2 3701   6.582   3.159   3.583  0.0233 -0.1401 -0.1597
  278POPC   C1A 3702   6.397   3.574   4.017 -0.1264 -0.1078 -0.0985
  278POPC   D2A 3703   6.544   3.623   4.399 -0.1643 -0.2831  0.1140
  278POPC   C3A 3704   6.997   3.515   4.406 -0.4038  0.0251 -0.1451
  278POPC   C4A 3705   7.361   3.576   4.155 -0.1544 -0.1683  0.0709
  278POPC   C1B 3706   6.455   2.962   4.067  0.2151 -0.1763  0.0372
  278POPC   C2B 3707   6.617   3.050   4.450  0.0578 -0.0321  0.1834
  278POPC   C3B 3708   6.788   3.329   4.790  0.0698 -0.1185 -0.1642
  278POPC   C4B 3709   6.647   3.386   5.144  0.0590  0.1813 -0.0841
  279POPC   NC3 3710   3.722   9.474   4.280 -0.0687 -0.1338 -0.4133
  279POPC   PO4 3711   4.046   9.831   4.524  0.1428  0.0688  0.0638
  279POPC   GL1 3712   4.170   9.695   4.899 -0.0490  0.2326  0.1583
  279POPC   GL2 3713   4.193   9.981   5.187 -0.1695 -0.0309  0.0258
  279POPC   C1A 3714   4.156   9.485   5.187 -0.1388  0.3117 -0.4469
  279POPC   D2A 3715   4.327   9.682   5.649  0.0498  0.3267 -0.1127
  279POPC   C3A 3716   4.366  10.051   5.786 -0.1599 -0.0313  0.0176
  279POPC   C4A 3717   4.457  10.128   6.166 -0.0584 -0.0999  0.1821
  279POPC   C1B 3718   3.835   9.789   5.472 -0.1515 -0.0960 -0.2067
  279POPC   C2B 3719   3.592   9.916   5.839  0.0029  0.0362  0.0752
  279POPC   C3B 3720   3.325  10.083   6.087 -0.0101  0.1471 -0.2013
  279POPC   C4B 3721   2.928   9.861   6.253  0.0128  0.0125 -0.2115
  280POPC   NC3 3722   3.916   4.507   4.605  0.0978 -0.0351  0.0431
  280POPC   PO4 3723   3.969   4.925   4.699  0.1343 -0.0023 -0.3423
  280POPC   GL1 3724   3.872   4.779   5.115  0.1363 -0.1407  0.2156
  280POPC   GL2 3725   4.141   4.902   5.348  0.0885 -0.0757  0.2365
  280POPC   C1A 3726   3.644   4.891   5.437  0.2059  0.1152 -0.1750
  280POPC   D2A 3727   3.385   4.836   5.853 -0.2648  0.1346  0.0904
  280POPC   C3A 3728   3.361   5.199   6.137  0.0159 -0.0560  0.1040
  280POPC   C4A 3729   3.243   5.192   6.616 -0.0474  0.0164  0.1880
  280POPC   C1B 3730   4.029   4.914   5.722  0.1815 -0.2241 -0.2363
  280POPC   C2B 3731   4.387   4.854   6.019 -0.0185 -0.0120  0.2015
  280POPC   C3B 3732   4.534   4.986   6.403  0.0892 -0.1441  0.0600
  280POPC   C4B 3733   4.302   5.145   6.770 -0.1790 -0.3033  0.0511
  281POPC   NC3 3734   9.540   5.090   3.783 -0.1274  0.0174  0.1725
  281POPC   PO4 3735   9.177   4.989   4.083  0.0265 -0.2579  0.2413
  281POPC   GL1 3736   9.377   4.883   4.534 -0.0378  0.0633  0.0225
  281POPC   GL2 3737   9.463   5.174   4.819  0.1995 -0.2011  0.2642
  281POPC   C1A 3738   9.395   4.641   4.794 -0.1428  0.0193 -0.1042
  281POPC   D2A 3739   9.532   4.835   5.160 -0.1540 -0.2468 -0.2689
  281POPC   C3A 3740   9.349   5.062   5.515  0.0150 -0.0662  0.0205
  281POPC   C4A 3741   9.371   5.203   5.897 -0.1724  0.1071  0.1593
  281POPC   C1B 3742   9.066   5.084   5.101  0.2576  0.2635 -0.3585
  281POPC   C2B 3743   8.747   4.932   5.408 -0.1057 -0.1169 -0.2175
  281POPC   C3B 3744   8.660   4.898   5.910  0.3697  0.0438 -0.0338
  281POPC   C4B 3745   8.507   4.639   6.264 -0.2391 -0.3431  0.0846
  282POPC   NC3 3746   2.207   1.924   4.853  0.3595 -0.0652  0.1043
  282POPC   PO4 3747   2.377   2.439   4.911  0.4677 -0.1280  0.0142
  282POPC   GL1 3748   2.241   2.220   5.304  0.0184 -0.3936  0.3139
  282POPC   GL2 3749   1.974   2.196   5.512  0.2263 -0.1614 -0.2058
  282POPC   C1A 3750   2.352   2.231   5.757 -0.0673 -0.2374  0.0476
  282POPC   D2A 3751   2.585   2.022   5.922  0.2866 -0.0361  0.0499
  282POPC   C3A 3752   2.745   1.950   6.258  0.0027 -0.0762 -0.0981
  282POPC   C4A 3753   2.828   1.658   6.579 -0.5849 -0.1054  0.2657
  282POPC   C1B 3754   1.913   2.228   5.959  0.0803  0.2473  0.3894
  282POPC   C2B 3755   2.220   2.142   6.254  0.1300  0.0895 -0.4616
  282POPC   C3B 3756   2.284   2.345   6.637 -0.1263  0.0947 -0.0748
  282POPC   C4B 3757   2.224   2.428   7.041 -0.1873  0.2506  0.1748
  283POPC   NC3 3758   6.908   0.794   3.736 -0.1304 -0.1269  0.0196
  283POPC   PO4 3759   6.842   0.527   4.122  0.1050 -0.2104  0.3907
  283POPC   GL1 3760   6.929   0.540   4.476  0.0981 -0.0770 -0.2288
  283POPC   GL2 3761   7.114   0.917   4.433 -0.1517  0.0298  0.1583
  283POPC   C1A 3762   6.984   0.223   4.748 -0.1292  0.1803 -0.2480
  283POPC   D2A 3763   7.197  -0.047   5.204  0.2515 -0.1685  0.1296
  283POPC   C3A 3764   7.473   0.128   5.545 -0.1751 -0.0551 -0.1313
  283POPC   C4A 3765   7.268   0.320   5.861  0.3857 -0.1665 -0.0598
  283POPC   C1B 3766   7.401   1.136   4.709  0.0035  0.0982 -0.0654
  283POPC   C2B 3767   7.613   0.977   5.088  0.0770  0.0909 -0.0367
  283POPC   C3B 3768   7.669   1.178   5.414 -0.1741 -0.1371  0.2366
  283POPC   C4B 3769   7.615   1.148   5.857 -0.2101 -0.0899  0.1208
  284POPC   NC3 3770   6.262   0.228   4.092  0.1402 -0.0426  0.0929
  284POPC   PO4 3771   6.435   0.759   3.875 -0.2019  0.0989  0.0367
  284POPC   GL1 3772   6.198   0.755   4.376  0.2801  0.0020  0.3171
  284POPC   GL2 3773   6.419   0.501   4.494  0.3022 -0.1992  0.1606
  284POPC   C1A 3774   6.096   0.806   4.733  0.2637 -0.0571  0.3340
  284POPC   D2A 3775   6.246   0.721   5.132  0.0104 -0.0654  0.0232
  284POPC   C3A 3776   6.012   0.754   5.551  0.0934 -0.0626 -0.1125
  284POPC   C4A 3777   5.597   0.937   5.634  0.0376 -0.1161 -0.0288
  284POPC   C1B 3778   6.663   0.599   4.900 -0.1056 -0.0207  0.0822
  284POPC   C2B 3779   6.695   0.838   5.366 -0.0942 -0.1856  0.0545
  284POPC   C3B 3780   6.727   0.606   5.771 -0.0826 -0.0159 -0.0907
  284POPC   C4B 3781   6.834   0.663   6.184  0.1894  0.0575  0.0073
  285POPC   NC3 3782   6.709   7.249   4.527 -0.1918  0.0402  0.1816
  285POPC   PO4 3783   6.807   7.590   4.682  0.3518  0.0062 -0.2241
  285POPC   GL1 3784   6.809   7.637   5.185  0.0544  0.0124 -0.1597
  285POPC   GL2 3785   6.577   7.722   5.174 -0.0719  0.0932  0.5487
  285POPC   C1A 3786   6.844   7.788   5.648 -0.0443 -0.1390 -0.1693
  285POPC   D2A 3787   6.644   7.919   6.042 -0.0055  0.3538 -0.0807
  285POPC   C3A 3788   6.802   8.262   6.206  0.1289 -0.3084  0.0114
  285POPC   C4A 3789   6.998   8.637   6.451 -0.1782 -0.2280 -0.0475
  285POPC   C1B 3790   6.376   7.717   5.550 -0.1741  0.0407 -0.3103
  285POPC   C2B 3791   6.263   7.517   5.982 -0.1963  0.1384  0.0716
  285POPC   C3B 3792   6.079   7.393   6.273  0.1318 -0.0461  0.0266
  285POPC   C4B 3793   5.874   7.410   6.738 -0.0874  0.0213  0.0543
  286POPC   NC3 3794   4.860   4.669   4.246  0.2637  0.0775  0.2967
  286POPC   PO4 3795   4.458   4.574   4.581 -0.0807 -0.3210  0.2212
  286POPC   GL1 3796   4.634   4.402   4.858  0.2579  0.2784 -0.0528
  286POPC   GL2 3797   4.689   4.075   4.824 -0.1122 -0.0811 -0.1037
  286POPC   C1A 3798   4.640   4.269   5.283  0.2464 -0.1279  0.1272
  286POPC   D2A 3799   4.867   4.174   5.615 -0.1767 -0.4322  0.4545
  286POPC   C3A 3800   4.858   4.130   5.999  0.0195  0.1363  0.1267
  286POPC   C4A 3801   4.584   3.923   6.308  0.2629 -0.2503 -0.4776
  286POPC   C1B 3802   4.451   3.667   5.077  0.1393  0.0960 -0.0432
  286POPC   C2B 3803   4.471   3.783   5.444 -0.1329 -0.0778 -0.1881
  286POPC   C3B 3804   4.419   3.843   5.843 -0.0830  0.1383  0.2819
  286POPC   C4B 3805   4.069   3.634   6.159 -0.1198 -0.0522 -0.1237
  287W        W 3806   8.912   0.406   0.382  0.0296 -0.0718 -0.4526
  288W        W 3807   3.509   3.013   3.336 -0.0902 -0.1238 -0.3956
  289W        W 3808   6.450   5.419   9.265  0.2748  0.0103 -0.1447
  290W        W 3809   8.714   4.547   1.520  0.4250 -0.2638  0.0928
  291W        W 3810   0.691   5.528   3.937  0.1968 -0.3269  0.0714
  292W        W 3811   4.663   4.066   0.878 -0.2136  0.2436 -0.0139
  293W        W 3812   7.291   5.426   0.402  0.0297 -0.1415 -0.2433
  294W        W 3813   0.956   3.373   2.945  0.1093 -0.0834  0.0071
  295W        W 3814   3.292   4.338   2.150  0.0870  0.0459 -0.1003
  296W        W 3815   4.052   3.518   4.736  0.0213 -0.1292  0.1599
  297W        W 3816   9.392   3.910  10.876  0.1590  0.2223 -0.2121
  298W        W 3817   5.311   0.565   1.872  0.0755  0.0611  0.0064
  299W        W 3818   5.508   3.779   8.675 -0.1545  0.0497 -0.2715
  300W        W 3819   6.737   5.724   3.313 -0.2617  0.1551  0.0139
  301W        W 3820   0.093   8.358   8.667  0.0689 -0.0537  0.1439
  302W        W 3821   5.865   8.353   3.989  0.0336  0.1078  0.2904
  303W        W 3822   1.206   6.114   1.356 -0.1948  0.2905  0.2622
  304W        W 3823   6.817   1.911  10.600  0.0347 -0.1126 -0.3253
  305W        W 3824   1.071   7.952  10.775  0.4970  0.0573 -0.0056
  306W        W 3825   7.268   0.355   0.848 -0.3006  0.2144 -0.0340
  307W        W 3826   5.681   2.994  11.374  0.0978 -0.0073 -0.1309
  308W        W 3827   3.932   0.758   9.076  0.1487  0.0719  0.1369
  309W        W 3828   3.238   8.565   1.880  0.1432  0.2137  0.1972
  310W        W 3829   4.706   5.497   0.975 -0.0795  0.3387  0.1572
  311W        W 3830   2.798   5.170   2.129  0.0711 -0.2336  0.1583
  312W        W 3831   1.379   4.278   3.401 -0.2455  0.1856 -0.0305
  313W        W 3832   1.973   9.188  10.165  0.1066 -0.3821 -0.0796
  314W        W 3833   5.236   1.448  12.485  0.1831 -0.1098 -0.0318
  315W        W 3834   3.774   4.936   3.269  0.0616  0.2032  0.1292
  316W        W 3835   7.391   0.110   0.347 -0.0657  0.0326 -0.0355
  317W        W 3836   6.519   3.009   9.882 -0.1795 -0.2931 -0.2517
  318W        W 3837   0.190   8.594   9.659 -0.1574 -0.1015  0.2360
  319W        W 3838   5.475   1.147   0.634 -0.1960  0.0700  0.2170
  320W        W 3839   0.252   3.336   3.807  0.0595 -0.1058 -0.1137
  321W        W 3840   1.606   1.364   3.131  0.1201  0.0463  0.0219
  322W        W 3841   9.172   2.745   3.489 -0.4704 -0.1586  0.5011
  323W        W 3842   3.588   3.862   3.834  0.0168 -0.0416 -0.0730
  324W        W 3843   0.606   5.238   9.060  0.3166 -0.1775  0.1028
  325W        W 3844   9.493   1.789  11.942 -0.3177 -0.1749  0.1310
  326W        W 3845   0.716   6.470   3.261  0.2930  0.2350  0.0978
  327W        W 3846   6.487   1.615   2.676 -0.0331  0.0331 -0.0159
  328W        W 3847   5.749   6.035  10.197  0.2195  0.1580 -0.1104
  329W        W 3848   7.657   8.455   2.317 -0.2124  0.2681  0.2374
  330W        W 3849   4.080   3.370   2.490 -0.0789  0.2392 -0.0045
  331W        W 3850   6.718   1.594  12.423 -0.0471 -0.0663 -0.0074
  332W        W 3851   1.823   9.457   3.995 -0.1422 -0.1692  0.0416
  333W        W 3852   1.454   4.851   4.336  0.1252 -0.0035 -0.4159
  334W        W 3853   8.434   0.151  11.295 -0.2243  0.2370  0.1251
  335W        W 3854   0.862   7.272  12.458 -0.3408 -0.0006  0.2701
  336W        W 3855   0.542   4.162  12.155  0.1115  0.0766 -0.4762
  337W        W 3856   4.346   5.081   4.419 -0.0261 -0.1622  0.2449
  338W        W 3857   2.386   0.874   9.411  0.1364 -0.1439 -0.3743
  339W        W 3858   6.864   4.189   0.746 -0.0304  0.1192 -0.3601
  340W        W 3859   2.884   3.247   1.514 -0.2150 -0.1404 -0.4997
  341W        W 3860   4.764   2.846   9.400  0.1365 -0.1042  0.0268
  342W        W 3861   4.588   6.704   8.868 -0.4445  0.0261 -0.1714
  343W        W 3862   6.472   8.400   2.355 -0.1901  0.0749 -0.0377
  344W        W 3863   7.058   8.771   9.815  0.1292  0.0651  0.0939
  345W        W 3864   6.018   8.157  11.456  0.2556 -0.0619 -0.0996
  346W        W 3865   5.334   7.802   1.928  0.1064  0.3684 -0.1839
  347W        W 3866   6.636   8.410   9.072 -0.3550 -0.1250  0.0817
  348W        W 3867   0.537   6.683  10.821  0.0447  0.0946  0.1148
  349W        W 3868   9.224   4.068  11.304  0.1962 -0.0146 -0.2575
  350W        W 3869   6.543   6.733   3.181 -0.0428 -0.0258 -0.0928
  351W        W 3870   5.231   8.640   1.378  0.2390 -0.1353  0.0776
  352W        W 3871   8.958   0.019   1.568 -0.2380 -0.0352  0.0601
  353W        W 3872   8.959   6.342  10.348 -0.2030 -0.2370  0.4174
  354W        W 3873   0.251   0.279   0.829 -0.1748 -0.0012 -0.2771
  355W        W 3874   8.803   5.761  11.752  0.0149 -0.2893  0.0833
  356W        W 3875   2.420   5.449   2.221  0.0140  0.0587 -0.0136
  357W        W 3876   5.282   3.850  12.371 -0.1182  0.0572 -0.0585
  358W        W 3877   1.048   1.033  11.332 -0.0232 -0.2172  0.0388
  359W        W 3878   4.374   6.604   8.295  0.3455  0.2385  0.3244
  360W        W 3879   2.859   2.436   3.684  0.1623  0.1400 -0.0195
  361W        W 3880   6.549   1.240   3.016  0.0386  0.4782  0.0205
  362W        W 3881   9.310   2.870  11.737  0.0387 -0.4871  0.0639
  363W        W 3882   8.063   8.834   4.446 -0.0435 -0.0566  0.1133
  364W        W 3883   2.352   4.228   9.078 -0.2868  0.0548 -0.0086
  365W        W 3884   8.227   5.651   3.170  0.0233 -0.2342 -0.0188
  366W        W 3885   8.077   0.975   2.023 -0.0847  0.0342  0.0574
  367W        W 3886   8.511   1.559   9.353  0.1746 -0.2803 -0.2418
  368W        W 3887   8.594   9.552   3.948  0.1738 -0.3834 -0.0588
  369W        W 3888   4.038   5.354   0.511 -0.0162  0.0008  0.2623
  370W        W 3889   1.313   7.006   1.533  0.1312  0.3614  0.1352
  371W        W 3890   9.586   9.621   0.538  0.2884 -0.2886  0.0363
  372W        W 3891   7.063   0.247  12.017 -0.1139 -0.2512  0.1850
  373W        W 3892   5.649   9.146  12.571 -0.0409 -0.0310  0.0240
  374W        W 3893   6.298   4.018   2.412  0.3415 -0.0816  0.1969
  375W        W 3894   5.132   5.059   8.328 -0.1839 -0.0362 -0.5509
  376W        W 3895   7.576   6.818   0.160 -0.3895  0.1355 -0.2103
  377W        W 3896   1.486   9.055  10.049  0.0564 -0.3126  0.2026
  378W        W 3897   6.242   4.697   3.181  0.0327  0.0019  0.1424
  379W        W 3898   0.359   7.022  11.892  0.2336  0.1810 -0.0756
  380W        W 3899   1.457   8.279   2.911 -0.2415  0.1511  0.0179
  381W        W 3900   8.770   6.555   4.243  0.0273  0.1306 -0.0219
  382W        W 3901   1.989   0.958  10.497 -0.0397  0.2443 -0.2211
  383W        W 3902   9.322   7.536  11.996  0.0225  0.3234  0.2962
  384W        W 3903   4.638   0.578  10.166 -0.0823  0.0485 -0.2966
  385W        W 3904   5.786   4.895  11.621 -0.0012  0.1661  0.1719
  386W        W 3905   1.452   9.564  11.313 -0.2493  0.2532 -0.1688
  387W        W 3906   8.935   1.312   2.001 -0.1560 -0.2299  0.1095
  388W        W 3907   5.801   6.782  10.339  0.2558  0.0448 -0.2870
  389W        W 3908   1.784   5.510  10.044 -0.2253  0.1269  0.0410
  390W        W 3909   5.060   3.155   2.470 -0.4074 -0.0191  0.1204
  391W        W 3910   3.846   0.812   0.233 -0.2788  0.0062 -0.0886
  392W        W 3911   5.953   5.293   2.542  0.1867  0.2263  0.2425
  393W        W 3912   8.961   3.628  11.441 -0.0906  0.1447 -0.0757
  394W        W 3913   7.938   8.319  11.286  0.1872  0.0082  0.0190
  395W        W 3914   3.667   7.451   4.254  0.0084  0.0120 -0.3037
  396W        W 3915   0.232   6.691   0.891  0.3278  0.2280  0.0237
  397W        W 3916   1.434   5.049   1.963 -0.2162 -0.2151 -0.0048
  398W        W 3917   1.659   8.393   9.107 -0.0118  0.0730  0.0473
  399W        W 3918   3.986   7.811  12.535 -0.0379  0.1677  0.1534
  400W        W 3919   9.044   7.241   0.745 -0.2513 -0.1815  0.2022
  401W        W 3920   8.012   0.274   1.215 -0.1906 -0.0403 -0.0315
  402W        W 3921   2.711   8.278  10.693 -0.0706  0.1489 -0.2361
  403W        W 3922   7.852   4.576  10.966 -0.0948 -0.2217  0.1546
  404W        W 3923   9.147   4.019  11.898 -0.1801 -0.1543  0.3367
  405W        W 3924   1.179   0.276   8.715 -0.2880  0.0157 -0.1535
  406W        W 3925   5.439   4.763   3.468  0.2763  0.2689  0.3927
  407W        W 3926   2.579   2.104   3.472 -0.3759  0.2330  0.0177
  408W        W 3927   6.446   5.417   0.415  0.1536  0.0576  0.1627
  409W        W 3928   9.490   0.403   0.308  0.1785  0.0146  0.0949
  410W        W 3929   1.781   1.087   1.391 -0.1940  0.0682 -0.0537
  411W        W 3930   1.046   3.213   0.505  0.1262  0.2498 -0.0490
  412W        W 3931   7.877   6.856   2.855  0.0446  0.0058  0.3403
  413W        W 3932   0.336   8.219   1.381  0.0044  0.0099  0.1174
  414W        W 3933   5.636   3.369   0.622 -0.0236  0.1223 -0.0171
  415W        W 3934   2.747   8.506   3.164 -0.2980 -0.1114  0.1321
  416W        W 3935   5.411   6.172   1.040 -0.3920  0.0817 -0.0284
  417W        W 3936   9.469   0.387   0.914 -0.3151 -0.1092 -0.4353
  418W        W 3937   3.792   8.689   1.842  0.2155 -0.1897  0.2042
  419W        W 3938   3.071   8.469   1.421 -0.1790  0.6380  0.0554
  420W        W 3939   9.449   1.146   1.727  0.0338  0.0560 -0.0951
  421W        W 3940   1.191   0.318   2.888 -0.1874  0.0835  0.0541
  422W        W 3941   3.363   8.225   0.080 -0.1452 -0.1349  0.0336
  423W        W 3942   1.174   2.001  11.668 -0.1891  0.0447 -0.0346
  424W        W 3943   1.910   1.929   1.316 -0.1910  0.0387  0.0266
  425W        W 3944   3.784   6.481   9.781 -0.2358 -0.3205 -0.3863
  426W        W 3945   2.060   1.502   2.128 -0.0453  0.1120 -0.1534
  427W        W 3946   7.182   7.427  11.948  0.2525  0.3625 -0.1793
  428W        W 3947   9.625   1.956   3.677 -0.1658 -0.1490  0.0630
  429W        W 3948   6.170   7.156   1.695  0.0489  0.0347  0.2621
  430W        W 3949   4.627   2.315   3.583 -0.1517 -0.3470 -0.4038
  431W        W 3950   8.768   7.997   4.125 -0.0868  0.1106  0.2548
  432W        W 3951   1.030   7.850   0.208 -0.1920  0.3507 -0.1205
  433W        W 3952   1.048   8.020  11.350 -0.2316  0.0359  0.0199
  434W        W 3953   4.255   3.259   3.428  0.1819 -0.1109  0.1085
  435W        W 3954   8.732   2.989   3.439 -0.2196 -0.1702 -0.0999
  436W        W 3955   2.408   8.938   0.474  0.2392  0.0070  0.0009
  437W        W 3956   5.124   2.654   3.451  0.2445  0.1485  0.0837
  438W        W 3957   4.240   9.105   3.896 -0.0962 -0.2677 -0.5491
  439W        W 3958   4.526   7.331  11.825  0.0108 -0.1031  0.4504
  440W        W 3959   5.698   5.359   2.052 -0.1447 -0.1052  0.3982
  441W        W 3960   3.996   3.366  12.115 -0.1359  0.0929  0.0447
  442W        W 3961   6.009   1.789   0.479 -0.3257 -0.0746  0.1312
  443W        W 3962   5.528   5.234   1.171 -0.3004 -0.1107  0.2157
  444W        W 3963   2.164   5.638   1.754 -0.1295  0.0151  0.4417
  445W        W 3964   7.031   8.570   3.061 -0.2537 -0.0033 -0.3493
  446W        W 3965   2.321   4.927   4.270  0.4166 -0.0593  0.0881
  447W        W 3966   3.082   7.336   2.986  0.0174  0.0880  0.0527
  448W        W 3967   7.492   0.737  12.126  0.0825 -0.0114 -0.0045
  449W        W 3968   4.410   8.930  11.182 -0.3742  0.0844  0.0601
  450W        W 3969   2.680   4.168  11.077 -0.2126 -0.1008  0.2377
  451W        W 3970   7.313   6.463   0.485  0.2165 -0.1150 -0.0419
  452W        W 3971   7.049   7.280  10.609 -0.1157  0.0593  0.3105
  453W        W 3972   7.353   5.199  11.713  0.0654  0.2251  0.1574
  454W        W 3973   3.146   1.018   2.587 -0.1175  0.2159 -0.3755
  455W        W 3974   9.162   5.419   3.816 -0.0434  0.0822 -0.2231
  456W        W 3975   2.560   3.507   3.597 -0.1211 -0.2676  0.0329
  457W        W 3976   6.778   3.643   1.013 -0.0755  0.2818 -0.2639
  458W        W 3977   0.394   8.740  10.136 -0.1681 -0.0477 -0.0787
  459W        W 3978   2.055   9.146   3.202 -0.0441 -0.1511  0.0352
  460W        W 3979   1.967   4.155   1.839 -0.1621  0.1190 -0.5043
  461W        W 3980   4.600   3.503   0.198 -0.0594 -0.0109 -0.0778
  462W        W 3981   3.997   4.701  12.539  0.0698  0.1661  0.1104
  463W        W 3982   9.385   0.524   3.447  0.0314 -0.1162 -0.1287
  464W        W 3983   8.166   4.998   1.012  0.0121  0.0517 -0.0459
  465W        W 3984   7.776   7.120   3.767 -0.1896 -0.1035  0.1533
  466W        W 3985   7.437   7.292   8.937 -0.1038  0.0805 -0.2000
  467W        W 3986   2.821   8.487   2.199  0.1332 -0.0568  0.1238
  468W        W 3987   4.204   1.582   2.802  0.1400 -0.0118 -0.1180
  469W        W 3988   2.948   1.947   9.885  0.1330  0.1740  0.1708
  470W        W 3989   2.383   1.724   4.243 -0.2129 -0.0473  0.0205
  471W        W 3990   6.846   7.186   2.285 -0.0364 -0.2037  0.1828
  472W        W 3991   5.553   3.097   9.339 -0.1912 -0.0915  0.2074
  473W        W 3992   5.632   9.521   0.326  0.0321  0.0327  0.0710
  474W        W 3993   1.593   2.777   0.480 -0.3370 -0.0779 -0.0995
  475W        W 3994   8.480   0.141   9.502 -0.3653 -0.3366 -0.1797
  476W        W 3995   6.204   8.307  11.912  0.0666 -0.1558 -0.3488
  477W        W 3996   4.323   4.677   0.804  0.1150 -0.1041  0.1187
  478W        W 3997   7.669   0.980   4.291  0.0807  0.1460  0.0014
  479W        W 3998   1.546   7.867   8.140 -0.1242  0.0493 -0.1359
  480W        W 3999   9.341   8.450  10.667 -0.0767  0.2063  0.2159
  481W        W 4000   3.103   3.735  12.545  0.0115  0.0290  0.4099
  482W        W 4001   0.869   2.263  10.793  0.0718  0.0876  0.2644
  483W        W 4002   9.621   6.350   2.738 -0.0066  0.2274  0.1838
  484W        W 4003   5.881   9.576   3.371 -0.3552 -0.0100  0.2150
  485W        W 4004   4.009   2.413  11.038  0.3637 -0.1564 -0.0745
  486W        W 4005   7.415   4.670   1.205 -0.0439 -0.0687  0.0980
  487W        W 4006   9.186   6.101   8.789  0.1141 -0.0072  0.1745
  488W        W 4007   2.096   5.335   2.525 -0.1988  0.1732 -0.0473
  489W        W 4008   4.546   9.458   9.892 -0.2316  0.2005 -0.2312
  490W        W 4009   1.666   9.214  11.051 -0.5077 -0.0298 -0.2428
  491W        W 4010   3.261   1.412   9.161  0.0254  0.0470  0.3012
  492W        W 4011   5.254   4.023   9.631  0.0770  0.1991  0.0134
  493W        W 4012   0.359   5.490   2.293 -0.1154 -0.3503  0.2420
  494W        W 4013   0.761   2.461   3.213 -0.1607  0.2269 -0.0674
  495W        W 4014   5.613   3.798   4.159 -0.0685 -0.0431  0.0280
  496W        W 4015   4.510   8.628   2.141  0.0937  0.1178 -0.2500
  497W        W 4016   2.449   0.598   3.883 -0.0872  0.0829 -0.0408
  498W        W 4017   4.865   8.246  12.171  0.1718 -0.3451  0.0130
  499W        W 4018   8.868   6.116   4.473  0.0985  0.0262 -0.1520
  500W        W 4019   3.025   4.126   9.804 -0.2921  0.0623  0.3308
  501W        W 4020   8.593   6.001  11.249  0.0109 -0.1455 -0.0575
  502W        W 4021   1.547   1.882   9.546 -0.2425 -0.2720 -0.0687
  503W        W 4022   6.367   5.991   3.634  0.0071 -0.0353  0.0562
  504W        W 4023   4.984   9.169  10.649 -0.0638  0.1769 -0.0436
  505W        W 4024   7.806   1.430   3.471 -0.0033 -0.2018 -0.0724
  506W        W 4025   1.858   7.600   0.712 -0.2273 -0.0109  0.2203
  507W        W 4026   5.243   7.934   3.687  0.2004  0.0152 -0.0690
  508W        W 4027   8.142   6.298   0.616  0.0793  0.3662 -0.1036
  509W        W 4028   6.374   2.855   3.039 -0.2990 -0.1047  0.1705
  510W        W 4029   2.578   7.817   9.372 -0.1362 -0.0535  0.3141
  511W        W 4030   1.533   3.942   8.899  0.0141  0.4203  0.1666
  512W        W 4031   5.660   5.341  11.759  0.1399 -0.0702  0.1414
  513W        W 4032   0.915   2.799   0.710 -0.1338 -0.0117 -0.2965
  514W        W 4033   2.921   3.712   8.447 -0.0533  0.1703  0.3682
  515W        W 4034   5.557   6.754   2.510 -0.3000  0.3079  0.2422
  516W        W 4035   2.063   6.085   1.439  0.1623 -0.3099 -0.3754
  517W        W 4036   6.213   0.816   2.949 -0.0020  0.3693 -0.0171
  518W        W 4037   4.572   4.530   2.511 -0.0620  0.1556  0.2042
  519W        W 4038   6.627   3.980  11.647  0.0235  0.0302  0.0822
  520W        W 4039   9.427   3.831   2.588  0.2102 -0.0372  0.1876
  521W        W 4040   1.408   7.783   0.587 -0.0319  0.1181  0.1208
  522W        W 4041   0.103   2.627  11.706  0.0097 -0.2300 -0.2392
  523W        W 4042   8.937   5.007   3.626  0.2494 -0.5099 -0.4229
  524W        W 4043   3.525   3.471   9.859  0.2453 -0.1059  0.2096
  525W        W 4044   7.441   3.564   0.892 -0.0450 -0.3152  0.1489
  526W        W 4045   6.032   0.279  10.432 -0.4648  0.0573 -0.0387
  527W        W 4046   3.826   4.931   8.711 -0.3688  0.2230  0.1418
  528W        W 4047   8.466   9.030   4.004 -0.1757 -0.1833 -0.3246
  529W        W 4048   3.600   1.285   1.171 -0.2348 -0.0599  0.2530
  530W        W 4049   3.209   6.128   0.553  0.2015  0.2840  0.1140
  531W        W 4050   4.476   9.095   9.367  0.1147  0.0569  0.0354
  532W        W 4051   7.496   9.276  10.161 -0.1522  0.0625 -0.0117
  533W        W 4052   0.588   3.587   9.968  0.0107 -0.0586 -0.2656
  534W        W 4053   3.833   6.236   2.809  0.0655 -0.0425  0.0067
  535W        W 4054   2.402   3.198  11.220 -0.3426 -0.0239 -0.6113
  536W        W 4055   6.941   2.156   1.094  0.1485  0.1027 -0.1905
  537W        W 4056   2.632   7.098  10.717  0.2136 -0.1674 -0.1825
  538W        W 4057   4.749   8.103  11.559  0.1660  0.1651  0.1364
  539W        W 4058   8.905   7.792   0.482 -0.3202 -0.2830 -0.1433
  540W        W 4059   1.507   0.430  12.163  0.1194 -0.0975 -0.2281
  541W        W 4060   6.425   2.731  10.327  0.2074 -0.0417  0.0840
  542W        W 4061   6.264   5.922  11.150 -0.1143  0.0777  0.2042
  543W        W 4062   2.401   5.141  11.150 -0.3469  0.0876 -0.1741
  544W        W 4063   6.847   9.195   9.646 -0.0189 -0.0872  0.0108
  545W        W 4064   5.770   7.291   9.836  0.1137  0.2231  0.0308
  546W        W 4065   6.427   9.271  11.668  0.2976  0.2263  0.0877
  547W        W 4066   8.910   1.767   2.951 -0.0164  0.3630 -0.0650
  548W        W 4067   0.600   2.936   3.625 -0.1478 -0.1226 -0.0760
  549W        W 4068   4.651   1.102   3.811 -0.1182 -0.2456 -0.1134
  550W        W 4069   1.506   8.602  12.234 -0.1716 -0.1111  0.1143
  551W        W 4070   2.010   2.912   9.853 -0.1993 -0.2262 -0.1610
  552W        W 4071   5.520   6.322   3.695  0.1754  0.4711 -0.2484
  553W        W 4072   4.761   5.850   1.526  0.0308  0.2290 -0.1886
  554W        W 4073   7.665   7.340  12.154 -0.0466 -0.2775 -0.1660
  555W        W 4074   1.520   7.625   4.634  0.1807 -0.2605  0.0723
  556W        W 4075   3.864   7.090   9.211 -0.1797  0.2113 -0.2323
  557W        W 4076   7.856   6.028   4.861 -0.6677 -0.1042 -0.2488
  558W        W 4077   9.180   1.534  11.698 -0.4109 -0.0828  0.0075
  559W        W 4078   3.195   8.240   9.949  0.3103 -0.0215  0.1928
  560W        W 4079   5.051   5.266   2.923  0.0289  0.1444 -0.2893
  561W        W 4080   6.353   7.431  11.881 -0.0612 -0.0776 -0.1567
  562W        W 4081   7.128   6.799  10.446  0.2253  0.1040 -0.0735
  563W        W 4082   7.976   5.185  10.243 -0.0468  0.4086 -0.2652
  564W        W 4083   4.312   0.476   0.881  0.0534  0.1041  0.0611
  565W        W 4084   0.298   3.575   0.967  0.0605 -0.0648  0.6799
  566W        W 4085   1.510   6.879   1.121 -0.2038 -0.0102  0.0208
  567W        W 4086   5.166   4.187  10.191 -0.2045  0.1133 -0.0018
  568W        W 4087   9.520   6.102   1.861  0.1116  0.2569  0.1642
  569W        W 4088   0.681   4.827   1.910 -0.2317  0.0706  0.0081
  570W        W 4089   5.740   6.181  11.138  0.0849  0.1469 -0.0955
  571W        W 4090   0.835   5.250   0.542 -0.1048 -0.0814 -0.1415
  572W        W 4091   6.808   7.064  12.297 -0.3100  0.2278 -0.1948
  573W        W 4092   8.533   9.088  11.088 -0.1327 -0.0066  0.1119
  574W        W 4093   3.423   5.196  10.776  0.1156 -0.0642  0.0100
  575W        W 4094   4.350   0.743  11.766 -0.3725 -0.3461  0.0856
  576W        W 4095   7.006   7.257   0.577  0.2149 -0.0665 -0.0229
  577W        W 4096   8.569   8.599   3.808  0.3509  0.1126  0.3391
  578W        W 4097   0.794   2.849  11.849 -0.2922  0.0200  0.0350
  579W        W 4098   8.016   9.098  12.566 -0.0520  0.2656  0.3934
  580W        W 4099   8.377   6.828  11.046 -0.0574 -0.1129 -0.0723
  581W        W 4100   9.517   2.983   2.652  0.0612  0.1337 -0.0089
  582W        W 4101   8.040   3.587  11.720 -0.2457  0.1738  0.0382
  583W        W 4102   1.421   6.876   3.653  0.2243  0.0575  0.0012
  584W        W 4103   3.035   1.367  11.426  0.0054 -0.0360  0.2142
  585W        W 4104   9.108   4.678   9.759  0.0858 -0.1894  0.2149
  586W        W 4105   0.655   3.872   1.193 -0.2904  0.1294 -0.0960
  587W        W 4106   1.841   6.728   2.041 -0.1098 -0.0823 -0.0879
  588W        W 4107   2.484   6.098   2.930  0.1187  0.0193  0.0455
  589W        W 4108   4.802   1.258   1.543 -0.0363 -0.1281  0.2968
  590W        W 4109   6.425   5.906  10.609  0.1280 -0.1706 -0.1614
  591W        W 4110   6.401   9.593   0.464 -0.1558  0.2193  0.0638
  592W        W 4111   5.542   6.868  11.413 -0.1397 -0.0003  0.0974
  593W        W 4112   1.425   7.620  11.057  0.0250 -0.1070 -0.0858
  594W        W 4113   9.635   3.107  10.316 -0.0972  0.3246 -0.0111
  595W        W 4114   0.590   4.965   2.440  0.1911  0.2590 -0.0726
  596W        W 4115   5.063   7.159   0.891  0.2559 -0.1113 -0.0830
  597W        W 4116   0.828   5.175  12.279 -0.1453 -0.0967  0.4244
  598W        W 4117   3.701   8.922  10.111 -0.0002 -0.0981  0.2147
  599W        W 4118   9.087   9.649   0.498 -0.0439 -0.1575 -0.3335
  600W        W 4119   4.116   8.478   0.715  0.1027 -0.2071 -0.2116
  601W        W 4120   2.147   7.153  12.470 -0.1485  0.1506 -0.3492
  602W        W 4121   5.322   3.672  10.169  0.1605 -0.2971  0.0467
  603W        W 4122   8.728   3.337   0.180 -0.5010  0.2582 -0.0856
  604W        W 4123   8.586   7.441  11.291 -0.0019  0.2315 -0.1920
  605W        W 4124   5.621   3.519   3.068 -0.1088  0.0350  0.0413
  606W        W 4125   7.794   1.988   2.604 -0.0345 -0.1382  0.1615
  607W        W 4126   2.581   5.092   0.821  0.0759 -0.3226  0.0739
  608W        W 4127   7.577   0.860   2.036 -0.2450  0.2364 -0.0133
  609W        W 4128   8.637   0.062   0.146 -0.0000 -0.0644  0.2635
  610W        W 4129   6.135   7.412   4.160  0.0020  0.1475  0.2766
  611W        W 4130   3.893   3.931   0.541 -0.1404  0.4211 -0.1883
  612W        W 4131   8.186   8.999   0.445  0.1015 -0.1736  0.0666
  613W        W 4132   1.782   7.996   4.416 -0.1375  0.0161 -0.2137
  614W        W 4133   4.176   6.672  10.039 -0.0164  0.1469  0.0630
  615W        W 4134   2.465   2.294  11.456 -0.1198 -0.1477 -0.4117
  616W        W 4135   9.299   8.487   8.782  0.0633  0.2069 -0.5423
  617W        W 4136   6.051   8.660   8.667  0.2222 -0.0364 -0.3771
  618W        W 4137   4.594   5.174  11.250 -0.1869  0.0682  0.2076
  619W        W 4138   9.496   0.054   2.266 -0.2647 -0.0817  0.1502
  620W        W 4139   7.775   4.643   4.014 -0.0115 -0.1767 -0.1235
  621W        W 4140   1.656   1.442   8.781  0.2181 -0.0821  0.2536
  622W        W 4141   5.968   6.101   0.317 -0.0863  0.1052 -0.0329
  623W        W 4142   8.459   4.744   0.688 -0.0472  0.0275  0.1485
  624W        W 4143   2.554   6.123   4.004 -0.0155  0.0871  0.1990
  625W        W 4144   0.835   2.300  11.827 -0.1422 -0.4486  0.0141
  626W        W 4145   1.067   0.773   1.575  0.1484 -0.1558 -0.0443
  627W        W 4146   6.604   8.309   3.125 -0.2694 -0.0982 -0.4127
  628W        W 4147   3.043   3.742   3.855  0.0983 -0.0379  0.3496
  629W        W 4148   5.522   3.034   0.249 -0.0878 -0.0928  0.2699
  630W        W 4149   7.031   2.965   3.425  0.0783 -0.1078  0.3759
  631W        W 4150   4.011   0.550  10.094 -0.0102 -0.0801 -0.0191
  632W        W 4151   5.660   4.865  10.961  0.1648  0.4166 -0.0758
  633W        W 4152   5.632   3.751  11.425  0.2708  0.1079 -0.0437
  634W        W 4153   1.891   7.276   1.078  0.0736 -0.2403 -0.0776
  635W        W 4154   5.186   5.346  10.323  0.1636  0.1850  0.2825
  636W        W 4155   6.935   3.114  12.484  0.1137  0.1454  0.1254
  637W        W 4156   1.348   2.423  11.938 -0.3347  0.1368  0.1424
  638W        W 4157   8.783   6.175  10.851  0.0444  0.0408 -0.0214
  639W        W 4158   4.404   0.052  11.270  0.1015  0.3114 -0.0793
  640W        W 4159   2.684   6.839   0.956  0.0701 -0.2838  0.0966
  641W        W 4160   3.090   1.634   5.063 -0.2314  0.0526 -0.1096
  642W        W 4161   1.849   3.458  10.537 -0.2553 -0.2454 -0.0778
  643W        W 4162   3.032   3.185   3.611  0.1417 -0.1422  0.0953
  644W        W 4163   1.009   0.994   8.921 -0.0168  0.3652  0.3530
  645W        W 4164   5.153   6.087   3.104 -0.1622 -0.1784  0.0826
  646W        W 4165   7.042   6.389   4.789  0.2593 -0.1839 -0.1245
  647W        W 4166   5.768   7.796   0.423 -0.0467 -0.0239  0.0344
  648W        W 4167   7.184   8.576   0.283 -0.1598  0.0084 -0.1568
  649W        W 4168   0.652   0.347  11.025 -0.1978  0.4132  0.0778
  650W        W 4169   7.720   8.237   3.834  0.0996  0.1548 -0.0765
  651W        W 4170   5.512   1.522   0.922  0.0208  0.1249  0.0420
  652W        W 4171   1.815   0.931   9.511  0.1329  0.0254 -0.1951
  653W        W 4172   3.739   4.241   0.057  0.0227  0.1787  0.2737
  654W        W 4173   6.387   5.348   1.820 -0.2892  0.0054 -0.0912
  655W        W 4174   4.867   5.501   1.860 -0.0319 -0.1343  0.3302
  656W        W 4175   4.202   2.735   3.535 -0.2933 -0.3486 -0.1304
  657W        W 4176   9.006   3.104   4.305 -0.4425 -0.2551 -0.0297
  658W        W 4177   4.802   9.194   3.827 -0.0135 -0.0461  0.0070
  659W        W 4178   8.054   9.145  11.947 -0.0690 -0.1148  0.2196
  660W        W 4179   8.050   1.452   9.749  0.0795 -0.0961  0.1044
  661W        W 4180   4.886   1.968   2.729  0.1304  0.1887 -0.0226
  662W        W 4181   6.397   0.588  10.384  0.4859 -0.1204  0.2864
  663W        W 4182   2.130   6.342   2.228  0.0161 -0.0455  0.1733
  664W        W 4183   7.511   1.597   2.613  0.1194 -0.1002  0.0225
  665W        W 4184   8.418   8.834  12.261  0.3842  0.0770  0.0915
  666W        W 4185   7.175   7.968   3.966  0.2129  0.1158 -0.1459
  667W        W 4186   2.547   9.344   2.029  0.1768 -0.0449  0.0455
  668W        W 4187   7.093   1.959  12.531 -0.0806 -0.1504  0.2351
  669W        W 4188   0.354   5.193   3.617 -0.0345  0.0630  0.4315
  670W        W 4189   6.875   2.814   2.755  0.4257  0.2126 -0.2567
  671W        W 4190   2.387   6.517   9.007 -0.2423  0.0733  0.0560
  672W        W 4191   1.230   3.623   1.432 -0.0355 -0.2000 -0.0817
  673W        W 4192   6.017   4.675  10.045  0.0010  0.2294  0.0535
  674W        W 4193   7.666   7.812   9.548 -0.0899  0.0909 -0.4943
  675W        W 4194   6.602   9.457   2.339  0.0581  0.1878 -0.1914
  676W        W 4195   5.365   4.471  10.673  0.1279  0.1265 -0.1272
  677W        W 4196   1.477   4.364   4.259  0.0860 -0.0619 -0.2079
  678W        W 4197   5.209   0.311   2.735  0.0720 -0.1161 -0.0661
  679W        W 4198   0.398   4.802  10.609 -0.0113  0.2138  0.1115
  680W        W 4199   6.324   5.505  11.458  0.2629  0.0358 -0.0790
  681W        W 4200   8.678   5.192  10.613  0.0262 -0.1920 -0.0388
  682W        W 4201   5.506   8.019   9.664  0.1028  0.0912  0.1765
  683W        W 4202   0.819   3.769   4.253 -0.0987 -0.1921  0.0468
  684W        W 4203   0.660   2.895   2.046 -0.0337  0.1141 -0.2138
  685W        W 4204   8.692   6.722  10.183  0.1687  0.0861  0.1759
  686W        W 4205   1.397   3.682  11.560  0.1062 -0.5211  0.1456
  687W        W 4206   1.971   7.418  11.368 -0.2537  0.0128 -0.1987
  688W        W 4207   8.620   3.873   2.235 -0.2375 -0.3029  0.1449
  689W        W 4208   1.362   3.170   2.667  0.3476  0.0090 -0.3637
  690W        W 4209   1.164   0.931   3.604 -0.1897  0.2348  0.0645
  691W        W 4210   3.943   8.670   3.615 -0.0608  0.3330  0.1343
  692W        W 4211   8.785   2.371   0.657  0.0214  0.1941  0.0189
  693W        W 4212   4.936   0.182   3.777 -0.4174 -0.1564 -0.2097
  694W        W 4213   1.339   6.269   2.332 -0.0649  0.0154  0.1126
  695W        W 4214   4.243   4.829   3.137  0.0137 -0.0127 -0.2479
  696W        W 4215   2.855   0.114   2.891 -0.0825 -0.3330  0.0015
  697W        W 4216   2.512   6.959   9.542  0.0003 -0.0065 -0.1003
  698W        W 4217   7.847   9.450   8.808  0.2010  0.2856  0.1032
  699W        W 4218   1.520   9.215   9.555 -0.3583 -0.1776 -0.2669
  700W        W 4219   8.239   1.706   1.184 -0.0967  0.1009 -0.0392
  701W        W 4220   0.036   7.768  10.126 -0.0994 -0.3568  0.0668
  702W        W 4221   5.243   2.815  10.456  0.0327  0.1205  0.0589
  703W        W 4222   3.350   7.656   1.229  0.1156  0.0096 -0.2183
  704W        W 4223   6.068   4.177   3.271 -0.0583 -0.1231 -0.0120
  705W        W 4224   2.269   7.562   2.692  0.2583  0.0493 -0.0754
  706W        W 4225   9.253   2.835  11.143  0.1680 -0.5919 -0.1049
  707W        W 4226   2.871   6.410   2.698 -0.2998 -0.0864  0.1451
  708W        W 4227   8.161   2.181  11.673  0.1246 -0.0840 -0.0877
  709W        W 4228   5.584   5.753   1.253  0.0605 -0.1592  0.7793
  710W        W 4229   7.850   8.569   9.435  0.1885 -0.2335 -0.3081
  711W        W 4230   0.968   8.606  10.161 -0.0073  0.0670 -0.2574
  712W        W 4231   1.434   5.751   9.460 -0.5398 -0.0107 -0.4155
  713W        W 4232   6.240   8.931  10.818 -0.1416 -0.2847 -0.3190
  714W        W 4233   8.828   1.850   1.376  0.3302  0.0377 -0.0002
  715W        W 4234   1.323   4.103  10.634  0.0202  0.1155 -0.0128
  716W        W 4235   2.685   2.257  10.186  0.0906  0.0931 -0.0530
  717W        W 4236   7.007   7.821   2.710  0.1817  0.2967 -0.1049
  718W        W 4237   7.916   4.233   3.733  0.0408  0.0751  0.2227
  719W        W 4238   5.395   9.565   4.381  0.0109 -0.0118  0.0550
  720W        W 4239   9.013   0.929  12.310 -0.3714  0.0052 -0.1691
  721W        W 4240   0.214   2.103   2.977 -0.0193 -0.2173  0.1754
  722W        W 4241   7.870   4.425   1.241  0.1413 -0.1514  0.1159
  723W        W 4242   7.358   7.720   3.060  0.3135  0.0252 -0.0078
  724W        W 4243   1.221   8.231   8.240  0.0505 -0.0292  0.2676
  725W        W 4244   4.071   3.492   0.837 -0.1144 -0.0742  0.0459
  726W        W 4245   9.595   7.072   2.146  0.0362  0.2819  0.1164
  727W        W 4246   5.524   6.884   3.013  0.1143  0.2592 -0.2078
  728W        W 4247   6.349   6.981   4.610 -0.1127 -0.1283 -0.3231
  729W        W 4248   3.433   2.740   2.952  0.0707 -0.2246 -0.1025
  730W        W 4249   3.796   0.015  11.429 -0.1630 -0.3742 -0.2285
  731W        W 4250   1.643   3.821  10.196 -0.3005  0.1861 -0.0544
  732W        W 4251   7.051   7.638   9.094 -0.0906 -0.3865 -0.1579
  733W        W 4252   4.086   6.586   9.238 -0.0411 -0.3174  0.1936
  734W        W 4253   4.799   4.923   2.225  0.0668 -0.2746  0.1820
  735W        W 4254   0.151   5.660   3.047  0.2646  0.0521  0.0188
  736W        W 4255   7.012   4.334  10.448 -0.0482 -0.0010  0.2352
  737W        W 4256   8.646   4.146   0.661 -0.0052  0.2290 -0.1133
  738W        W 4257   8.615   8.949   9.258 -0.0988 -0.0767  0.1134
  739W        W 4258   2.786   3.263   9.378  0.1238  0.0017 -0.0564
  740W        W 4259   6.148   3.832  11.508  0.0779 -0.0510 -0.1649
  741W        W 4260   5.881   2.901   0.606  0.1270 -0.2121 -0.3037
  742W        W 4261   8.950   8.208   9.644 -0.1240 -0.0818  0.4932
  743W        W 4262   4.467   5.452   1.522  0.2770 -0.0611  0.1957
  744W        W 4263   5.630   2.724   3.817 -0.2134 -0.0038 -0.3854
  745W        W 4264   8.530   5.430   9.420 -0.0824  0.0525  0.2565
  746W        W 4265   3.553   0.351   0.829  0.1770  0.1118 -0.0060
  747W        W 4266   0.243   0.041   2.689  0.0787 -0.1073 -0.0569
  748W        W 4267   6.855   1.118  12.473 -0.0183 -0.0581  0.1261
  749W        W 4268   9.368   9.581   8.542  0.3459  0.2299 -0.2570
  750W        W 4269   8.562   2.479  10.329 -0.3001  0.1972  0.3341
  751W        W 4270   9.537   8.323   3.738  0.4028 -0.2231 -0.0411
  752W        W 4271   7.347   2.953   0.254 -0.0513 -0.0862 -0.3861
  753W        W 4272   9.086   8.330  10.087 -0.3266  0.1977 -0.0771
  754W        W 4273   5.117   3.991  10.653  0.2350 -0.1225 -0.0926
  755W        W 4274   4.171   4.452   0.306 -0.0107 -0.1823  0.0035
  756W        W 4275   4.262   2.833   0.046  0.2449  0.1315  0.1133
  757W        W 4276   5.097   8.618   2.864 -0.1399  0.0051 -0.1065
  758W        W 4277   3.143   0.453   1.192 -0.0973 -0.3314 -0.2879
  759W        W 4278   3.039   2.641  11.045 -0.0705  0.0360 -0.0936
  760W        W 4279   1.041   5.946   0.037 -0.1251 -0.0538  0.0427
  761W        W 4280   9.076   4.837  10.883 -0.1910  0.0889  0.1446
  762W        W 4281   4.119   2.401  12.472 -0.0849  0.0389 -0.4038
  763W        W 4282   7.912   6.776   0.479  0.0089 -0.0962  0.1849
  764W        W 4283   5.120   7.761  12.369 -0.1307 -0.1979 -0.0515
  765W        W 4284   1.907   8.238  11.255 -0.2306  0.1124  0.1506
  766W        W 4285   0.446   6.793  11.423 -0.2051 -0.2855 -0.1670
  767W        W 4286   5.343   6.540   1.524  0.1643 -0.0164 -0.2644
  768W        W 4287   2.384   4.100   1.585 -0.1452 -0.2967 -0.0165
  769W        W 4288   3.712   2.587   3.807  0.3898 -0.1118  0.3204
  770W        W 4289   9.002   3.954   8.800 -0.3003  0.1589  0.1836
  771W        W 4290   7.423   5.101   1.793 -0.0051 -0.0575  0.1057
  772W        W 4291   1.628   7.880   3.881  0.2599 -0.5674 -0.2164
  773W        W 4292   0.839   7.355   9.233 -0.1045 -0.0407  0.0100
  774W        W 4293   1.815   2.543  12.186  0.1175 -0.0146 -0.1997
  775W        W 4294   2.943   6.659   0.013  0.2053 -0.0072  0.0414
  776W        W 4295   1.549   0.205   3.221 -0.1023  0.2714  0.2027
  777W        W 4296   5.363   6.264   8.561 -0.0535 -0.2268  0.0186
  778W        W 4297   0.896   4.419  11.972 -0.0369 -0.0221 -0.0369
  779W        W 4298   6.578   4.217  10.159 -0.0754  0.3214 -0.0874
  780W        W 4299   3.666   4.539  11.302 -0.0502  0.0166  0.1835
  781W        W 4300   8.367   6.125  11.807  0.3413 -0.4698  0.1620
  782W        W 4301   1.783   4.690   3.398 -0.1563 -0.0811 -0.0251
  783W        W 4302   6.739   6.142  11.036 -0.1058 -0.1792 -0.2117
  784W        W 4303   0.178   2.996   0.058  0.0139  0.1301 -0.1041
  785W        W 4304   2.980   4.734   4.918 -0.1846  0.2678  0.0030
  786W        W 4305   2.850   7.399  10.300  0.0131  0.1331  0.2477
  787W        W 4306   2.849   5.538   9.020 -0.2929  0.3191  0.3181
  788W        W 4307   7.958   4.658  10.461  0.0439 -0.2859  0.1144
  789W        W 4308   0.319   2.973   2.386  0.1380  0.0071  0.2365
  790W        W 4309   3.769   4.746  10.840 -0.0507 -0.1036 -0.1207
  791W        W 4310   7.971   1.376  11.921  0.1236 -0.0492  0.1719
  792W        W 4311   4.429   5.645  11.201 -0.1005 -0.2278  0.0011
  793W        W 4312   0.670   2.851   4.121  0.1584 -0.3463 -0.1583
  794W        W 4313   8.030   9.587  10.251  0.0281  0.3603  0.1247
  795W        W 4314   8.809   2.183   2.284  0.0281  0.0717 -0.4439
  796W        W 4315   0.255   1.065  10.499 -0.0756 -0.1510 -0.0423
  797W        W 4316   1.745   5.324   3.154  0.1427 -0.0195  0.0745
  798W        W 4317   5.802   5.107   0.539  0.0146 -0.0809  0.0275
  799W        W 4318   3.572   5.393  12.142 -0.2933  0.1928  0.0544
  800W        W 4319   9.300   5.707   1.537 -0.1675 -0.2418  0.1891
  801W        W 4320   7.294   1.399   2.179  0.1161  0.1519 -0.0465
  802W        W 4321   2.709   4.532  10.709  0.3022 -0.0702 -0.0377
  803W        W 4322   5.351   1.112  12.152  0.0163  0.1822  0.0250
  804W        W 4323   0.043   3.428   2.462 -0.1818  0.4195 -0.0142
  805W        W 4324   4.841   9.223   8.924 -0.0971  0.1930 -0.5567
  806W        W 4325   0.294   5.917  11.184  0.0684  0.0246  0.1848
  807W        W 4326   3.458   0.592  12.216 -0.0506 -0.1363  0.0703
  808W        W 4327   6.598   7.995   1.540 -0.0775 -0.0875 -0.0435
  809W        W 4328   3.071   2.300   8.117  0.1057 -0.0444 -0.0637
  810W        W 4329   6.565   8.422   0.792 -0.0035  0.1280 -0.2886
  811W        W 4330   9.408   4.831   2.842  0.1966 -0.2075  0.0667
  812W        W 4331   3.874   9.138   3.313  0.1600  0.0547  0.0895
  813W        W 4332   6.466   4.857   2.036  0.1970  0.0594 -0.0154
  814W        W 4333   1.063   4.677   4.128  0.2454  0.0406 -0.0139
  815W        W 4334   9.267   6.619   3.970  0.1238 -0.1033  0.0540
  816W        W 4335   2.893   1.269   3.648  0.1152  0.0377 -0.0480
  817W        W 4336   5.617   9.436   9.357  0.2194 -0.1236 -0.2313
  818W        W 4337   3.225   8.344   3.010 -0.1165  0.1170  0.0117
  819W        W 4338   4.818   2.671   1.537 -0.0167 -0.2588  0.0038
  820W        W 4339   4.136   6.098  12.383 -0.0896  0.2048  0.0908
  821W        W 4340   5.300   7.700   8.465  0.0219 -0.1215 -0.1785
  822W        W 4341   0.117   8.357   4.309 -0.0294  0.1260 -0.0330
  823W        W 4342   8.309   8.615  11.783 -0.1391 -0.2692  0.0590
  824W        W 4343   6.171   7.224  10.292  0.0942  0.0519 -0.2448
  825W        W 4344   9.555   7.778   4.053  0.1771  0.0331  0.1000
  826W        W 4345   6.632   6.439   1.132  0.2001 -0.2722  0.0564
  827W        W 4346   4.782   2.865   9.963  0.1166 -0.0617  0.0771
  828W        W 4347   7.087   8.228   9.066 -0.3287  0.0750  0.0290
  829W        W 4348   6.020   4.821  12.519 -0.1670  0.1612 -0.0028
  830W        W 4349   8.610   4.931   2.297  0.0393  0.2208 -0.1522
  831W        W 4350   6.747   0.095  11.206  0.0200 -0.2593  0.0139
  832W        W 4351   0.512   7.798  11.592  0.1511 -0.0332 -0.1400
  833W        W 4352   3.926   9.443  10.117 -0.0402 -0.0944 -0.0677
  834W        W 4353   0.499   6.024   0.123  0.0820  0.1420 -0.5710
  835W        W 4354   3.576   1.507  11.660 -0.2284 -0.1291 -0.1240
  836W        W 4355   6.858   8.364   9.570 -0.0536 -0.0034  0.0608
  837W        W 4356   8.922   5.467  11.368  0.3176  0.1143  0.1259
  838W        W 4357   4.160   4.795   2.382 -0.2001  0.0749 -0.4597
  839W        W 4358   3.850   0.834   3.419  0.2293 -0.1274 -0.2287
  840W        W 4359   8.230   6.616   1.813  0.2221 -0.0302  0.1572
  841W        W 4360   9.104   0.047  10.355 -0.2158  0.2328  0.1589
  842W        W 4361   6.603   0.740   0.105 -0.1543  0.3022  0.0646
  843W        W 4362   3.214   8.343   2.462 -0.0573 -0.2270 -0.0861
  844W        W 4363   0.527   2.654  10.527 -0.0148 -0.1819  0.0691
  845W        W 4364   9.045   9.200   1.519 -0.4459  0.1992  0.0193
  846W        W 4365   1.542   0.670   0.053 -0.0394  0.1700  0.0328
  847W        W 4366   6.366   7.482   8.657  0.1014 -0.0349  0.1139
  848W        W 4367   0.087   0.881   2.775  0.0456 -0.1205 -0.0623
  849W        W 4368   4.577   1.717   9.191 -0.2309  0.1878 -0.0622
  850W        W 4369   6.892   5.156   2.032  0.2769  0.1991  0.0088
  851W        W 4370   6.184   0.165   9.073 -0.4632  0.4806  0.1307
  852W        W 4371   4.761   5.837   9.731 -0.3012  0.0692 -0.3031
  853W        W 4372   8.307   0.195  11.909  0.1235 -0.0273  0.0631
  854W        W 4373   3.770   5.099   2.354 -0.0468 -0.0486  0.0332
  855W        W 4374   1.680   8.157   0.582 -0.2271  0.2205 -0.1865
  856W        W 4375   5.566   4.943  10.102 -0.0819 -0.3507  0.1128
  857W        W 4376   3.891   2.673  11.533  0.0122  0.1005 -0.0817
  858W        W 4377   6.439   8.452   1.816 -0.1825  0.1008 -0.1123
  859W        W 4378   8.971   4.492   3.480  0.0143 -0.0300 -0.0222
  860W        W 4379   0.574   8.339   1.784 -0.1802 -0.2464 -0.1635
  861W        W 4380   5.108   4.840   1.359 -0.2458 -0.2483  0.0646
  862W        W 4381   4.457   9.169   1.097  0.3128  0.1897  0.0554
  863W        W 4382   7.150   1.726   9.808  0.0011 -0.0781  0.1496
  864W        W 4383   6.790   6.267   3.295 -0.1302 -0.3188  0.1457
  865W        W 4384   5.423   9.064   0.404 -0.1605  0.1710  0.2510
  866W        W 4385   9.072   7.148   1.285  0.0023  0.0838  0.1017
  867W        W 4386   0.038   2.031  11.200  0.2633 -0.1526  0.0488
  868W        W 4387   2.331   4.351   3.541  0.0734 -0.1896  0.3083
  869W        W 4388   3.872   0.539   3.003 -0.1337  0.1295 -0.0139
  870W        W 4389   1.253   1.407   8.080  0.2110  0.3409 -0.3979
  871W        W 4390   3.394   1.072   3.371  0.1144  0.3088 -0.3210
  872W        W 4391   1.422   6.428  12.560 -0.0458 -0.2445 -0.1151
  873W        W 4392   5.411   7.663  10.095  0.1279  0.1528  0.1169
  874W        W 4393   6.780   0.033   3.983  0.4204  0.2547  0.4233
  875W        W 4394   2.549   7.353  11.435 -0.1404 -0.0011 -0.3292
  876W        W 4395   3.862   7.797  11.759 -0.0973  0.2429 -0.0089
  877W        W 4396   0.929   0.913  11.844  0.1916  0.0714  0.5096
  878W        W 4397   4.972   5.605   0.505  0.1181 -0.1411 -0.0580
  879W        W 4398   0.730   5.501   2.629  0.3553  0.1228 -0.0248
  880W        W 4399   5.223   8.143   8.781  0.2520 -0.0478 -0.0582
  881W        W 4400   8.602   5.402   3.441 -0.0506 -0.1160 -0.1145
  882W        W 4401   2.670   5.288  11.621  0.2363 -0.0906  0.0259
  883W        W 4402   6.670   3.913   2.004 -0.2126 -0.1161 -0.3740
  884W        W 4403   8.171   6.532   2.658 -0.3554 -0.1714  0.1474
  885W        W 4404   0.716   8.882   8.875  0.1037  0.0107 -0.0386
  886W        W 4405   6.670   8.555   4.515  0.1345  0.3640 -0.0041
  887W        W 4406   0.794   5.218   1.186  0.2531  0.0757  0.0240
  888W        W 4407   0.779   8.224   8.050 -0.0223 -0.0747 -0.0601
  889W        W 4408   5.239   3.610   3.786 -0.0407  0.0190  0.1383
  890W        W 4409   0.376   5.690   3.559  0.4176 -0.1587 -0.0515
  891W        W 4410   6.298   7.484   4.766 -0.1238  0.0114  0.0861
  892W        W 4411   1.072   4.752   2.381  0.0091 -0.1262  0.0506
  893W        W 4412   5.804   6.679  11.007 -0.2963  0.2666 -0.0260
  894W        W 4413   6.541   4.089   1.133 -0.4058 -0.2021  0.0167
  895W        W 4414   0.967   9.311  11.825  0.0480 -0.0867 -0.2397
  896W        W 4415   6.052   8.203   2.523 -0.2687  0.0478  0.2556
  897W        W 4416   5.848   8.655   2.974  0.0876 -0.0257 -0.0229
  898W        W 4417   0.061   1.317   1.084  0.2404 -0.1478 -0.0591
  899W        W 4418   8.551   3.967  10.044  0.3355 -0.1338  0.1373
  900W        W 4419   6.769   2.884  11.610  0.1127  0.0337  0.1738
  901W        W 4420   9.663   9.367   3.564 -0.4472 -0.2327 -0.2110
  902W        W 4421   7.061   6.623  11.950 -0.2752 -0.0548 -0.2403
  903W        W 4422   8.338   4.804  10.798 -0.1653 -0.1659  0.1219
  904W        W 4423   0.690   4.230  11.498 -0.2190  0.2542  0.0051
  905W        W 4424   7.390   8.754  12.487  0.0240 -0.2155  0.3112
  906W        W 4425   0.551   3.702   4.808  0.0578 -0.0306  0.0515
  907W        W 4426   0.526   1.337   4.892 -0.0744  0.0985 -0.1773
  908W        W 4427   6.185   7.925   4.069 -0.2162  0.1437  0.1197
  909W        W 4428   4.964   2.390   2.535  0.1124  0.1689  0.0062
  910W        W 4429   0.345   4.225   2.830 -0.1422  0.1244 -0.1835
  911W        W 4430   3.409   2.157   9.679  0.0263  0.1230  0.2601
  912W        W 4431   1.587   1.560   1.100 -0.1590  0.1677  0.4348
  913W        W 4432   4.871   7.721  11.864 -0.1855 -0.1939 -0.0209
  914W        W 4433   5.380   7.760   9.082 -0.0207 -0.1107  0.0543
  915W        W 4434   7.443   9.603   2.404  0.5647  0.0347 -0.0327
  916W        W 4435   7.100   8.271  10.024 -0.2054  0.0040  0.1247
  917W        W 4436   2.948   0.426   9.859 -0.1998  0.0166 -0.2173
  918W        W 4437   3.870   2.055   2.643  0.1333  0.0084  0.1423
  919W        W 4438   6.976   1.363   1.770  0.0374 -0.1277  0.4735
  920W        W 4439   4.491   7.514   3.673  0.1708 -0.2779 -0.0654
  921W        W 4440   1.551   3.654   1.054 -0.1456  0.1835 -0.2860
  922W        W 4441   2.495   0.642   9.007  0.2242 -0.1527  0.3511
  923W        W 4442   5.342   5.748  11.264  0.0685 -0.0066  0.0979
  924W        W 4443   3.101   2.021  12.071  0.1360  0.0528 -0.0123
  925W        W 4444   5.517   1.678   1.411 -0.2403 -0.2084 -0.0336
  926W        W 4445   7.368   6.923   9.353  0.1191  0.1573  0.3124
  927W        W 4446   0.947   7.778   9.558 -0.2155  0.2720 -0.1134
  928W        W 4447   2.101   9.510  11.892  0.0390  0.1416 -0.2023
  929W        W 4448   1.796   8.673   2.948  0.3606 -0.0554 -0.2785
  930W        W 4449   5.544   7.360  11.577 -0.0508 -0.0293 -0.2089
  931W        W 4450   1.903   4.623   4.224 -0.2383  0.1313 -0.3885
  932W        W 4451   2.127   1.177   9.080  0.0929 -0.1406  0.0448
  933W        W 4452   6.741   5.694  10.141 -0.2279  0.0125 -0.1068
  934W        W 4453   3.393   6.287  10.503  0.0980  0.1638  0.1766
  935W        W 4454   6.096   1.308  11.183  0.1418  0.1682  0.2035
  936W        W 4455   1.615   0.989   1.841  0.2462  0.0111 -0.1869
  937W        W 4456   0.318   9.313   4.138  0.1375 -0.2555  0.1039
  938W        W 4457   0.781   9.634   2.914  0.2212 -0.2195 -0.1439
  939W        W 4458   4.337   0.451   9.212  0.3946  0.0722  0.0600
  940W        W 4459   9.077   4.839   1.463  0.0062 -0.0521  0.0341
  941W        W 4460   6.010   0.394   2.604  0.1507  0.3104  0.1690
  942W        W 4461   8.739   4.995   8.420  0.0445  0.2758  0.0814
  943W        W 4462   0.593   4.202   9.657  0.5868  0.2283  0.0675
  944W        W 4463   7.872   9.042  11.432 -0.1430  0.2265 -0.0381
  945W        W 4464   0.726   3.577  10.456  0.0209 -0.2865 -0.2603
  946W        W 4465   1.026   5.535   4.310 -0.2605 -0.0011  0.1706
  947W        W 4466   2.993   5.329   3.020  0.1505 -0.1371  0.2360
  948W        W 4467   7.257   9.094  10.563 -0.1012  0.0394 -0.1605
  949W        W 4468   1.296   9.168   0.760  0.0916  0.3943  0.3032
  950W        W 4469   5.239   1.825   0.698  0.3257 -0.3315  0.1864
  951W        W 4470   3.448   2.254   1.831 -0.0106  0.4244  0.1160
  952W        W 4471   7.717   2.767   2.097 -0.0132 -0.2222 -0.0190
  953W        W 4472   1.131   8.986  10.413 -0.0706 -0.0414 -0.0679
  954W        W 4473   4.554   1.487   0.625  0.0286  0.1570 -0.0481
  955W        W 4474   3.725   4.338  10.459  0.0823 -0.0202  0.0446
  956W        W 4475   1.909   2.323   1.742 -0.0298  0.1307  0.3342
  957W        W 4476   1.949   1.717   9.941  0.1927  0.2072  0.0759
  958W        W 4477   4.009   7.980   0.561  0.1144 -0.1452 -0.2389
  959W        W 4478   1.861   8.861   9.684  0.1167  0.3129  0.2703
  960W        W 4479   8.969   1.176   4.022 -0.0189  0.1357 -0.1462
  961W        W 4480   5.163   3.894   0.923 -0.3065 -0.0681 -0.0961
  962W        W 4481   8.306   1.803   2.967 -0.2569  0.5436 -0.0958
  963W        W 4482   7.630   3.486   2.855 -0.0556  0.3461 -0.1902
  964W        W 4483   4.624   1.605   3.051  0.0438 -0.0309 -0.0533
  965W        W 4484   0.917   9.368   3.656  0.1094  0.0730  0.0069
  966W        W 4485   2.440   0.926   5.068 -0.2525 -0.1128 -0.0318
  967W        W 4486   8.475   1.713   0.502  0.3608  0.1847  0.1460
  968W        W 4487   9.191   7.645   8.036 -0.0845  0.1462  0.0379
  969W        W 4488   3.940   1.692   1.378  0.1428  0.1078  0.2010
  970W        W 4489   6.172   7.825  12.135 -0.2169 -0.1014  0.0197
  971W        W 4490   2.712   6.878   2.460  0.0528 -0.0956 -0.1250
  972W        W 4491   2.194   2.817   1.939  0.0026 -0.1102  0.1860
  973W        W 4492   4.518   9.362   3.427 -0.0272  0.0950  0.1255
  974W        W 4493   2.637   1.329  11.127  0.0880  0.2374 -0.1702
  975W        W 4494   9.428   4.594  10.155  0.1508 -0.1568  0.3466
  976W        W 4495   9.129   0.355   9.645  0.1490  0.1630  0.4809
  977W        W 4496   7.901   3.995   9.465  0.0828 -0.1003  0.0183
  978W        W 4497   7.480   7.144   5.303  0.1648  0.0378 -0.0938
  979W        W 4498   0.462   4.741  12.255 -0.1713  0.2060 -0.1051
  980W        W 4499   1.352   1.259   2.636  0.2377 -0.0016 -0.1567
  981W        W 4500   3.384   1.108   1.629  0.1203 -0.1171  0.0994
  982W        W 4501   2.107   6.579   9.458 -0.0197 -0.0206  0.2395
  983W        W 4502   8.687   3.350  12.293 -0.4571 -0.1890  0.0171
  984W        W 4503   9.064   8.664   1.500  0.0804  0.2378 -0.0624
  985W        W 4504   3.678   8.337   2.703  0.1264  0.0562 -0.1051
  986W        W 4505   5.657   6.247  12.493 -0.2161 -0.1270  0.2145
  987W        W 4506   2.038   9.652   0.318 -0.1655  0.3557  0.3662
  988W        W 4507   6.818   5.049   2.672  0.1644 -0.0424  0.1130
  989W        W 4508   5.033   5.785   2.699 -0.0679 -0.4937 -0.0749
  990W        W 4509   7.833   3.935   2.880 -0.0346  0.1290  0.2746
  991W        W 4510   3.135   6.645   0.815  0.2029 -0.1473 -0.0131
  992W        W 4511   2.732   0.493   8.405 -0.2694  0.1810  0.0385
  993W        W 4512   9.626   1.631   1.596 -0.1847 -0.1535 -0.0347
  994W        W 4513   2.363   6.870   1.390 -0.0904  0.1757  0.0168
  995W        W 4514   5.110   9.147   8.454  0.0348  0.1613 -0.1308
  996W        W 4515   0.164   0.799   1.088  0.1155 -0.0315 -0.0604
  997W        W 4516   5.800   1.032   3.098  0.6263 -0.4055  0.1742
  998W        W 4517   7.013   1.011   3.263  0.2567 -0.1661  0.0330
  999W        W 4518   3.863   0.930   1.924 -0.1183  0.1297 -0.1358
 1000W        W 4519   4.995   5.743  10.587 -0.1068 -0.0743 -0.1650
 1001W        W 4520   5.171   4.504   9.792  0.1054  0.1704  0.1994
 1002W        W 4521   1.623   3.011   4.472 -0.0882  0.2143  0.3009
 1003W        W 4522   8.759   1.118   0.657  0.2238 -0.0766  0.3668
 1004W        W 4523   3.444   5.491  11.220 -0.0126 -0.0250 -0.3257
 1005W        W 4524   7.349   6.773   9.930 -0.1547  0.2195 -0.2133
 1006W        W 4525   4.682   5.782   2.255 -0.0503  0.1097  0.3295
 1007W        W 4526   6.161   8.586   9.277 -0.3542  0.5743  0.0283
 1008W        W 4527   4.311   0.160   1.256  0.0821  0.2421 -0.1487
 1009W        W 4528   1.961   8.679   3.472 -0.0909 -0.3626  0.0731
 1010W        W 4529   1.500   7.319   8.304 -0.1371 -0.0904  0.0530
 1011W        W 4530   3.479   5.549   1.651  0.3669 -0.2726  0.0435
 1012W        W 4531   5.494   7.394   1.043  0.1707 -0.0875  0.3479
 1013W        W 4532   9.171   4.464  12.187  0.2378 -0.4307  0.2832
 1014W        W 4533   6.626   4.945   9.199  0.2714  0.2077 -0.1036
 1015W        W 4534   9.477   9.550  11.589  0.3448  0.2196  0.2727
 1016W        W 4535   8.488   7.625   2.120  0.1926  0.0276 -0.2265
 1017W        W 4536   9.646   7.296   0.881  0.1593 -0.1270 -0.0211
 1018W        W 4537   1.008   3.902   9.165 -0.1608 -0.1077  0.0840
 1019W        W 4538   1.794   0.538   2.146  0.0986 -0.1180  0.3662
 1020W        W 4539   3.114   5.478  12.503 -0.2906  0.1884  0.0484
 1021W        W 4540   1.202   7.076   0.796 -0.3377  0.0938  0.1916
 1022W        W 4541   3.005   8.927   1.472 -0.0581  0.1958  0.1958
 1023W        W 4542   8.058   3.826  10.056 -0.4705  0.0704 -0.0454
 1024W        W 4543   3.889   2.051   9.848  0.3306 -0.0136 -0.1815
 1025W        W 4544   5.997   0.139   2.135 -0.2709  0.1807 -0.2062
 1026W        W 4545   0.706   4.336   1.779 -0.2182  0.0479 -0.1760
 1027W        W 4546   7.808   6.411   8.686  0.0069 -0.2389 -0.4955
 1028W        W 4547   2.876   2.925  11.425  0.1369 -0.3039 -0.2753
 1029W        W 4548   8.106   2.670   1.706  0.1885 -0.0447  0.4306
 1030W        W 4549   5.563   0.904   8.959  0.1477 -0.3127  0.2003
 1031W        W 4550   9.644   3.929   0.669 -0.2296  0.1621  0.3272
 1032W        W 4551   3.823   3.198  12.541 -0.0267 -0.0408  0.2824
 1033W        W 4552   2.834   8.980   0.128  0.0998 -0.4946 -0.0501
 1034W        W 4553   8.467   6.808   1.369  0.1310  0.2518  0.0981
 1035W        W 4554   0.684   0.635   4.301  0.3017  0.0929 -0.2320
 1036W        W 4555   4.020   5.503  11.445 -0.3044 -0.0797 -0.2124
 1037W        W 4556   3.276   0.426   4.530 -0.0637 -0.0315  0.0623
 1038W        W 4557   0.605   1.448  10.316  0.0081 -0.4177 -0.3798
 1039W        W 4558   3.783   8.440   1.056  0.0034 -0.1260  0.0918
 1040W        W 4559   6.953   6.099  12.122  0.2191  0.2287 -0.0655
 1041W        W 4560   3.352   8.317  11.116  0.0467  0.1742 -0.1050
 1042W        W 4561   9.573   6.865   0.538 -0.0488 -0.1809  0.0308
 1043W        W 4562   4.602   7.502   9.252  0.0075  0.0424  0.1192
 1044W        W 4563   1.786   0.168   0.715  0.1542  0.0040 -0.2029
 1045W        W 4564   6.578   7.108   9.646  0.1778 -0.1493  0.0560
 1046W        W 4565   3.496   9.579  10.849 -0.2952 -0.1163 -0.0235
 1047W        W 4566   4.332   6.903   3.101 -0.1324 -0.1812 -0.1700
 1048W        W 4567   4.350   6.431   1.234  0.2450 -0.1358 -0.1766
 1049W        W 4568   6.691   0.242   0.111 -0.1484  0.0622 -0.2647
 1050W        W 4569   7.234   7.763   4.493  0.2096  0.1083  0.1129
 1051W        W 4570   3.977   3.505  10.182 -0.3092 -0.0718 -0.1188
 1052W        W 4571   6.280   6.381  11.027  0.1501 -0.4502  0.0857
 1053W        W 4572   0.198   4.602   3.638 -0.1349  0.0211 -0.0006
 1054W        W 4573   6.583   0.255   3.612  0.1961 -0.1169  0.1122
 1055W        W 4574   2.559   9.661   9.520 -0.0684  0.0724  0.1320
 1056W        W 4575   3.607   2.585   9.743 -0.0066  0.1764 -0.1096
 1057W        W 4576   1.346   5.571  10.336 -0.0548  0.0267  0.1864
 1058W        W 4577   2.758   5.677   4.037  0.0308  0.0863 -0.3214
 1059W        W 4578   8.909   8.940   0.645  0.2518 -0.0753  0.0318
 1060W        W 4579   4.076   2.214  11.608  0.1379  0.0748 -0.2089
 1061W        W 4580   1.114   2.782   2.076 -0.1887  0.1442 -0.1188
 1062W        W 4581   7.411   0.567  10.334 -0.4007  0.1818  0.0421
 1063W        W 4582   2.053   1.229   2.735  0.2487  0.2492  0.1843
 1064W        W 4583   8.617   2.411  10.958 -0.0080 -0.0584  0.2332
 1065W        W 4584   0.293   7.758   3.770  0.0209  0.2927 -0.1126
 1066W        W 4585   2.125   2.038   3.293  0.2184 -0.1615 -0.1344
 1067W        W 4586   5.465   6.498   9.407 -0.3063  0.3510  0.0215
 1068W        W 4587   3.964   4.645   3.668 -0.0297  0.2102 -0.0118
 1069W        W 4588   8.455   1.697  11.201  0.0014  0.0922 -0.1452
 1070W        W 4589   3.337   4.588   1.698 -0.2915 -0.0625  0.0163
 1071W        W 4590   3.362   5.148   3.457 -0.0660  0.3864 -0.0601
 1072W        W 4591   5.178   1.012   1.723 -0.3429 -0.1305  0.0915
 1073W        W 4592   1.555   0.841  11.108  0.2916  0.2121  0.2582
 1074W        W 4593   3.866   0.935   1.438 -0.1085  0.0970  0.3896
 1075W        W 4594   3.905   0.283   0.528  0.1769  0.1245  0.2553
 1076W        W 4595   9.579   3.407   1.631 -0.0201  0.3960  0.4132
 1077W        W 4596   3.411   0.294   2.992  0.1834 -0.1259 -0.0301
 1078W        W 4597   2.236   9.119  11.181  0.2968  0.1970  0.1031
 1079W        W 4598   3.067   4.908  11.605  0.0494  0.2566  0.6429
 1080W        W 4599   1.546   4.166  11.332 -0.2745 -0.3482  0.0006
 1081W        W 4600   8.489   4.630   3.281 -0.0484 -0.0957 -0.0572
 1082W        W 4601   0.795   8.175   1.287 -0.2721  0.4046 -0.1714
 1083W        W 4602   6.532   4.978   0.099 -0.3499 -0.1483  0.0511
 1084W        W 4603   1.345   5.048   0.602 -0.2734  0.2240 -0.1495
 1085W        W 4604   9.188   6.593   2.778 -0.3243  0.0172 -0.2103
 1086W        W 4605   9.407   3.498   1.187 -0.0115  0.1969 -0.2156
 1087W        W 4606   1.770   4.357  11.731 -0.3183  0.1554 -0.3254
 1088W        W 4607   5.775   8.136  10.949 -0.1369  0.1964 -0.1423
 1089W        W 4608   8.737   8.350   2.715  0.2003 -0.4128  0.0645
 1090W        W 4609   5.145   4.693   0.384  0.2214 -0.2871  0.1101
 1091W        W 4610   7.546   7.625   1.801  0.2382 -0.0437 -0.0092
 1092W        W 4611   1.079   3.484   2.393 -0.0589 -0.0296 -0.0985
 1093W        W 4612   6.892   0.806  10.449 -0.2502 -0.2780  0.0868
 1094W        W 4613   0.885   5.704   3.427 -0.1242 -0.2033  0.4461
 1095W        W 4614   4.670   0.295   2.542 -0.0995  0.1734  0.0714
 1096W        W 4615   6.594   7.334  10.921  0.1485  0.1591 -0.1458
 1097W        W 4616   0.027   9.041   0.902  0.0812 -0.1648 -0.2173
 1098W        W 4617   4.907   6.844  10.709  0.2704  0.0717  0.0741
 1099W        W 4618   8.837   0.115   4.715 -0.0783 -0.0113 -0.1785
 1100W        W 4619   6.527   2.162  11.911 -0.0453 -0.2809 -0.0981
 1101W        W 4620   5.124   5.190   0.846 -0.1339  0.0596  0.0008
 1102W        W 4621   3.010   6.840   7.912 -0.0067  0.1602  0.0200
 1103W        W 4622   8.781   6.505   0.536 -0.0985  0.1050  0.1673
 1104W        W 4623   3.236   4.007   3.059 -0.1001 -0.0051  0.0417
 1105W        W 4624   1.113   0.900   0.171  0.1562 -0.1001  0.1052
 1106W        W 4625   7.276   5.891  10.267 -0.1661 -0.0032  0.0083
 1107W        W 4626   7.095   0.494   1.726 -0.3020 -0.3380  0.1602
 1108W        W 4627   1.542   1.792  10.970  0.0223 -0.1746  0.1054
 1109W        W 4628   3.993   6.139  10.072  0.1683 -0.1966 -0.0532
 1110W        W 4629   7.723   7.452  11.047 -0.2835  0.1458 -0.1718
 1111W        W 4630   3.308   5.877   2.020 -0.0426  0.0853  0.3290
 1112W        W 4631   2.370   3.713   4.192 -0.1723 -0.0400 -0.2910
 1113W        W 4632   6.564   7.115   4.040  0.1488 -0.0442 -0.1575
 1114W        W 4633   6.204   2.178  10.111  0.0841  0.1565  0.0180
 1115W        W 4634   4.279   8.696   0.284 -0.4074 -0.0062  0.0473
 1116W        W 4635   1.224   2.064   8.878  0.2559 -0.3690 -0.0770
 1117W        W 4636   6.953   1.672  10.973  0.2610  0.0788 -0.2912
 1118W        W 4637   0.578   0.039   1.115 -0.3479  0.3265 -0.0745
 1119W        W 4638   5.252   5.324   9.089  0.1195 -0.1570 -0.0964
 1120W        W 4639   6.683   8.526  11.908 -0.1016  0.0192 -0.0888
 1121W        W 4640   3.530   2.483   0.863  0.3235  0.1429 -0.0201
 1122W        W 4641   8.224   6.582   3.204  0.2100 -0.3026 -0.1741
 1123W        W 4642   2.542   5.315   1.698 -0.0084  0.0779 -0.1534
 1124W        W 4643   2.891   1.638   1.717  0.0781 -0.0260  0.0577
 1125W        W 4644   8.712   3.094   2.335 -0.1701  0.0847 -0.0027
 1126W        W 4645   1.035   3.178   1.190  0.1700  0.2803 -0.0642
 1127W        W 4646   1.931   2.012  10.771 -0.0539 -0.0761 -0.2883
 1128W        W 4647   8.722   9.452  11.378 -0.3071  0.4500  0.1638
 1129W        W 4648   4.624   3.518   8.490  0.0242  0.2408 -0.0218
 1130W        W 4649   3.938   2.380   2.218 -0.3266  0.0118 -0.0150
 1131W        W 4650   3.516   7.213  10.989 -0.1270 -0.1582 -0.1726
 1132W        W 4651   4.863   2.134  10.513 -0.0173 -0.0858  0.0239
 1133W        W 4652   1.847   3.402   0.642 -0.0880 -0.0909 -0.2165
 1134W        W 4653   8.099   1.901   3.453 -0.0866 -0.0511 -0.0607
 1135W        W 4654   5.962   9.124  12.136 -0.1669  0.3493 -0.1605
 1136W        W 4655   6.661   7.334   0.263  0.1123  0.4155  0.0579
 1137W        W 4656   9.532   8.715   9.216  0.2200 -0.3914  0.3362
 1138W        W 4657   8.939   3.909   2.760 -0.0457 -0.1434  0.0316
 1139W        W 4658   3.350   7.647   9.299  0.1131 -0.1011  0.1222
 1140W        W 4659   7.687   1.584  10.039  0.0651  0.0743 -0.1550
 1141W        W 4660   7.718   9.306   2.032  0.1490 -0.0023 -0.0976
 1142W        W 4661   5.836   1.922   0.926 -0.0208  0.1778  0.0828
 1143W        W 4662   1.048   6.189   9.881  0.0193  0.0476  0.1207
 1144W        W 4663   0.495   5.721  12.295 -0.1010 -0.1584 -0.0071
 1145W        W 4664   2.411   7.952   4.009  0.1278  0.0845 -0.2733
 1146W        W 4665   8.073   5.421   3.902  0.2051 -0.4287 -0.0547
 1147W        W 4666   3.455   7.045   4.009  0.1485  0.0592 -0.0401
 1148W        W 4667   3.643   0.272   4.191 -0.0352 -0.0918 -0.5027
 1149W        W 4668   1.201   0.230  10.469 -0.2721  0.1073 -0.0508
 1150W        W 4669   7.897   7.797  12.151  0.2789  0.0289 -0.1869
 1151W        W 4670   3.737   4.144  11.703 -0.1745  0.0941 -0.2517
 1152W        W 4671   8.763   6.351   3.340  0.1320 -0.0320  0.0938
 1153W        W 4672   3.376   4.061   1.770 -0.0496  0.2305  0.1097
 1154W        W 4673   1.746   7.878   1.129  0.1161  0.0638 -0.2850
 1155W        W 4674   0.923   5.907  10.342  0.0313  0.2200  0.1348
 1156W        W 4675   7.705   7.284   8.251 -0.1866 -0.2303  0.1917
 1157W        W 4676   5.660   2.029  10.905 -0.1158 -0.1293  0.2674
 1158W        W 4677   8.808   3.180   9.887  0.1873 -0.1424  0.1050
 1159W        W 4678   2.614   6.540   9.915  0.1547  0.3416 -0.0044
 1160W        W 4679   5.048   8.572   8.445  0.0109  0.2113  0.0759
 1161W        W 4680   2.913   4.963   3.382  0.0460  0.1738  0.1717
 1162W        W 4681   0.379   0.908   3.958  0.2538  0.0332  0.0943
 1163W        W 4682   3.290   0.964   3.821 -0.0132  0.2754 -0.2143
 1164W        W 4683   6.042   6.107   2.875 -0.2309 -0.0683 -0.0814
 1165W        W 4684   6.625   0.030  11.725 -0.2714  0.1476 -0.1233
 1166W        W 4685   5.842   5.443   3.460 -0.0337 -0.4401 -0.4782
 1167W        W 4686   6.017   3.125   3.362 -0.2527  0.0331  0.4217
 1168W        W 4687   7.976   6.063   2.694  0.1584 -0.0607  0.3503
 1169W        W 4688   8.525   3.612   1.635  0.4811 -0.4494  0.1296
 1170W        W 4689   0.178   2.619   2.778 -0.2857  0.0962 -0.0611
 1171W        W 4690   2.833   4.191   1.831 -0.0219  0.2361  0.2157
 1172W        W 4691   5.710   9.362  11.247  0.0437  0.2298  0.0390
 1173W        W 4692   7.029   6.928   4.131 -0.2549 -0.1296 -0.4986
 1174W        W 4693   8.170   9.403  11.251  0.1930 -0.0487  0.0508
 1175W        W 4694   0.689   8.369  11.538 -0.2882 -0.2191  0.1478
 1176W        W 4695   7.676   4.858  12.469  0.2930 -0.0091 -0.3087
 1177W        W 4696   5.936   7.726  12.528  0.0323  0.0419  0.0468
 1178W        W 4697   7.392   2.631  11.875  0.2490  0.0038 -0.2319
 1179W        W 4698   1.311   5.555  11.324  0.3390 -0.0004 -0.0092
 1180W        W 4699   4.933   7.905   1.545  0.2283 -0.2239  0.1231
 1181W        W 4700   2.590   1.671   9.479 -0.0574  0.2803  0.1088
 1182W        W 4701   1.715   3.358   8.881  0.0526 -0.0241 -0.1248
 1183W        W 4702   8.321   0.637   9.753 -0.0634  0.0897 -0.0210
 1184W        W 4703   4.401   8.127  12.320 -0.0447 -0.2551  0.1167
 1185W        W 4704   4.118   5.928   1.345 -0.2112 -0.1047 -0.0795
 1186W        W 4705   5.093   2.318  12.391 -0.0323  0.0873  0.1367
 1187W        W 4706   4.782   6.399   0.319  0.3399 -0.0226  0.0410
 1188W        W 4707   3.067   7.338  11.472 -0.2073  0.0942 -0.1642
 1189W        W 4708   0.801   0.242   9.031  0.0963  0.0549  0.0746
 1190W        W 4709   4.475   2.369   1.801 -0.0884 -0.0567 -0.0144
 1191W        W 4710   0.318   6.867   3.364 -0.1837 -0.1263  0.0198
 1192W        W 4711   7.172   7.776   0.705  0.1305  0.1165 -0.0227
 1193W        W 4712   4.923   5.334   2.430 -0.0072 -0.2208  0.0668
 1194W        W 4713   7.115   0.096  11.556  0.3025 -0.1722  0.0008
 1195W        W 4714   8.533   1.509   9.834  0.1902 -0.0492 -0.2500
 1196W        W 4715   0.317   5.035  11.855  0.0522 -0.0480  0.0798
 1197W        W 4716   0.403   8.288   3.877  0.0682 -0.1033 -0.0927
 1198W        W 4717   8.176   1.197   4.280 -0.1264  0.0191  0.2422
 1199W        W 4718   4.653   8.885   8.512 -0.1958  0.1062 -0.1527
 1200W        W 4719   8.391   0.990  12.492  0.1144 -0.0485  0.0294
 1201W        W 4720   0.322   6.042   8.746 -0.2759  0.3020 -0.0191
 1202W        W 4721   3.148   4.066  11.695 -0.1663 -0.2131  0.2261
 1203W        W 4722   6.010   9.578   4.371 -0.3387  0.4224 -0.1856
 1204W        W 4723   8.823   2.563  11.384  0.4042  0.1121  0.0218
 1205W        W 4724   2.515   8.971   1.344  0.1783 -0.0686  0.1116
 1206W        W 4725   2.124   3.361   1.055  0.1370  0.1275 -0.0905
 1207W        W 4726   9.549   2.091   8.860 -0.0514 -0.0475 -0.0875
 1208W        W 4727   5.131   8.348  11.348  0.1315  0.2913  0.0874
 1209W        W 4728   0.198   9.308  11.704 -0.2279  0.2217 -0.0501
 1210W        W 4729   5.339   3.754   0.412 -0.1772  0.3111  0.0135
 1211W        W 4730   5.755   6.880   1.632  0.1893  0.0610 -0.0146
 1212W        W 4731   2.297   2.355  12.562  0.2560 -0.1517  0.0661
 1213W        W 4732   0.729   9.530   9.823 -0.1420  0.0719 -0.0842
 1214W        W 4733   0.885   3.636   0.326  0.0954 -0.0615 -0.2922
 1215W        W 4734   8.170   8.193   1.514 -0.0838  0.0583 -0.0539
 1216W        W 4735   1.165   6.178   9.338 -0.1962  0.1040 -0.3470
 1217W        W 4736   2.092   0.392   3.497  0.0402 -0.2894 -0.1843
 1218W        W 4737   7.150   5.855  12.471 -0.5690  0.2051 -0.1902
 1219W        W 4738   1.776   1.529   1.716  0.2404  0.1412 -0.1359
 1220W        W 4739   1.777   3.017   3.166 -0.1727 -0.4044  0.2013
 1221W        W 4740   4.797   7.318   4.050  0.1157  0.1117 -0.1661
 1222W        W 4741   3.456   6.860   2.132 -0.0734  0.0503 -0.0200
 1223W        W 4742   8.050   2.265   2.924 -0.3955  0.2383 -0.2484
 1224W        W 4743   8.235   8.552   1.203 -0.5360 -0.0754 -0.0692
 1225W        W 4744   5.933   5.994  10.711  0.1957  0.2775  0.1802
 1226W        W 4745   2.299   3.400   9.814 -0.2859  0.1657 -0.2719
 1227W        W 4746   2.042   2.199   4.267 -0.1661 -0.1269 -0.5002
 1228W        W 4747   8.000   8.475   3.061 -0.0597  0.3974  0.0693
 1229W        W 4748   1.750   0.691   0.570  0.0504 -0.2858 -0.2418
 1230W        W 4749   5.830   5.741  12.073  0.0372 -0.0640  0.0527
 1231W        W 4750   9.027   5.298   3.182 -0.5762 -0.2357  0.0495
 1232W        W 4751   4.919   8.048   2.077 -0.1803  0.1984 -0.0006
 1233W        W 4752   6.815   4.374   2.063 -0.0584 -0.2965  0.3932
 1234W        W 4753   3.076   4.450  12.165 -0.0179 -0.1339  0.2733
 1235W        W 4754   0.612   6.972   0.795 -0.2928 -0.0499 -0.1667
 1236W        W 4755   7.905   6.790   8.378 -0.0083  0.1795 -0.0255
 1237W        W 4756   3.218   1.623   4.522  0.1654  0.1891 -0.0476
 1238W        W 4757   0.996   8.399   3.265 -0.2123 -0.1049  0.0108
 1239W        W 4758   8.365   2.053   9.187 -0.1066  0.1108 -0.0356
 1240W        W 4759   8.160   6.743   0.906 -0.0906  0.0441  0.0692
 1241W        W 4760   0.624   7.460  11.949  0.1144  0.0346 -0.0434
 1242W        W 4761   6.653   8.274   0.279  0.1555  0.0339  0.1378
 1243W        W 4762   2.706   4.184   0.900  0.1417  0.3894 -0.1223
 1244W        W 4763   0.591   6.018   4.188 -0.0623 -0.0630 -0.1862
 1245W        W 4764   8.310   6.787  10.519 -0.0086  0.1760  0.1076
 1246W        W 4765   0.323   5.434   1.333  0.1250 -0.3703  0.1741
 1247W        W 4766   3.285   7.608   3.343 -0.0089 -0.2281  0.1221
 1248W        W 4767   4.388   6.553   4.272 -0.0542  0.1026  0.3417
 1249W        W 4768   1.848   4.611  12.321 -0.5325  0.3477 -0.2458
 1250W        W 4769   6.431   8.357   4.130  0.1724 -0.2678 -0.2687
 1251W        W 4770   0.253   5.835   0.561  0.0619  0.1366  0.0792
 1252W        W 4771   3.580   7.924   9.642  0.2193  0.0142  0.0687
 1253W        W 4772   5.438   7.298  11.048  0.2286  0.1499 -0.0991
 1254W        W 4773   5.500   2.447  11.403  0.0090  0.1558  0.2263
 1255W        W 4774   4.716   3.577   2.683  0.2000 -0.0760  0.1984
 1256W        W 4775   0.056   7.797   4.582 -0.1693  0.0432 -0.1927
 1257W        W 4776   0.171   4.142  10.773 -0.0113  0.2856  0.0932
 1258W        W 4777   3.528   2.266   4.765 -0.2164 -0.0258 -0.0069
 1259W        W 4778   8.505   5.114   3.037  0.2227  0.1263  0.0287
 1260W        W 4779   6.769   9.513  12.180 -0.3090 -0.1959 -0.0449
 1261W        W 4780   2.491   7.874   1.500  0.0931  0.2865  0.1877
 1262W        W 4781   1.094   3.745   8.626 -0.0019  0.0746 -0.0116
 1263W        W 4782   2.076   8.373   9.937  0.0610 -0.0337 -0.0377
 1264W        W 4783   7.606   9.594   9.348 -0.4598 -0.3680 -0.1649
 1265W        W 4784   1.946   3.681   1.367  0.0180  0.1153 -0.2112
 1266W        W 4785   7.164   6.803   1.475  0.1937  0.1593 -0.1205
 1267W        W 4786   1.946   0.988   3.254 -0.2845 -0.0246 -0.2327
 1268W        W 4787   4.088   3.670   0.095 -0.0193 -0.1443 -0.2535
 1269W        W 4788   4.745   6.258   2.534 -0.2117  0.1953 -0.2629
 1270W        W 4789   8.430   6.144   3.012 -0.0447  0.0787  0.1139
 1271W        W 4790   4.128   7.380   8.586 -0.3789 -0.2580 -0.1032
 1272W        W 4791   5.161   2.932  11.474 -0.1081 -0.1554 -0.0389
 1273W        W 4792   5.153   6.517   2.715  0.0313 -0.2763 -0.0683
 1274W        W 4793   1.882   0.614   1.121 -0.0650 -0.0948  0.3083
 1275W        W 4794   9.076   2.710   1.661  0.1733  0.0682 -0.0493
 1276W        W 4795   8.195   5.800   9.569  0.1298 -0.0294 -0.3967
 1277W        W 4796   9.154   7.791   4.385  0.1756  0.0977  0.0315
 1278W        W 4797   8.113   0.676   3.453 -0.2910 -0.2688 -0.2295
 1279W        W 4798   4.189   8.264   4.510  0.1503  0.2594 -0.0033
 1280W        W 4799   5.625   1.651   9.100  0.0198 -0.0489  0.3137
 1281W        W 4800   6.568   6.237   4.563 -0.2410 -0.3446  0.0638
 1282W        W 4801   4.823   8.839   3.370 -0.3546 -0.1686  0.3111
 1283W        W 4802   8.739   0.216   2.683 -0.1773 -0.2675 -0.0286
 1284W        W 4803   8.431   1.116   2.597  0.0140 -0.1548 -0.3488
 1285W        W 4804   0.318   7.081   9.967 -0.2573 -0.0106 -0.0480
 1286W        W 4805   2.292   0.342   8.681 -0.0957 -0.1255 -0.2424
 1287W        W 4806   0.448   8.610   0.327  0.0182  0.0546  0.3063
 1288W        W 4807   0.100   0.143   3.319  0.0778 -0.2110  0.1579
 1289W        W 4808   6.355   6.629   8.405 -0.0209  0.0605  0.0240
 1290W        W 4809   4.110   2.261   3.563 -0.0943  0.2824 -0.2186
 1291W        W 4810   9.002   1.581  10.012 -0.0297  0.1195 -0.1705
 1292W        W 4811   1.300   4.578   2.930  0.2589 -0.0550  0.1200
 1293W        W 4812   9.430   5.249   9.435  0.2284 -0.2316  0.1335
 1294W        W 4813   3.655   2.241  12.579 -0.0794  0.2461  0.2487
 1295W        W 4814   8.882   0.021   9.860  0.5794 -0.1824  0.1522
 1296W        W 4815   1.266   0.994   9.827 -0.1728 -0.0793  0.5696
 1297W        W 4816   9.298   9.578   9.630 -0.1485 -0.1698  0.3988
 1298W        W 4817   3.557   5.855   0.701 -0.0353  0.2679  0.1323
 1299W        W 4818   8.978   7.507   4.018  0.0604 -0.1516  0.4128
 1300W        W 4819   0.484   1.560   8.626  0.1779 -0.2099 -0.0715
 1301W        W 4820   2.034   2.577   0.330  0.1926  0.6595  0.3026
 1302W        W 4821   3.581   6.734  12.000 -0.1951 -0.0442 -0.3854
 1303W        W 4822   4.757   7.560   0.604  0.2645  0.1198  0.0494
 1304W        W 4823   7.051   5.681   1.182 -0.0961  0.2557  0.4208
 1305W        W 4824   1.019   4.623   3.619  0.2659 -0.2815 -0.2427
 1306W        W 4825   1.821   2.399   0.977 -0.0724 -0.0272 -0.0038
 1307W        W 4826   2.902   1.397   2.263 -0.3729  0.0473 -0.0329
 1308W        W 4827   5.982   3.218   9.071  0.0118 -0.1112  0.1033
 1309W        W 4828   1.860   8.403   1.064  0.2440 -0.0814  0.1984
 1310W        W 4829   8.745   6.580  11.278  0.1562 -0.1795  0.0987
 1311W        W 4830   5.387   5.441  12.258 -0.0105 -0.1404 -0.0771
 1312W        W 4831   2.133   7.306  10.618  0.1214  0.1869 -0.1261
 1313W        W 4832   3.337   4.844   2.221 -0.1624 -0.1377  0.2903
 1314W        W 4833   5.915   8.131   0.842 -0.3629 -0.1016  0.0061
 1315W        W 4834   2.787   0.753   2.818 -0.1863  0.0994 -0.0857
 1316W        W 4835   8.355   2.324   1.998  0.4968 -0.3790  0.1762
 1317W        W 4836   0.718   5.956   5.136  0.0899 -0.0272 -0.0763
 1318W        W 4837   4.847   6.937   1.812 -0.2648  0.0407 -0.3022
 1319W        W 4838   2.317   7.782   8.919 -0.0366  0.1099  0.3522
 1320W        W 4839   2.841   2.167   8.937  0.1660  0.0163  0.2221
 1321W        W 4840   3.666   5.298  10.292 -0.3679 -0.2202 -0.0016
 1322W        W 4841   3.110   9.610   9.745 -0.0765 -0.1178  0.0717
 1323W        W 4842   7.631   5.200   9.717 -0.1218 -0.1534 -0.0381
 1324W        W 4843   9.626   4.132   9.096 -0.4451 -0.0284 -0.1242
 1325W        W 4844   7.753   1.002  11.091  0.0525  0.3162 -0.0409
 1326W        W 4845   8.807   4.438   2.227 -0.1825 -0.1787  0.0630
 1327W        W 4846   1.429   3.751  11.074  0.1642  0.0919  0.0246
 1328W        W 4847   3.167   0.143   0.491  0.2099 -0.1754 -0.1509
 1329W        W 4848   5.969   3.747   0.806 -0.1413 -0.1746 -0.2873
 1330W        W 4849   5.026   0.792   9.861  0.2388  0.1232  0.1769
 1331W        W 4850   7.213   0.452   9.035 -0.1025 -0.1713 -0.3331
 1332W        W 4851   4.257   8.181   0.194  0.0841  0.1088 -0.1285
 1333W        W 4852   5.555   6.466   2.040 -0.0518 -0.3211  0.0722
 1334W        W 4853   2.651   3.628  10.333  0.1196 -0.0291  0.0746
 1335W        W 4854   4.615   3.519   1.670  0.1802 -0.1236  0.0519
 1336W        W 4855   9.537   3.602  10.493  0.3131  0.0306 -0.0222
 1337W        W 4856   3.191   0.323   5.091 -0.3926 -0.0110  0.3181
 1338W        W 4857   0.770   8.509   8.515 -0.1206 -0.0955 -0.2971
 1339W        W 4858   5.182   9.304  12.552 -0.1429 -0.2284 -0.1036
 1340W        W 4859   1.360   4.558   0.726 -0.0042 -0.1483 -0.0541
 1341W        W 4860   1.139   7.250   9.652  0.0102  0.0909 -0.0834
 1342W        W 4861   0.752   6.440  10.451 -0.1227 -0.1902  0.3572
 1343W        W 4862   4.674   4.045   2.406  0.1366 -0.1895  0.0266
 1344W        W 4863   2.223   8.068  12.312  0.2649  0.1097 -0.2104
 1345W        W 4864   3.047   1.425   9.651 -0.1737 -0.0268 -0.2179
 1346W        W 4865   7.565   2.663   9.520  0.0836 -0.2276  0.1448
 1347W        W 4866   7.011   8.179  11.051  0.0713 -0.1174  0.0049
 1348W        W 4867   9.660   5.144   0.942 -0.0838 -0.1336 -0.1062
 1349W        W 4868   3.305   1.868   8.884 -0.0197 -0.0148 -0.1750
 1350W        W 4869   0.866   5.926  12.026  0.3911  0.1862 -0.2978
 1351W        W 4870   4.819   0.649   0.381 -0.0217  0.2069  0.1496
 1352W        W 4871   4.036   9.424   9.329  0.1121  0.0164 -0.3703
 1353W        W 4872   4.253   0.877   8.734 -0.0607  0.2706 -0.0336
 1354W        W 4873   7.906   2.220  10.125 -0.1171 -0.2896  0.1378
 1355W        W 4874   9.347   2.376   0.766 -0.1904 -0.3466 -0.1054
 1356W        W 4875   1.030   6.392   4.178  0.0692  0.1391 -0.1025
 1357W        W 4876   6.118   8.642   9.874 -0.1555 -0.1164  0.1562
 1358W        W 4877   6.807   1.155  10.943  0.0900 -0.3474  0.1473
 1359W        W 4878   4.648   5.900   0.183 -0.1810  0.0463  0.1387
 1360W        W 4879   0.643   5.344   1.741 -0.2869  0.1653 -0.1137
 1361W        W 4880   4.282   2.435   2.569  0.2834 -0.2966 -0.0897
 1362W        W 4881   6.340   7.996   0.001  0.0567 -0.1162  0.0426
 1363W        W 4882   0.623   1.472   1.015  0.0795 -0.3952 -0.1532
 1364W        W 4883   8.786   1.259  12.567  0.0721 -0.0233 -0.0291
 1365W        W 4884   4.175   5.144  12.547  0.1113  0.2980 -0.0729
 1366W        W 4885   7.982   6.078  12.106  0.0876  0.0591 -0.3024
 1367W        W 4886   2.727   5.648   4.668 -0.0523 -0.1541 -0.1697
 1368W        W 4887   1.651   0.319  11.205 -0.0951 -0.1213  0.1048
 1369W        W 4888   9.412   1.353  10.242  0.2344  0.2220  0.0086
 1370W        W 4889   0.051   8.310   0.597  0.0141  0.0525 -0.0173
 1371W        W 4890   1.565   8.108  11.591 -0.1714 -0.3157 -0.0520
 1372W        W 4891   5.244   8.070   4.174  0.1333 -0.2393  0.0990
 1373W        W 4892   0.383   8.055   0.929 -0.1676 -0.1301 -0.2428
 1374W        W 4893   3.410   3.506   3.539 -0.2250 -0.1338  0.1383
 1375W        W 4894   8.105   7.559   9.412 -0.1777  0.0895 -0.1830
 1376W        W 4895   7.434   5.995  11.988 -0.2409 -0.1699 -0.0604
 1377W        W 4896   6.880   2.597   1.775  0.2678  0.2264  0.1981
 1378W        W 4897   2.111   1.954   2.064 -0.1024 -0.1081  0.0929
 1379W        W 4898   5.720   7.682   2.327 -0.4242 -0.1840  0.0112
 1380W        W 4899   6.405   0.745   8.634 -0.1131  0.0397  0.3895
 1381W        W 4900   5.355   6.102   4.525  0.0760 -0.0890  0.2257
 1382W        W 4901   6.643   0.693  10.836 -0.0717 -0.0191  0.1355
 1383W        W 4902   9.212   2.919  10.066 -0.0692  0.0175 -0.1449
 1384W        W 4903   3.184   5.456   3.814 -0.4390  0.1747  0.2756
 1385W        W 4904   4.736   0.281   0.013 -0.0958 -0.2701 -0.1695
 1386W        W 4905   1.515   2.781  11.101  0.1544  0.1235  0.0012
 1387W        W 4906   4.476   4.643   1.906 -0.0679  0.4459 -0.2860
 1388W        W 4907   6.829   7.456   8.711 -0.0750 -0.0791 -0.2856
 1389W        W 4908   6.161   5.759   3.209  0.1146  0.1133 -0.1300
 1390W        W 4909   4.569   3.570   1.060  0.1934 -0.0415  0.1345
 1391W        W 4910   3.418   4.945  11.220  0.0485 -0.0439 -0.1076
 1392W        W 4911   3.662   6.745   2.688 -0.2665  0.0430 -0.2028
 1393W        W 4912   1.435   4.948  10.825  0.0165  0.0718  0.0165
 1394W        W 4913   0.799   8.909   3.938 -0.0835  0.1180  0.1486
 1395W        W 4914   5.216   0.531   8.963  0.0396  0.2022 -0.0405
 1396W        W 4915   8.236   8.610   0.089  0.2355  0.0501 -0.0609
 1397W        W 4916   5.749   8.894  11.056  0.0737 -0.0714 -0.0210
 1398W        W 4917   5.279   1.250   1.288  0.0142  0.1166 -0.0853
 1399W        W 4918   5.642   4.950   9.147 -0.1675 -0.0096  0.1730
 1400W        W 4919   7.211   2.086  10.210  0.2141  0.0465 -0.0460
 1401W        W 4920   2.971   3.573   3.234 -0.1247 -0.1286 -0.2937
 1402W        W 4921   0.257   7.710   1.286 -0.0639  0.2332 -0.2149
 1403W        W 4922   6.081   0.458  10.864  0.3665  0.3046 -0.3055
 1404W        W 4923   0.147   9.278  10.705 -0.0999  0.0193 -0.1625
 1405W        W 4924   6.144   0.973   9.874 -0.0990  0.0514  0.1776
 1406W        W 4925   9.397   2.710   0.042  0.2331 -0.1701  0.3590
 1407W        W 4926   8.168   6.288   9.612  0.0036  0.2591  0.1769
 1408W        W 4927   9.252   0.885   9.319 -0.1866 -0.0135  0.2681
 1409W        W 4928   9.182   8.577   2.770 -0.0305  0.0308  0.1354
 1410W        W 4929   2.114   8.645  11.444 -0.3066 -0.2194  0.2865
 1411W        W 4930   0.496   2.473   1.289  0.1194  0.4430  0.1750
 1412W        W 4931   1.088   5.497   0.917  0.1820  0.1799  0.3196
 1413W        W 4932   4.853   5.394   9.445 -0.2016 -0.0728 -0.0798
 1414W        W 4933   0.192   0.108  10.698 -0.0897 -0.2356  0.1350
 1415W        W 4934   8.874   8.815   8.242  0.2776  0.0462  0.1740
 1416W        W 4935   3.247   5.319   2.051 -0.0838  0.0865  0.0265
 1417W        W 4936   0.953   4.168   8.248 -0.0669  0.2275  0.1477
 1418W        W 4937   7.142   6.540   9.023 -0.1221 -0.4283 -0.1835
 1419W        W 4938   1.664   0.267   2.654 -0.0009 -0.1719 -0.1815
 1420W        W 4939   7.510   8.190   8.818 -0.2761 -0.3932  0.0226
 1421W        W 4940   7.422   9.199   4.050  0.2896  0.1108 -0.1730
 1422W        W 4941   2.541   2.199   4.499 -0.0424 -0.0428  0.1681
 1423W        W 4942   5.840   3.497  10.141 -0.0900  0.2893  0.1509
 1424W        W 4943   5.535   0.353   1.367  0.4662  0.0113  0.0253
 1425W        W 4944   0.653   0.259   1.582  0.1771  0.2834  0.1554
 1426W        W 4945   0.538   7.761   9.285  0.1529  0.1169  0.0147
 1427W        W 4946   1.377   1.663  11.966 -0.0562 -0.0619  0.0123
 1428W        W 4947   9.408   6.479   2.189 -0.3888  0.3316 -0.0419
 1429W        W 4948   7.485   9.440  11.484 -0.0285 -0.0248  0.0712
 1430W        W 4949   4.164   7.555  12.181 -0.2296  0.0103  0.4506
 1431W        W 4950   4.557   4.426   1.144  0.0289 -0.1546  0.0520
 1432W        W 4951   3.778   0.692   3.925  0.1308  0.0971 -0.0910
 1433W        W 4952   5.961   9.043   1.947 -0.0549  0.4005  0.1066
 1434W        W 4953   9.235   1.854   1.960  0.0901  0.0900 -0.3101
 1435W        W 4954   6.109   4.694   2.348  0.0742 -0.0829 -0.0319
 1436W        W 4955   3.868   7.642  10.056 -0.0736 -0.0321  0.2113
 1437W        W 4956   2.046   3.667   4.630 -0.0571  0.1912  0.1004
 1438W        W 4957   6.036   6.522  12.437 -0.2835  0.3952  0.0186
 1439W        W 4958   4.738   7.933   3.442  0.1518 -0.0997 -0.3504
 1440W        W 4959   9.504   1.011   2.355 -0.2621  0.2171  0.0225
 1441W        W 4960   5.263   3.810  11.907  0.3299 -0.1391  0.1430
 1442W        W 4961   1.997   8.287  11.787  0.2106  0.1325  0.0910
 1443W        W 4962   9.293   7.081   1.736  0.0594  0.1461 -0.0824
 1444W        W 4963   7.819   4.368   0.268  0.2217  0.0039 -0.2127
 1445W        W 4964   5.564   8.003  11.436 -0.0024 -0.0715 -0.1136
 1446W        W 4965   4.249   6.584   3.527  0.1814  0.2153  0.1594
 1447W        W 4966   2.597   3.276   3.062 -0.1871  0.3160  0.2482
 1448W        W 4967   7.972   8.143  11.749  0.0037 -0.3223 -0.0760
 1449W        W 4968   6.024   2.468   1.677  0.0569 -0.0189  0.0737
 1450W        W 4969   5.916   7.299  12.220 -0.0843 -0.0595  0.3070
 1451W        W 4970   3.847   3.025   0.738 -0.0418  0.1269  0.1454
 1452W        W 4971   7.632   1.787  12.579 -0.0590 -0.0379 -0.2621
 1453W        W 4972   7.918   6.391  12.462 -0.0417 -0.2145 -0.2142
 1454W        W 4973   2.768   0.558   2.131  0.2756 -0.2873 -0.3681
 1455W        W 4974   1.708   8.113   9.665 -0.1072 -0.0706 -0.2617
 1456W        W 4975   3.148   2.766  10.552  0.0763 -0.1576 -0.3024
 1457W        W 4976   3.769   1.180   9.248  0.0219 -0.2324 -0.0305
 1458W        W 4977   6.392   5.557   9.771 -0.0973 -0.3400 -0.2251
 1459W        W 4978   1.350   1.512   2.091 -0.1010 -0.2003  0.1528
 1460W        W 4979   3.639   3.157  11.482 -0.0811 -0.3367  0.0636
 1461W        W 4980   6.690   8.494  10.753 -0.0700  0.1541  0.1544
 1462W        W 4981   4.084   5.056  11.715 -0.0039 -0.2116 -0.1231
 1463W        W 4982   6.439   2.247  10.546  0.0654  0.1025 -0.3460
 1464W        W 4983   2.392   3.378  10.740 -0.1708 -0.2404 -0.3065
 1465W        W 4984   0.286   2.533   1.977 -0.1889 -0.2860  0.2733
 1466W        W 4985   6.109   9.333   9.219 -0.0034  0.1106 -0.0126
 1467W        W 4986   1.649   3.836   3.108  0.0137 -0.3116  0.1047
 1468W        W 4987   3.696   9.133   9.062  0.0211 -0.1383 -0.3552
 1469W        W 4988   4.815   3.095  12.161  0.2301  0.2149  0.0238
 1470W        W 4989   9.630   4.720   1.263 -0.0389 -0.0514 -0.0115
 1471W        W 4990   9.007   4.456   2.743  0.1487  0.1707  0.0691
 1472W        W 4991   5.556   7.443   4.874 -0.0643 -0.1704  0.2184
 1473W        W 4992   3.396   8.705   2.739  0.2252 -0.0224 -0.1372
 1474W        W 4993   0.608   9.067   2.160 -0.1196  0.1361  0.2706
 1475W        W 4994   2.045   3.779   8.904  0.2513  0.4397  0.1305
 1476W        W 4995   5.167   2.070   1.584 -0.1334  0.2044 -0.0707
 1477W        W 4996   8.615   0.760   4.167 -0.0537 -0.2729 -0.1934
 1478W        W 4997   3.262   9.046   9.871 -0.1343  0.1733  0.1764
 1479W        W 4998   7.765   4.961   1.401  0.1859  0.2396  0.0796
 1480W        W 4999   5.188   3.029   1.515 -0.0881  0.2354 -0.2565
 1481W        W 5000   7.903   0.794  12.517 -0.1907 -0.1473  0.1976
 1482W        W 5001   1.973   3.844   0.785  0.1968  0.0883  0.0979
 1483W        W 5002   9.463   5.329   2.923 -0.0190  0.1096  0.2929
 1484W        W 5003   0.430   0.308  10.003 -0.1340 -0.1074  0.0284
 1485W        W 5004   3.470   5.216   2.702  0.1057 -0.1695 -0.0974
 1486W        W 5005   5.143   3.402   0.798 -0.0769  0.0871  0.3215
 1487W        W 5006   6.925   6.157  10.069 -0.1614  0.0981  0.1778
 1488W        W 5007   4.164   6.686   2.645 -0.3764  0.2051  0.0252
 1489W        W 5008   3.348   8.285   0.595  0.0090 -0.1008 -0.1075
 1490W        W 5009   1.371   6.677   0.508 -0.3668  0.0904 -0.0726
 1491W        W 5010   1.518   7.458   1.513 -0.2882 -0.3461 -0.1036
 1492W        W 5011   5.384   6.858  10.685 -0.0123 -0.0520 -0.0700
 1493W        W 5012   1.140   9.576   1.056 -0.0633 -0.0331 -0.2685
 1494W        W 5013   0.016   7.269   3.967  0.0986 -0.1478  0.1364
 1495W        W 5014   6.625   5.946   1.002 -0.0294 -0.1012 -0.2326
 1496W        W 5015   9.422   0.754  11.193  0.1703  0.1226 -0.3214
 1497W        W 5016   0.988   0.497  12.461  0.0666  0.0955  0.0187
 1498W        W 5017   9.267   8.184   2.379  0.0233  0.1136  0.0117
 1499W        W 5018   1.747   8.174  10.214  0.0474  0.0091 -0.0142
 1500W        W 5019   1.344   8.820  10.931  0.1356 -0.2854 -0.2560
 1501W        W 5020   9.235   2.250   0.299  0.5307 -0.4830  0.2304
 1502W        W 5021   8.929   5.127   9.602 -0.0749  0.2230  0.1473
 1503W        W 5022   0.800   4.701   1.392 -0.0838 -0.0790 -0.0259
 1504W        W 5023   2.954   8.089   3.343  0.2211  0.0957 -0.1838
 1505W        W 5024   0.404   4.556   9.335  0.1205  0.0041  0.0182
 1506W        W 5025   7.934   6.071  10.975  0.3487  0.1652 -0.2322
 1507W        W 5026   3.008   6.858  10.362 -0.1023  0.1336  0.0305
 1508W        W 5027   3.961   2.375   1.690 -0.1145  0.2648 -0.2519
 1509W        W 5028   8.283   0.406  12.555 -0.1285  0.0623 -0.3244
 1510W        W 5029   0.524   2.888  11.054  0.0946  0.0508  0.1445
 1511W        W 5030   8.017   2.392  10.619 -0.1503  0.2468 -0.2017
 1512W        W 5031   1.841   5.938  11.843  0.0527  0.1572 -0.0238
 1513W        W 5032   1.370   5.816   4.595  0.1549 -0.0327  0.0537
 1514W        W 5033   6.943   3.258   3.031 -0.3749 -0.0551 -0.0482
 1515W        W 5034   9.461   1.527  11.170 -0.0411  0.2639 -0.1163
 1516W        W 5035   3.592   2.196   1.299 -0.2581 -0.1188 -0.0506
 1517W        W 5036   1.514   8.574   2.500 -0.3024 -0.0196 -0.3105
 1518W        W 5037   5.764   8.999  11.657  0.0550  0.2164  0.0920
 1519W        W 5038   9.125   3.134   3.126 -0.1565 -0.0693  0.1775
 1520W        W 5039   6.185   6.168   1.209  0.0280  0.0384  0.2883
 1521W        W 5040   3.494   3.478   4.982  0.0232 -0.1825  0.0259
 1522W        W 5041   8.397   1.898   1.612 -0.0456  0.0821  0.4043
 1523W        W 5042   2.729   5.256   4.302  0.1722  0.1509  0.0355
 1524W        W 5043   0.568   6.569   3.720  0.0010  0.2314  0.2642
 1525W        W 5044   4.115   5.141   3.924  0.2474 -0.0861  0.1843
 1526W        W 5045   3.039   6.776  12.047  0.0250 -0.2130  0.1479
 1527W        W 5046   3.002   9.605  10.568 -0.2354 -0.3179 -0.0434
 1528W        W 5047   0.443   7.521  10.171  0.0914 -0.2101  0.2150
 1529W        W 5048   5.300   0.123   8.621 -0.1771 -0.2879 -0.1534
 1530W        W 5049   3.018   3.254  10.139 -0.1394  0.2309 -0.2125
 1531W        W 5050   8.593   0.785   1.383 -0.0409  0.1813  0.1243
 1532W        W 5051   2.278   0.922   0.793 -0.1014 -0.0372  0.2837
 1533W        W 5052   1.589   5.202  11.238 -0.0266  0.1842  0.1491
 1534W        W 5053   1.135   5.197   0.179 -0.4118  0.0332 -0.1514
 1535W        W 5054   2.828   5.055  10.693 -0.1865 -0.2533 -0.1943
 1536W        W 5055   6.994   1.616   3.130 -0.1061  0.2768 -0.2024
 1537W        W 5056   2.363   4.169   2.643  0.1526 -0.1186  0.3801
 1538W        W 5057   0.408   4.735   9.783  0.4279 -0.1437  0.1155
 1539W        W 5058   5.384   4.203   0.165  0.3748 -0.1059 -0.1892
 1540W        W 5059   6.441   3.392   2.117 -0.2420 -0.3855 -0.0218
 1541W        W 5060   5.868   5.962   0.900  0.2504  0.0896  0.0595
 1542W        W 5061   7.613   1.404  11.372  0.1738 -0.4119  0.1305
 1543W        W 5062   1.739   3.186   0.180 -0.1373  0.0484 -0.1763
 1544W        W 5063   2.975   1.491   0.486 -0.0721 -0.0261  0.2020
 1545W        W 5064   5.283   0.475   0.286  0.0011 -0.2096 -0.1164
 1546W        W 5065   6.305   9.472   3.605 -0.4250 -0.4441 -0.1473
 1547W        W 5066   2.377   7.035   3.691  0.2936 -0.0411 -0.2078
 1548W        W 5067   6.507   1.498  11.295  0.0939  0.0554  0.0045
 1549W        W 5068   2.747   9.030   4.076  0.0743  0.1029  0.0542
 1550W        W 5069   7.455   3.395   1.775 -0.0466  0.1097  0.0133
 1551W        W 5070   7.348   1.243   1.133  0.3201 -0.1608 -0.0218
 1552W        W 5071   9.554   6.056  10.982 -0.1362 -0.1791  0.1569
 1553W        W 5072   4.269   2.499   3.159 -0.2876  0.1409  0.6235
 1554W        W 5073   4.587   0.141  10.610  0.0709 -0.2324 -0.1168
 1555W        W 5074   1.492   5.140  10.226 -0.3070  0.0689 -0.0503
 1556W        W 5075   3.316   3.903   1.256 -0.0811 -0.0587  0.2717
 1557W        W 5076   4.220   8.190  11.448 -0.1381 -0.1042 -0.0201
 1558W        W 5077   7.018   5.645   9.166  0.1716  0.0730 -0.2110
 1559W        W 5078   4.270   2.115  10.704  0.5330 -0.1302 -0.2918
 1560W        W 5079   4.337   3.753  12.280  0.3934  0.1667 -0.0347
 1561W        W 5080   8.553   3.358  11.666  0.0875  0.2219  0.3922
 1562W        W 5081   4.857   9.030   1.353 -0.1653 -0.0674  0.1270
 1563W        W 5082   1.881   0.115   8.285  0.1831 -0.1904 -0.1245
 1564W        W 5083   7.699   4.437   3.165 -0.2000 -0.1071 -0.1249
 1565W        W 5084   4.742   7.704  10.638 -0.0040 -0.0699  0.5132
 1566W        W 5085   3.973   8.098  10.525  0.3655  0.2347 -0.1474
 1567W        W 5086   7.852   5.575  11.049  0.0158 -0.2987 -0.3200
 1568W        W 5087   1.662   9.021   1.651  0.3745 -0.3438  0.2109
 1569W        W 5088   7.757   7.361   2.170 -0.3289  0.1752  0.1498
 1570W        W 5089   0.403   7.730  11.041 -0.0327  0.0987  0.1045
 1571W        W 5090   1.431   8.706   0.488  0.2875 -0.2472  0.0889
 1572W        W 5091   2.912   7.878   9.007  0.0611  0.2401  0.1085
 1573W        W 5092   3.301   4.460   9.439 -0.2196  0.6630 -0.0811
 1574W        W 5093   3.654   8.279   2.032  0.1381  0.1206  0.0840
 1575W        W 5094   9.629   6.079   9.120  0.0941 -0.0256  0.0843
 1576W        W 5095   2.089   2.967   0.599 -0.1027 -0.2026  0.2551
 1577W        W 5096   7.266   7.523   9.927 -0.3446  0.1265 -0.4324
 1578W        W 5097   4.704   6.568   3.324  0.1149  0.2812  0.0779
 1579W        W 5098   0.079   8.285  10.932 -0.1436 -0.0964  0.0484
 1580W        W 5099   2.286   6.665  12.464 -0.2886 -0.1219  0.1560
 1581W        W 5100   8.677   1.083   8.517  0.2219 -0.2614 -0.1888
 1582W        W 5101   9.230   9.103   2.809  0.0683  0.2029  0.0430
 1583W        W 5102   4.914   1.390  11.996 -0.2792 -0.1129  0.0130
 1584W        W 5103   4.912   1.688  11.568 -0.3837  0.1178 -0.2968
 1585W        W 5104   5.820   7.193   3.855  0.2996  0.1370 -0.0825
 1586W        W 5105   3.234   4.272   0.112 -0.2139 -0.1597 -0.0294
 1587W        W 5106   7.809   1.041   0.835  0.2107 -0.3228 -0.1320
 1588W        W 5107   7.444   0.954   2.969  0.1613 -0.1618  0.2655
 1589W        W 5108   2.599   0.802   0.455 -0.1678  0.0013 -0.1204
 1590W        W 5109   8.605   4.749   9.763  0.0779 -0.1593 -0.1624
 1591W        W 5110   9.456   2.161   2.435 -0.1895 -0.3340  0.0810
 1592W        W 5111   3.691   8.969  12.583  0.0435  0.1579  0.1095
 1593W        W 5112   7.099   9.229   2.308  0.0119  0.4124  0.0813
 1594W        W 5113   5.582   0.278   9.551 -0.2929 -0.2566 -0.0914
 1595W        W 5114   0.616   8.217   8.978 -0.1379  0.0755  0.0882
 1596W        W 5115   1.408   5.782  10.879  0.0156  0.0437  0.3769
 1597W        W 5116   6.202   7.927   8.485  0.3488  0.0749  0.2243
 1598W        W 5117   3.819   7.957   9.047  0.1064 -0.2434 -0.2169
 1599W        W 5118   1.359   5.276   4.590 -0.2345 -0.0505 -0.0946
 1600W        W 5119   3.538   8.729  11.011  0.0448 -0.0674 -0.0928
 1601W        W 5120   5.271   1.064   0.176 -0.1126 -0.1076  0.4320
 1602W        W 5121   5.659   6.894  12.405  0.0018 -0.2337 -0.1483
 1603W        W 5122   4.520   3.021   8.415  0.1896 -0.3192 -0.1312
 1604W        W 5123   8.725   9.106   8.788 -0.0886  0.0820  0.0097
 1605W        W 5124   1.935   5.654   1.186 -0.0768  0.0706 -0.0502
 1606W        W 5125   3.119   9.112  10.732  0.1657  0.3103  0.0226
 1607W        W 5126   0.883   1.239   1.377 -0.0896  0.2519  0.0520
 1608W        W 5127   0.214   0.139  11.652  0.0120 -0.0619 -0.3113
 1609W        W 5128   7.644   3.537  10.109  0.1270  0.0212  0.2078
 1610W        W 5129   7.604   3.924   2.428 -0.4034  0.1338 -0.0989
 1611W        W 5130   7.106   5.060   3.294 -0.3364 -0.1517  0.2049
 1612W        W 5131   6.710   2.816  12.106 -0.1418  0.1015 -0.0956
 1613W        W 5132   7.250   4.904   8.735  0.1104  0.0304 -0.0733
 1614W        W 5133   5.868   1.847   2.618  0.4259 -0.0713 -0.2377
 1615W        W 5134   9.320   9.490   1.863  0.1075 -0.0491 -0.0968
 1616W        W 5135   3.127   9.190   0.950  0.0146 -0.2426 -0.0697
 1617W        W 5136   7.070   4.125  11.845  0.2098 -0.1311 -0.0063
 1618W        W 5137   1.792   9.294   2.049 -0.0446  0.2662 -0.1057
 1619W        W 5138   8.629   0.789   0.351  0.1354 -0.1591  0.0150
 1620W        W 5139   8.747   7.124   2.394  0.0072 -0.0160  0.0760
 1621W        W 5140   9.528   6.906   3.583  0.0773 -0.1833  0.1647
 1622W        W 5141   3.408   8.176   9.241  0.1981  0.1681 -0.1115
 1623W        W 5142   0.512   7.200   3.089 -0.2947 -0.0140 -0.2260
 1624W        W 5143   5.418   0.095   3.585  0.0841  0.0343 -0.3036
 1625W        W 5144   8.351   4.113  11.082  0.0148  0.0429 -0.1411
 1626W        W 5145   3.921   9.028   2.129 -0.1338 -0.2978 -0.1245
 1627W        W 5146   0.470   2.458   0.781  0.1867  0.0575  0.0051
 1628W        W 5147   7.318   6.231  11.090 -0.1548 -0.0363 -0.0207
 1629W        W 5148   2.201   1.654   9.121 -0.0870  0.1951  0.0757
 1630W        W 5149   0.984   2.518   8.785  0.3067  0.1007 -0.0384
 1631W        W 5150   0.803   9.064  10.038  0.5610 -0.0190  0.2443
 1632W        W 5151   6.636   7.053  10.492 -0.1455  0.2359  0.2290
 1633W        W 5152   2.490   3.184   1.863  0.0897 -0.3131 -0.1089
 1634W        W 5153   5.158   0.970   2.575 -0.3576 -0.0757 -0.2658
 1635W        W 5154   9.176   9.531   3.840 -0.0745  0.0148 -0.0993
 1636W        W 5155   7.405   8.181   3.145 -0.0115 -0.0898  0.0790
 1637W        W 5156   6.193   5.767   2.060  0.2197 -0.0168  0.0820
 1638W        W 5157   6.385   7.047   0.594  0.1865  0.1499  0.0108
 1639W        W 5158   5.313   2.142   9.813  0.2051  0.0654  0.0244
 1640W        W 5159   7.724   9.266   0.354  0.1787  0.0073  0.0724
 1641W        W 5160   0.426   8.581   9.209 -0.2245  0.1782  0.1356
 1642W        W 5161   7.049   0.480  12.479  0.2304 -0.0210  0.4628
 1643W        W 5162   8.038   3.980   0.020  0.1665 -0.1631  0.0071
 1644W        W 5163   1.149   2.735  11.520  0.2551 -0.1838  0.0530
 1645W        W 5164   7.778   2.840  11.288  0.0346 -0.0684 -0.3113
 1646W        W 5165   6.208   8.476  10.973 -0.0347  0.0144 -0.0665
 1647W        W 5166   7.209   7.289   1.654  0.3001 -0.0603  0.4651
 1648W        W 5167   5.381   6.120   9.054  0.2069  0.0010 -0.0574
 1649W        W 5168   5.759   9.100   0.757 -0.1544  0.0772 -0.0283
 1650W        W 5169   4.491   7.767   1.334 -0.0309 -0.0061 -0.1894
 1651W        W 5170   0.383   8.678  11.032 -0.2662 -0.3432  0.1345
 1652W        W 5171   7.327   0.942  12.576 -0.0411  0.1106  0.2111
 1653W        W 5172   4.212   2.834  12.103 -0.0043 -0.0116 -0.1263
 1654W        W 5173   3.388   9.349   1.408 -0.1299  0.2759  0.1651
 1655W        W 5174   5.910   1.027   1.925 -0.1770  0.1814 -0.1062
 1656W        W 5175   9.499   2.399  10.909 -0.1634 -0.1553  0.3413
 1657W        W 5176   7.614   0.425   1.756 -0.0610 -0.2768  0.1427
 1658W        W 5177   9.388   3.119   0.336  0.0422  0.1650  0.2708
 1659W        W 5178   9.242   3.624  12.216  0.2606 -0.1662  0.0199
 1660W        W 5179   8.132   4.723   9.872 -0.0099 -0.5573 -0.2065
 1661W        W 5180   6.736   2.818   2.221  0.1634  0.2169  0.1876
 1662W        W 5181   3.998   5.060  10.521 -0.1483  0.2038 -0.1571
 1663W        W 5182   1.115   3.998   1.035 -0.0171  0.2953 -0.0266
 1664W        W 5183   1.287   0.490   1.961  0.1458  0.3298  0.0802
 1665W        W 5184   2.125   0.969   0.309 -0.0022  0.0649  0.1027
 1666W        W 5185   4.829   3.572   2.134 -0.1047 -0.1079  0.1219
 1667W        W 5186   2.878   8.674   2.695  0.3162 -0.0851  0.1616
 1668W        W 5187   4.141   0.197   2.550 -0.0634 -0.1351 -0.0984
 1669W        W 5188   8.582   0.434   3.113 -0.0805  0.1862  0.1056
 1670W        W 5189   1.620   7.118  12.466 -0.1583 -0.3379  0.0285
 1671W        W 5190   0.156   5.790   4.222  0.0154  0.0830 -0.0414
 1672W        W 5191   1.269   2.837   1.611 -0.0524 -0.2218  0.0066
 1673W        W 5192   9.169   1.749   2.544  0.1279  0.1513 -0.0837
 1674W        W 5193   5.754   2.403  10.027  0.1738 -0.2219  0.1020
 1675W        W 5194   4.875   4.786  12.131  0.4938  0.1489 -0.1819
 1676W        W 5195   1.748   1.612  10.481  0.2042 -0.3499  0.0825
 1677W        W 5196   5.169   7.854   0.370 -0.0337  0.0364  0.0087
 1678W        W 5197   6.509   2.506  11.360  0.0577 -0.3134  0.0765
 1679W        W 5198   2.765   0.418   4.232  0.3754 -0.0739  0.0713
 1680W        W 5199   6.704   0.581  11.727 -0.2188 -0.0963 -0.1779
 1681W        W 5200   5.963   7.098  11.740  0.3705 -0.0136  0.2794
 1682W        W 5201   7.793   8.636  11.718 -0.2392  0.3644  0.1229
 1683W        W 5202   7.875   3.897  11.407  0.0875 -0.3732  0.1452
 1684W        W 5203   2.087   5.015   1.828  0.0314 -0.2697  0.0889
 1685W        W 5204   4.353   0.739  10.489  0.2046 -0.1065  0.5312
 1686W        W 5205   8.073   8.561   9.889 -0.0773 -0.3332 -0.2265
 1687W        W 5206   8.635   1.365   1.519 -0.3053  0.2921  0.1609
 1688W        W 5207   5.423   4.790   0.801 -0.0042  0.2648 -0.1414
 1689W        W 5208   0.087   3.205   9.838  0.0439 -0.0939 -0.0416
 1690W        W 5209   9.026   3.817   1.460  0.2488  0.1951 -0.1264
 1691W        W 5210   1.965   2.723   8.840  0.2138  0.1450 -0.2569
 1692W        W 5211   3.660   4.183   4.321 -0.0900  0.1577 -0.0785
 1693W        W 5212   2.591   8.029   0.204  0.1946 -0.0204  0.2554
 1694W        W 5213   0.364   5.290  10.436  0.0492 -0.1892  0.0082
 1695W        W 5214   3.585   0.132  11.946 -0.3084 -0.2158 -0.0789
 1696W        W 5215   2.076   2.246   9.978 -0.1608  0.3363 -0.0064
 1697W        W 5216   0.873   1.187   3.866  0.0745  0.1408  0.1994
 1698W        W 5217   8.483   6.281   1.480 -0.2654  0.3842 -0.0218
 1699W        W 5218   5.854   7.698   3.165  0.0869  0.0109  0.0114
 1700W        W 5219   7.772   6.134   1.763  0.2029  0.1503 -0.1055
 1701W        W 5220   0.104   7.054   2.891 -0.0384 -0.0827 -0.1342
 1702W        W 5221   8.100   8.089   9.783  0.2742  0.0628 -0.1925
 1703W        W 5222   8.458   6.960  12.068 -0.0463  0.0975 -0.1608
 1704W        W 5223   0.334   5.985   2.674 -0.0767  0.0308  0.0843
 1705W        W 5224   2.973   4.793   4.419 -0.1649 -0.0180 -0.0757
 1706W        W 5225   0.417   9.523   0.203  0.1698  0.0761 -0.0246
 1707W        W 5226   1.671   3.206   4.055  0.0618 -0.1045 -0.0528
 1708W        W 5227   1.245   3.314   0.089 -0.0773  0.1329 -0.2458
 1709W        W 5228   5.465   7.507   0.065  0.1658  0.0061  0.1943
 1710W        W 5229   3.108   6.534   2.217 -0.0770 -0.0829  0.3285
 1711W        W 5230   7.747   5.166   0.466 -0.1450  0.4255  0.2055
 1712W        W 5231   2.656   3.083  10.453 -0.0372  0.3285  0.2911
 1713W        W 5232   6.186   6.671   1.451 -0.1353 -0.0442 -0.1003
 1714W        W 5233   2.414   3.803   0.045  0.1140  0.1572  0.2873
 1715W        W 5234   4.853   7.286  10.238  0.4681 -0.1943  0.0620
 1716W        W 5235   6.608   7.531   0.805 -0.0727  0.1340  0.1135
 1717W        W 5236   2.595   0.868   4.538  0.1072  0.0597 -0.1839
 1718W        W 5237   4.378   9.275   1.571 -0.3397  0.4914  0.3493
 1719W        W 5238   9.199   8.687  11.850 -0.0722  0.0646 -0.0417
 1720W        W 5239   7.500   7.430   0.535  0.0728  0.1937  0.0406
 1721W        W 5240   4.342   4.294   1.602  0.0392  0.2725 -0.2094
 1722W        W 5241   4.740   2.509   0.172  0.1271 -0.1363  0.2900
 1723W        W 5242   6.521   5.988   2.991  0.1128 -0.0058  0.0662
 1724W        W 5243   9.051   2.789   2.576 -0.3233 -0.2753  0.1149
 1725W        W 5244   5.958   1.283   1.275 -0.0165  0.0335 -0.0494
 1726W        W 5245   6.286   2.857   1.968 -0.1227  0.0340  0.3569
 1727W        W 5246   1.829   3.778   4.047  0.2131  0.0080  0.1250
 1728W        W 5247   4.446   4.670   3.973  0.0946  0.1923  0.5596
 1729W        W 5248   4.648   6.228   8.320 -0.1072 -0.3381  0.1109
 1730W        W 5249   7.426   1.520   1.597 -0.1089 -0.3082  0.0570
 1731W        W 5250   2.484   9.268  10.239 -0.0130  0.1380 -0.0758
 1732W        W 5251   8.976   2.242   2.716  0.0475  0.1629  0.0721
 1733W        W 5252   4.418   7.837   2.635  0.1034  0.0273  0.1519
 1734W        W 5253   9.410   5.901   0.682 -0.1024  0.0500 -0.1231
 1735W        W 5254   2.150   1.983   3.804 -0.0250  0.2480 -0.0688
 1736W        W 5255   7.295   0.819   9.931 -0.1122  0.1803 -0.0066
 1737W        W 5256   1.778   2.888   9.317  0.0270 -0.2129  0.2118
 1738W        W 5257   0.322   5.628   9.571  0.2465  0.2493 -0.0902
 1739W        W 5258   2.753   8.742   9.686 -0.0716 -0.0815  0.0359
 1740W        W 5259   0.927   5.226   2.141 -0.0304 -0.0726  0.3262
 1741W        W 5260   1.283   0.151  11.748 -0.1829 -0.4134 -0.0459
 1742W        W 5261   8.906   8.664   4.127  0.0503 -0.0161 -0.0146
 1743W        W 5262   4.775   0.433   1.025 -0.0507  0.0551 -0.0236
 1744W        W 5263   5.961   7.073   1.183  0.2887  0.0050 -0.2139
 1745W        W 5264   4.055   1.702   3.595 -0.4805 -0.1233  0.1701
 1746W        W 5265   7.172   0.270   9.917  0.0057 -0.1095 -0.0676
 1747W        W 5266   9.321   8.302   1.858 -0.0527 -0.0289 -0.3061
 1748W        W 5267   4.096   7.923   4.995  0.0825  0.1328  0.2281
 1749W        W 5268   8.288   4.568   3.935 -0.4588  0.2907  0.1261
 1750W        W 5269   0.805   3.277   3.905 -0.2186  0.1338  0.0582
 1751W        W 5270   8.023   3.236  10.807  0.2036 -0.2022 -0.4332
 1752W        W 5271   5.389   3.245   1.984 -0.2867 -0.0267 -0.1907
 1753W        W 5272   3.884   7.148  10.077  0.0112 -0.0346 -0.0952
 1754W        W 5273   7.769   6.719  10.513  0.0299  0.1110 -0.2201
 1755W        W 5274   3.063   8.627  10.698  0.0297  0.0983  0.1012
 1756W        W 5275   3.915   8.170  12.128  0.1391  0.1732 -0.1730
 1757W        W 5276   0.766   2.961   1.549 -0.1396  0.1000 -0.0543
 1758W        W 5277   6.488   0.145  10.697  0.1203 -0.1523  0.0815
 1759W        W 5278   5.103   7.319  10.610 -0.1375  0.0024  0.1635
 1760W        W 5279   7.311   1.927  11.250  0.2034  0.0643  0.1638
 1761W        W 5280   4.378   6.819  10.825  0.2504 -0.1953 -0.0181
 1762W        W 5281   6.824   7.357  10.075  0.3547  0.1290 -0.2698
 1763W        W 5282   4.650   1.226  10.476  0.1097  0.1323  0.4606
 1764W        W 5283   3.444   1.522  11.091 -0.1323  0.3044 -0.3176
 1765W        W 5284   0.277   2.002  12.127 -0.1195 -0.0095  0.1516
 1766W        W 5285   4.090   6.384  11.912  0.2092 -0.2069 -0.1043
 1767W        W 5286   0.873   4.779   0.833  0.0065  0.3028  0.0173
 1768W        W 5287   4.544   2.571  10.794  0.1508  0.1226 -0.1872
 1769W        W 5288   6.998   3.340   0.412  0.1248  0.0322 -0.1887
 1770W        W 5289   2.927   8.568   3.617 -0.0798  0.3592 -0.0645
 1771W        W 5290   5.170   4.301   0.649  0.0440 -0.2043  0.1971
 1772W        W 5291   8.291   7.361   0.208 -0.1972  0.2173  0.2650
 1773W        W 5292   3.456   6.781  10.199 -0.0505 -0.3662 -0.3308
 1774W        W 5293   6.288   9.343  10.504  0.2872  0.0929  0.1783
 1775W        W 5294   2.613   4.571   2.508  0.2400  0.1634 -0.1319
 1776W        W 5295   2.962   3.709   9.408  0.0119  0.1524 -0.0473
 1777W        W 5296   2.947   5.361  12.062  0.0427  0.0763  0.0706
 1778W        W 5297   5.550   2.537   0.688 -0.0708 -0.0632  0.3176
 1779W        W 5298   6.064   7.150   0.140  0.1056  0.0918 -0.0813
 1780W        W 5299   1.855   5.955   4.455 -0.2213 -0.2272 -0.0266
 1781W        W 5300   0.891   9.463   1.474 -0.0257  0.1978  0.0661
 1782W        W 5301   9.348   8.588   0.961  0.2040 -0.2900  0.1289
 1783W        W 5302   4.203   5.682   3.258 -0.3326 -0.0579  0.3405
 1784W        W 5303   2.746   2.839   4.038  0.2176  0.0304  0.1692
 1785W        W 5304   0.886   1.558   4.430 -0.0658 -0.1523  0.3810
 1786W        W 5305   2.798   0.406  12.303  0.1292  0.0058 -0.1429
 1787W        W 5306   5.518   3.178   9.971 -0.0741 -0.2486  0.2174
 1788W        W 5307   5.536   5.590   9.948 -0.1040  0.4212  0.3061
 1789W        W 5308   8.747   1.599   3.832 -0.0958 -0.0418  0.1049
 1790W        W 5309   4.882   2.134  11.934  0.3053 -0.1882 -0.1133
 1791W        W 5310   6.410   1.683  10.335  0.1140 -0.0961 -0.0833
 1792W        W 5311   5.237   7.054   2.669 -0.1783  0.0376  0.0855
 1793W        W 5312   3.507   6.091   3.144 -0.2076 -0.0620 -0.0821
 1794W        W 5313   8.859   7.071   9.264 -0.0065 -0.0998 -0.2227
 1795W        W 5314   0.379   7.733   3.096 -0.1212  0.4015 -0.0344
 1796W        W 5315   2.125   5.236   8.871  0.3317  0.2162  0.2449
 1797W        W 5316   6.136   3.172   1.453 -0.3229  0.1843 -0.0843
 1798W        W 5317   1.803   6.835   0.210  0.4089  0.1627 -0.1333
 1799W        W 5318   3.873   2.100   0.842  0.1386 -0.1957  0.0072
 1800W        W 5319   3.125   1.835   2.129  0.0742  0.0370  0.2259
 1801W        W 5320   3.294   5.555   1.064 -0.3081 -0.0078 -0.0323
 1802W        W 5321   8.976   7.573   9.114 -0.0683  0.0378  0.0868
 1803W        W 5322   5.950   8.652  11.421 -0.0227 -0.2086  0.2146
 1804W        W 5323   1.249   3.429  10.117  0.1879 -0.2335  0.1558
 1805W        W 5324   9.278   0.473   1.818 -0.1203  0.0671 -0.0368
 1806W        W 5325   1.767   9.127  11.556 -0.0107 -0.0115 -0.0085
 1807W        W 5326   0.158   0.599  10.334  0.1629 -0.1080  0.0687
 1808W        W 5327   7.347   3.835   9.341  0.0539 -0.2464  0.1134
 1809W        W 5328   0.562   4.413   2.263  0.0620 -0.0261  0.1623
 1810W        W 5329   2.685   9.661  10.075 -0.1200  0.0152  0.1823
 1811W        W 5330   2.747   4.535   3.687  0.3171 -0.0844  0.3608
 1812W        W 5331   5.387   4.142  11.097 -0.1729  0.0713  0.3699
 1813W        W 5332   0.567   1.967   0.910  0.2262  0.0072 -0.3212
 1814W        W 5333   8.183   5.058   2.522  0.4134 -0.0648  0.2248
 1815W        W 5334   5.862   6.227  12.069 -0.1911 -0.0977  0.1712
 1816W        W 5335   9.274   6.906  11.006  0.2298 -0.1528  0.0321
 1817W        W 5336   3.958   2.142   0.370  0.3014  0.1202  0.1909
 1818W        W 5337   3.996   5.816   3.666  0.1531  0.0642 -0.1025
 1819W        W 5338   8.986   2.372  11.812 -0.0747 -0.0346 -0.0038
 1820W        W 5339   3.662   6.113  12.081  0.3586 -0.1167 -0.2181
 1821W        W 5340   0.141   2.153  11.670  0.1267  0.4001 -0.1292
 1822W        W 5341   5.748   2.713   1.095 -0.1941 -0.1587 -0.1730
 1823W        W 5342   4.215   3.229   0.414  0.1160 -0.0851  0.1792
 1824W        W 5343   3.408   6.870  12.459 -0.0653  0.2300 -0.1720
 1825W        W 5344   3.770   7.472   0.911  0.0316 -0.2968  0.3441
 1826W        W 5345   7.908   4.412  12.398  0.0044  0.1672  0.0822
 1827W        W 5346   4.972   9.637  11.281 -0.2264 -0.1422  0.1062
 1828W        W 5347   5.639   2.836   2.548  0.3452 -0.0657  0.0735
 1829W        W 5348   3.404   2.525   4.299 -0.0808 -0.1306  0.0621
 1830W        W 5349   2.794   0.300  11.492 -0.2409 -0.1651 -0.1067
 1831W        W 5350   7.551   9.053  11.976 -0.0697 -0.0724  0.0120
 1832W        W 5351   7.817   6.731   9.622 -0.0165  0.1208 -0.0258
 1833W        W 5352   3.344   1.321   2.927  0.0985  0.3286 -0.0104
 1834W        W 5353   4.119   9.066   9.804 -0.0230  0.1344  0.2866
 1835W        W 5354   1.091   6.507   3.653  0.0889 -0.0725 -0.0891
 1836W        W 5355   6.225   8.704   1.388 -0.0840 -0.0269 -0.1660
 1837W        W 5356   1.920   4.562   4.818  0.0614 -0.2525  0.0700
 1838W        W 5357   4.028   4.356   3.178  0.2036  0.0673  0.0716
 1839W        W 5358   8.822   2.859  10.922  0.1434  0.1159  0.2201
 1840W        W 5359   2.543   4.505   4.183 -0.1079  0.0181  0.2527
 1841W        W 5360   3.833   0.738  10.595 -0.1646 -0.0241  0.2218
 1842W        W 5361   5.079   1.401   3.707 -0.3658 -0.0618 -0.2052
 1843W        W 5362   4.732   8.304   2.502  0.0128  0.0396 -0.2113
 1844W        W 5363   3.118   6.379  11.445 -0.3868  0.1230  0.0536
 1845W        W 5364   7.691   5.957  12.501 -0.0503  0.1608 -0.0521
 1846W        W 5365   2.283   7.725   2.183 -0.0559 -0.0628 -0.2281
 1847W        W 5366   1.457   3.694   2.595 -0.1947  0.0682  0.1959
 1848W        W 5367   3.196   5.713   4.891 -0.0852  0.2810  0.0662
 1849W        W 5368   6.217   7.779   9.302 -0.1882  0.2377 -0.1821
 1850W        W 5369   7.490   3.763  11.139  0.0805  0.1879  0.2354
 1851W        W 5370   2.119   4.655   2.506 -0.0084  0.1667 -0.0927
 1852W        W 5371   7.354   9.253   3.268 -0.0466  0.3275  0.1879
 1853W        W 5372   8.401   4.300  12.307  0.1599  0.2341 -0.2489
 1854W        W 5373   6.462   5.275   2.403  0.5504  0.0631  0.0958
 1855W        W 5374   2.219   4.078  11.582 -0.2555  0.2608  0.2011
 1856W        W 5375   6.767   4.913   1.025 -0.1357 -0.0417 -0.3213
 1857W        W 5376   6.048   4.033   1.215 -0.0701  0.2074  0.0517
 1858W        W 5377   0.062   2.721   1.052  0.0306  0.0787  0.1462
 1859W        W 5378   5.390   7.842   3.234 -0.0889  0.0452 -0.2313
 1860W        W 5379   6.787   1.673   9.483  0.0738  0.1509  0.0947
 1861W        W 5380   5.613   7.577  10.665  0.3675  0.1516  0.0119
 1862W        W 5381   2.620   8.809  10.849  0.2945 -0.0774 -0.0627
 1863W        W 5382   1.565   9.473  11.892  0.1080  0.0494  0.0919
 1864W        W 5383   3.626   7.405   4.900  0.0317  0.1592 -0.0454
 1865W        W 5384   9.210   4.998  11.335 -0.0368  0.0119  0.0223
 1866W        W 5385   9.403   3.545   9.629 -0.3320 -0.1456 -0.0894
 1867W        W 5386   0.758   1.486  11.208 -0.1133  0.0140 -0.1332
 1868W        W 5387   5.917   7.164  11.241  0.1257  0.2067 -0.1504
 1869W        W 5388   2.424   6.001   2.461 -0.1550  0.4709  0.3305
 1870W        W 5389   6.426   7.171   1.132  0.0163  0.0572  0.0739
 1871W        W 5390   6.186   2.379  12.266  0.0266  0.1520 -0.1838
 1872W        W 5391   9.272   7.810   9.516 -0.0506  0.3257 -0.3374
 1873W        W 5392   3.491   8.745   2.250  0.0440  0.1231  0.0153
 1874W        W 5393   3.898   6.312   4.330 -0.2034 -0.6289 -0.0420
 1875W        W 5394   4.654   5.076  12.504  0.2611  0.3877 -0.0884
 1876W        W 5395   7.602   6.177   9.680 -0.1400  0.0366 -0.3523
 1877W        W 5396   5.015   2.463   9.602 -0.1676  0.0582  0.1470
 1878W        W 5397   7.504   5.961   8.916  0.1691  0.1095  0.0242
 1879W        W 5398   3.463   4.768   0.052 -0.2089  0.0513  0.0325
 1880W        W 5399   7.469   6.560  11.523  0.0693  0.1547  0.2906
 1881W        W 5400   0.019   8.792   3.636  0.2064 -0.1310 -0.0798
 1882W        W 5401   2.110   1.358   1.130 -0.1039 -0.1364  0.0021
 1883W        W 5402   6.595   4.009  12.160 -0.3952 -0.3108 -0.2637
 1884W        W 5403   2.002   6.536   1.242 -0.0201  0.0107 -0.3345
 1885W        W 5404   9.519   7.150  11.482  0.2576  0.1097  0.1054
 1886W        W 5405   1.759   6.994  11.579  0.3810 -0.1177  0.4285
 1887W        W 5406   6.127   4.714   0.453  0.0204  0.2702 -0.2370
 1888W        W 5407   5.211   3.639   2.792 -0.1721  0.0231 -0.1261
 1889W        W 5408   3.269   0.155  11.384  0.1069 -0.1785  0.1549
 1890W        W 5409   3.772   6.474  12.394 -0.2077  0.2685 -0.1759
 1891W        W 5410   7.603   8.693  10.661 -0.0811  0.0051  0.0230
 1892W        W 5411   3.672   0.986  12.398  0.0637  0.1251 -0.1949
 1893W        W 5412   3.985   8.066   2.319 -0.0481  0.0623  0.0447
 1894W        W 5413   6.023   4.970   1.785  0.1891 -0.0498 -0.0423
 1895W        W 5414   0.472   7.023   3.954  0.1884 -0.0934 -0.0363
 1896W        W 5415   2.237   3.186   3.890 -0.0788 -0.0112  0.0484
 1897W        W 5416   9.087   0.442   3.027  0.0688  0.5779 -0.2888
 1898W        W 5417   4.193   6.967   0.211 -0.1428  0.4257 -0.1281
 1899W        W 5418   2.559   8.280   9.776  0.0469 -0.0259  0.0063
 1900W        W 5419   6.697   6.552   1.594  0.1752  0.0504 -0.0452
 1901W        W 5420   0.704   1.165   1.860  0.0284 -0.2111  0.0687
 1902W        W 5421   0.173   0.615  10.908  0.1134  0.0078  0.2658
 1903W        W 5422   0.369   3.240   2.786  0.5837 -0.0617  0.0910
 1904W        W 5423   1.086   7.157  12.002 -0.2639  0.1117 -0.0998
 1905W        W 5424   4.670   8.187   3.004 -0.1327 -0.1414 -0.1350
 1906W        W 5425   2.745   7.501   1.234  0.0536  0.1786 -0.4522
 1907W        W 5426   1.490   0.045   9.552 -0.1632  0.0312 -0.0609
 1908W        W 5427   3.239   4.101   3.598 -0.0011  0.0642  0.2990
 1909W        W 5428   3.595   5.077   1.850 -0.0485  0.0595 -0.0595
 1910W        W 5429   2.699   5.801   1.459  0.0840  0.0739  0.0302
 1911W        W 5430   1.093   1.018   4.298 -0.0783  0.0866  0.0313
 1912W        W 5431   4.278   4.974   1.627 -0.2217  0.3209  0.1167
 1913W        W 5432   1.909   5.816   9.137 -0.0900  0.0100 -0.2641
 1914W        W 5433   4.748   0.454  12.018  0.1475  0.0749  0.4424
 1915W        W 5434   0.694   1.204  10.811 -0.3349 -0.0737  0.1053
 1916W        W 5435   1.365   5.429   1.332 -0.2116 -0.2188  0.1548
 1917W        W 5436   3.099   4.752   1.107 -0.1202 -0.2614  0.2489
 1918W        W 5437   1.782   9.204   2.643  0.1714 -0.0850 -0.1467
 1919W        W 5438   4.940   5.472  12.546 -0.0895 -0.0939 -0.1511
 1920W        W 5439   2.526   7.287   1.748  0.2063  0.0293  0.2029
 1921W        W 5440   2.961   8.817   0.564 -0.0355 -0.1696 -0.3002
 1922W        W 5441   4.042   8.740  10.857  0.3519  0.2032 -0.1215
 1923W        W 5442   7.829   5.670  10.522 -0.0345  0.1354 -0.1727
 1924W        W 5443   3.484   5.847   3.733 -0.3397  0.0896  0.2022
 1925W        W 5444   6.100   0.810   0.034  0.0621  0.2124  0.2927
 1926W        W 5445   2.038   3.291   2.154 -0.0558  0.1032 -0.1535
 1927W        W 5446   7.847   5.912   9.257 -0.2320 -0.0351  0.1814
 1928W        W 5447   5.602   4.971   8.082  0.1737 -0.0302  0.1046
 1929W        W 5448   6.399   6.320   0.630  0.1544  0.0037  0.1313
 1930W        W 5449   7.549   8.415   9.768 -0.2615  0.1367  0.0120
 1931W        W 5450   1.479   4.082   0.580 -0.2526 -0.0394 -0.0963
 1932W        W 5451   3.020   0.804  11.610  0.1246 -0.0079 -0.0025
 1933W        W 5452   2.061   3.845   9.754 -0.4537  0.1998  0.1211
 1934W        W 5453   2.598   0.969  10.224  0.2747  0.0839 -0.1833
 1935W        W 5454   7.265   8.937   1.979 -0.2570 -0.1930 -0.1164
 1936W        W 5455   5.561   0.576   2.395  0.1384  0.1497  0.6681
 1937W        W 5456   1.521   4.210   2.049  0.0817  0.2663  0.1611
 1938W        W 5457   1.951   9.629   2.373 -0.2768  0.0530 -0.1770
 1939W        W 5458   0.716   1.084   0.531  0.0973 -0.0346 -0.3398
 1940W        W 5459   4.336   3.303   2.933  0.2825 -0.0075 -0.2991
 1941W        W 5460   0.866   1.296   9.350  0.1333  0.4406 -0.0645
 1942W        W 5461   2.337   4.939  10.710 -0.3317  0.0378  0.0112
 1943W        W 5462   2.429   8.565   2.570  0.4008  0.1530  0.1771
 1944W        W 5463   7.472   0.760   8.476  0.1365  0.1186 -0.1095
 1945W        W 5464   5.061   6.743   9.554 -0.0613 -0.0955 -0.1401
 1946W        W 5465   6.544   7.415   2.721  0.0801 -0.1630 -0.2922
 1947W        W 5466   7.195   2.510   1.426 -0.1763 -0.2180  0.2545
 1948W        W 5467   1.404   7.495   2.498 -0.0062 -0.1458 -0.2334
 1949W        W 5468   0.022   5.613  12.018 -0.1240  0.0087  0.3467
 1950W        W 5469   5.538   6.681   8.859 -0.2725  0.1239 -0.0680
 1951W        W 5470   1.711   1.951   5.154  0.1174  0.1085  0.0715
 1952W        W 5471   3.282   9.620   2.715  0.1970  0.2653  0.2996
 1953W        W 5472   5.821   7.846   1.198  0.0430 -0.0459 -0.1791
 1954W        W 5473   8.450   3.781  11.403 -0.0284 -0.1177 -0.2861
 1955W        W 5474   2.042   0.054   3.020 -0.0570 -0.1304 -0.2913
 1956W        W 5475   9.122   3.478  10.962 -0.1596 -0.1509  0.1123
 1957W        W 5476   0.686   4.827  10.228  0.1305 -0.4227  0.1253
 1958W        W 5477   3.875   2.487   2.819  0.1381  0.0536 -0.0165
 1959W        W 5478   2.723   6.527   0.541 -0.0105 -0.0961  0.0344
 1960W        W 5479   1.953   9.565  11.399  0.0580  0.0092  0.0378
 1961W        W 5480   6.356   6.030  10.100  0.1142  0.0625 -0.1104
 1962W        W 5481   5.482   2.554   1.556 -0.2729  0.0256  0.0711
 1963W        W 5482   4.615   0.574  11.367 -0.0816  0.2195 -0.2355
 1964W        W 5483   7.847   9.290   2.518  0.2001 -0.0940  0.1840
 1965W        W 5484   7.883   6.527   4.583  0.0551 -0.0879 -0.0149
 1966W        W 5485   1.106   5.597   9.877  0.2003 -0.2027  0.1335
 1967W        W 5486   7.718   9.541  12.102  0.0470 -0.1937 -0.1777
 1968W        W 5487   9.419   8.686   4.089  0.1771 -0.2269 -0.2075
 1969W        W 5488   5.083   8.811   3.892 -0.1106 -0.0110  0.0247
 1970W        W 5489   2.757   3.312   4.062  0.3627  0.2989  0.0182
 1971W        W 5490   3.380   3.482   2.986  0.1033 -0.0417 -0.0993
 1972W        W 5491   4.764   7.316  10.981 -0.1801 -0.1199 -0.0635
 1973W        W 5492   6.896   7.061   3.133  0.0342  0.2520  0.2605
 1974W        W 5493   2.639   3.041   9.821  0.3912  0.0309 -0.2122
 1975W        W 5494   4.716   1.131   0.343 -0.1173  0.0830  0.0831
 1976W        W 5495   0.522   1.298   0.099  0.0020 -0.2498 -0.1009
 1977W        W 5496   4.775   4.356  10.547  0.3117  0.0870  0.0981
 1978W        W 5497   4.477   3.342   9.947  0.0136 -0.1639  0.2434
 1979W        W 5498   0.827   3.591   3.429 -0.3134  0.0241 -0.3752
 1980W        W 5499   3.106   6.885  11.029 -0.0588 -0.1388 -0.2332
 1981W        W 5500   2.002   5.399   9.364 -0.0917 -0.4007 -0.0425
 1982W        W 5501   6.904   3.308   9.765  0.4228 -0.2834  0.1610
 1983W        W 5502   1.033   4.705   0.315 -0.1020  0.0887 -0.1884
 1984W        W 5503   0.669   7.907   4.814 -0.4020 -0.2606 -0.1796
 1985W        W 5504   5.800   1.180  12.383 -0.3311 -0.0360 -0.0999
 1986W        W 5505   9.641   4.186  11.732 -0.2263  0.1988  0.0505
 1987W        W 5506   4.864   4.741   0.879 -0.1045  0.4647  0.0332
 1988W        W 5507   3.782   0.719   9.512 -0.1697  0.0387 -0.5340
 1989W        W 5508   3.307   6.987  11.707 -0.1370  0.2398  0.2855
 1990W        W 5509   8.205   3.171   2.614  0.2584  0.3831  0.0604
 1991W        W 5510   1.198   1.390  10.897  0.2011  0.1711 -0.0961
 1992W        W 5511   4.895   5.096   0.390  0.1068 -0.1375 -0.0093
 1993W        W 5512   0.536   9.068  10.575  0.1399  0.0368 -0.2137
 1994W        W 5513   5.984   8.764   2.481  0.1052  0.0996  0.0015
 1995W        W 5514   8.274   4.293   9.671  0.2018 -0.0810  0.0076
 1996W        W 5515   7.946   7.797   3.765 -0.1023  0.1480 -0.5042
 1997W        W 5516   5.644   1.550  12.104  0.3244  0.1396  0.0549
 1998W        W 5517   8.623   5.175   1.759 -0.0778 -0.0868 -0.0878
 1999W        W 5518   0.212   3.655  10.836 -0.1214 -0.1399 -0.2129
 2000W        W 5519   6.706   8.151  10.382 -0.2743 -0.0111  0.1604
 2001W        W 5520   5.749   0.922   0.975  0.0036  0.0496  0.1241
 2002W        W 5521   4.302   0.201  10.216  0.0112  0.0058 -0.0141
 2003W        W 5522   5.213   2.816   2.866  0.0501  0.2984  0.0770
 2004W        W 5523   8.959   8.343   3.756 -0.2382 -0.1434  0.0627
 2005W        W 5524   1.936   4.880  10.969  0.1418  0.1480 -0.0038
 2006W        W 5525   0.650   4.890   3.886  0.0333 -0.0415 -0.1550
 2007W        W 5526   0.674   2.269  12.432  0.1054  0.1219 -0.1451
 2008W        W 5527   6.293   6.156   8.664 -0.0910 -0.0414 -0.1926
 2009W        W 5528   0.402   1.406   2.390 -0.1561  0.1101 -0.2078
 2010W        W 5529   3.640   7.355  11.469 -0.0215  0.0612  0.0915
 2011W        W 5530   8.500   1.133   3.856  0.4157 -0.3617 -0.3226
 2012W        W 5531   9.389   1.002   3.269  0.3037 -0.0642  0.1333
 2013W        W 5532   8.338   9.048  10.544  0.1226  0.1108  0.0875
 2014W        W 5533   5.118   4.737   2.543 -0.0517 -0.1910 -0.1241
 2015W        W 5534   2.093   6.616   8.279  0.0452  0.0514  0.1729
 2016W        W 5535   6.328   2.786   1.002  0.0447 -0.0471  0.2763
 2017W        W 5536   7.151   0.542   0.418 -0.3239 -0.0554  0.1459
 2018W        W 5537   2.393   7.290   0.765  0.0428  0.1279  0.0107
 2019W        W 5538   8.514   0.262   1.267  0.1557  0.0687  0.2306
 2020W        W 5539   3.301   1.324  12.359 -0.0084 -0.1671 -0.1012
 2021W        W 5540   0.665   3.226   0.101 -0.4260 -0.2695 -0.1373
 2022W        W 5541   7.740   8.973   3.065 -0.4028 -0.4090  0.2682
 2023W        W 5542   9.136   6.882  10.131 -0.0448 -0.0811  0.2739
 2024W        W 5543   1.097   0.208   2.351 -0.1738  0.2602 -0.2643
 2025W        W 5544   9.437   6.103   1.344  0.0756 -0.1471 -0.2679
 2026W        W 5545   2.820   6.805   3.017  0.0102  0.6571  0.1867
 2027W        W 5546   6.323   1.258  12.550 -0.2670 -0.0740  0.0525
 2028W        W 5547   0.615   4.423   3.877 -0.1325  0.1491  0.1451
 2029W        W 5548   1.362   2.663   0.930  0.0647 -0.0315  0.0434
 2030W        W 5549   0.960   0.185   9.508 -0.0156 -0.0999  0.0115
 2031W        W 5550   4.468   3.403  10.435 -0.0533 -0.1243 -0.0840
 2032W        W 5551   3.510   2.671   2.462  0.0622  0.1168 -0.1391
 2033W        W 5552   6.906   0.093   0.574  0.0971  0.2438  0.1329
 2034W        W 5553   9.259   2.364   1.978 -0.0759 -0.0864  0.1911
 2035W        W 5554   1.326   5.066  12.251  0.1235  0.3159 -0.2827
 2036W        W 5555   1.587   3.641   1.758  0.0811 -0.0665  0.0137
 2037W        W 5556   5.120   8.497   2.302 -0.2426 -0.4342 -0.2210
 2038W        W 5557   2.330   4.571  10.368  0.0066 -0.2077 -0.2096
 2039W        W 5558   7.936   7.417   4.160 -0.0801 -0.1530  0.1035
 2040W        W 5559   7.076   1.260  10.017  0.1313  0.1650 -0.2605
 2041W        W 5560   4.103   5.002   1.134  0.2339 -0.3740  0.1833
 2042W        W 5561   3.709   2.944  11.942 -0.0450  0.0933  0.3273
 2043W        W 5562   3.529   7.736  12.294  0.1511  0.1664  0.0455
 2044W        W 5563   5.886   2.376  10.509 -0.1292  0.4056  0.2636
 2045W        W 5564   9.355   6.367   0.872 -0.2818  0.0053 -0.3050
 2046W        W 5565   3.939   7.017  10.566  0.3808 -0.2939 -0.3300
 2047W        W 5566   9.596   7.666   2.870  0.1891  0.2772 -0.0752
 2048W        W 5567   6.268   4.384  11.672  0.3607 -0.0053 -0.1004
 2049W        W 5568   8.121   3.481  10.392  0.0406  0.3695  0.0792
 2050W        W 5569   8.791   8.890   2.680 -0.0828 -0.0682  0.1684
 2051W        W 5570   7.914   9.103   4.039  0.3475  0.0815 -0.0056
 2052W        W 5571   1.394   6.786  11.142  0.1558  0.3395 -0.0489
 2053W        W 5572   4.481   8.830   8.967 -0.2279  0.1974  0.0945
 2054W        W 5573   6.431   3.402   3.110 -0.1006 -0.0945 -0.0236
 2055W        W 5574   1.530   2.263   0.513  0.0098 -0.0324  0.3011
 2056W        W 5575   4.372   7.034   9.274 -0.0776 -0.0085  0.1564
 2057W        W 5576   4.596   8.844   0.637 -0.1114 -0.0477  0.0232
 2058W        W 5577   8.441   8.603   0.602 -0.0599  0.1203  0.1276
 2059W        W 5578   8.520   9.137  10.023 -0.0223  0.0390 -0.1432
 2060W        W 5579   1.892   0.532   3.069 -0.1952 -0.2400  0.0618
 2061W        W 5580   6.297   1.252  11.642  0.1379 -0.1015  0.0051
 2062W        W 5581   5.250   8.321   9.286 -0.2023  0.1302  0.0026
 2063W        W 5582   2.273   1.658   1.642 -0.1527  0.0453  0.2064
 2064W        W 5583   4.467   5.574  12.317 -0.2688  0.1883 -0.0420
 2065W        W 5584   2.478   0.015   0.625  0.3056 -0.3989 -0.2484
 2066W        W 5585   1.133   2.890  10.167  0.1958  0.0115 -0.1013
 2067W        W 5586   7.566   4.822   2.249  0.0481 -0.1041 -0.1034
 2068W        W 5587   7.114   0.309   3.658 -0.4053  0.1655  0.1351
 2069W        W 5588   3.377   8.151   1.108  0.0160 -0.1968 -0.4707
 2070W        W 5589   5.180   8.162   2.896  0.5295  0.0469 -0.0609
 2071W        W 5590   6.739   9.323   2.770 -0.1022  0.1636 -0.1098
 2072W        W 5591   4.388   8.305   3.460  0.3079  0.2663 -0.2437
 2073W        W 5592   9.229   3.897   9.263  0.0687 -0.3022  0.0036
 2074W        W 5593   2.734   0.282   0.240  0.1402 -0.0782 -0.2543
 2075W        W 5594   7.294   8.424   3.587 -0.6494 -0.0913 -0.0156
 2076W        W 5595   7.829   6.090   8.317 -0.1239 -0.0194 -0.1216
 2077W        W 5596   9.039   1.261   2.652 -0.5822 -0.4605  0.1384
 2078W        W 5597   8.179   9.443   9.356 -0.1854  0.0099  0.1337
 2079W        W 5598   1.155   9.324   3.182 -0.5046 -0.2018  0.0180
 2080W        W 5599   2.262   7.641   1.075  0.2984  0.0500 -0.0198
 2081W        W 5600   5.794   4.390   8.968 -0.3850  0.1049 -0.0540
 2082W        W 5601   0.105   3.469   0.408 -0.1947 -0.3367  0.0500
 2083W        W 5602   8.326   4.265   2.362  0.2388 -0.1830  0.2088
 2084W        W 5603   9.607   6.943  10.261 -0.0552  0.1668  0.1261
 2085W        W 5604   5.367   9.439   0.758  0.2880  0.0279  0.0308
 2086W        W 5605   2.311   8.005  10.848  0.0761 -0.0549  0.0590
 2087W        W 5606   3.412   9.053   1.850 -0.0386  0.2166  0.1509
 2088W        W 5607   6.268   6.921  10.870  0.0090 -0.0220  0.2021
 2089W        W 5608   9.639   0.695   1.551  0.0049  0.1943  0.0122
 2090W        W 5609   9.620   5.689   1.091  0.3511  0.1206  0.0573
 2091W        W 5610   6.948   2.379  11.501  0.0282  0.1020 -0.0445
 2092W        W 5611   1.015   1.247   4.815  0.2847  0.0941 -0.2298
 2093W        W 5612   0.155   2.441  12.434  0.1155  0.2034 -0.0133
 2094W        W 5613   6.479   1.032  12.017 -0.2577  0.2024  0.2730
 2095W        W 5614   6.517   4.424  12.477 -0.0413 -0.1873 -0.1132
 2096W        W 5615   2.298   2.995   9.457  0.1466 -0.3341  0.0123
 2097W        W 5616   4.264   4.830   9.740 -0.2188 -0.0427 -0.0459
 2098W        W 5617   3.788   2.937  11.072  0.3419  0.1250 -0.2085
 2099W        W 5618   8.624   3.401   9.415 -0.0897  0.1786 -0.0985
 2100W        W 5619   9.224   9.082   1.070  0.0993  0.1606 -0.1907
 2101W        W 5620   6.445   1.211   1.957 -0.1238 -0.2211  0.1863
 2102W        W 5621   6.621   9.584   9.055  0.0859 -0.2658  0.1694
 2103W        W 5622   8.724   5.697   3.065 -0.0607 -0.2836  0.0776
 2104W        W 5623   5.590   5.640  10.420 -0.0032 -0.2184  0.0767
 2105W        W 5624   3.406   0.577   3.543  0.0471  0.1654  0.0818
 2106W        W 5625   3.354   2.090  10.176  0.0633  0.0518 -0.0560
 2107W        W 5626   7.538   6.816   8.781 -0.1230  0.0819  0.2880
 2108W        W 5627   7.325   4.932  12.144  0.2150 -0.1031 -0.0760
 2109W        W 5628   4.188   1.105   2.435 -0.1353  0.0572 -0.1349
 2110W        W 5629   2.654   1.947   1.410 -0.0098 -0.2174 -0.0707
 2111W        W 5630   1.910   2.133  11.278  0.1017  0.0742 -0.0090
 2112W        W 5631   8.563   5.970   4.072 -0.0734 -0.1031 -0.3774
 2113W        W 5632   3.072   8.170  11.550  0.1591  0.1941 -0.1704
 2114W        W 5633   3.269   0.186  10.170  0.0256 -0.1223 -0.0601
 2115W        W 5634   4.052   7.528   1.336  0.2572  0.2440  0.0976
 2116W        W 5635   0.419   3.136  12.132 -0.0911 -0.2679 -0.0502
 2117W        W 5636   6.589   8.938   1.103  0.0080 -0.2463  0.1818
 2118W        W 5637   6.258   5.090   1.293 -0.2038  0.1482 -0.0203
 2119W        W 5638   2.520   4.760   0.356 -0.0234  0.1339  0.2245
 2120W        W 5639   5.769   5.466   8.988 -0.1014 -0.2376 -0.3713
 2121W        W 5640   9.222   3.683   3.142  0.1813  0.0299 -0.0900
 2122W        W 5641   0.334   2.391  11.008 -0.1757  0.1842  0.1544
 2123W        W 5642   4.217   8.872  11.742 -0.0739  0.1463 -0.0134
 2124W        W 5643   0.955   2.786   8.278 -0.2212  0.1735  0.1106
 2125W        W 5644   7.689   7.894   4.266 -0.4151  0.3686 -0.1545
 2126W        W 5645   8.965   5.785  12.236  0.0608 -0.3516 -0.1918
 2127W        W 5646   5.227   8.884  11.362  0.1333 -0.2918  0.0641
 2128W        W 5647   6.755   0.203   2.904  0.4588  0.1569  0.0189
 2129W        W 5648   3.886   4.106   1.465 -0.2052  0.4167 -0.2330
 2130W        W 5649   4.407   2.346  11.997  0.1524 -0.4296  0.2990
 2131W        W 5650   8.956   6.133   2.841  0.3879 -0.0874 -0.2200
 2132W        W 5651   7.154   6.776   2.446 -0.0374 -0.0037  0.1927
 2133W        W 5652   2.197   8.187   9.343 -0.0062  0.0727  0.0450
 2134W        W 5653   4.399   5.976   4.431 -0.0514 -0.1273 -0.0859
 2135W        W 5654   0.442   7.207  10.936  0.0741 -0.1674 -0.1659
 2136W        W 5655   8.509   6.680   2.226 -0.3965 -0.2645 -0.3299
 2137W        W 5656   7.498   7.121   2.491 -0.1669  0.3144  0.1653
 2138W        W 5657   7.216   9.085   0.257 -0.1572 -0.1261 -0.1166
 2139W        W 5658   9.332   0.827  11.827  0.1940  0.1678 -0.0605
 2140W        W 5659   5.072   1.584   9.143  0.0570 -0.2290 -0.3120
 2141W        W 5660   9.631   9.625   9.208 -0.2813 -0.1490 -0.2590
 2142W        W 5661   7.881   4.228  11.913  0.0261 -0.0986 -0.2063
 2143W        W 5662   6.081   8.595   0.877 -0.0620  0.0010  0.1332
 2144W        W 5663   0.165   3.631   3.363 -0.0873  0.0139 -0.0112
 2145W        W 5664   6.210   7.104   2.824  0.1557  0.1060 -0.1156
 2146W        W 5665   5.000   6.865   3.637  0.0896 -0.2510 -0.1880
 2147W        W 5666   9.030   0.902  10.835  0.0487 -0.0230  0.0143
 2148W        W 5667   3.524   5.978  11.331  0.4450  0.1267  0.0068
 2149W        W 5668   8.178   7.849  12.577 -0.2736 -0.0887  0.1106
 2150W        W 5669   8.424   2.675   0.924  0.1604  0.0871 -0.2586
 2151W        W 5670   4.154   3.280  11.212  0.0787  0.1216 -0.3740
 2152W        W 5671   1.026   4.061  11.162 -0.1729 -0.0416 -0.3294
 2153W        W 5672   5.998   5.237   3.905 -0.1241  0.0514 -0.0749
 2154W        W 5673   1.730   5.007  11.898  0.0831  0.1477 -0.2442
 2155W        W 5674   8.544   7.898   4.601 -0.0565  0.0499  0.0190
 2156W        W 5675   6.511   1.976  11.018  0.0820 -0.2948 -0.2456
 2157W        W 5676   0.819   7.554   1.227  0.1312 -0.0146 -0.1365
 2158W        W 5677   1.995   2.451  11.714 -0.0459 -0.0130 -0.1783
 2159W        W 5678   6.429   2.412   2.702 -0.3289  0.1083 -0.1133
 2160W        W 5679   5.013   0.293   1.442 -0.0439 -0.0813  0.5443
 2161W        W 5680   0.903   0.635   9.830 -0.0368 -0.1564  0.0381
 2162W        W 5681   0.903   9.185   2.794 -0.0852  0.4106  0.2581
 2163W        W 5682   0.612   8.667   1.267 -0.4090 -0.1104 -0.1671
 2164W        W 5683   9.126   3.404   9.239  0.1315 -0.0342  0.3913
 2165W        W 5684   3.318   2.400   0.416 -0.1718  0.2261  0.1715
 2166W        W 5685   7.762   1.048  10.124  0.1181  0.1248  0.2585
 2167W        W 5686   3.133   0.401  11.913  0.0045 -0.0847 -0.1694
 2168W        W 5687   1.610   9.048  10.562 -0.4228 -0.4015 -0.1049
 2169W        W 5688   6.504   9.381  11.003  0.0756  0.3826 -0.1074
 2170W        W 5689   2.683   6.445   9.430  0.0294  0.1423  0.0024
 2171W        W 5690   4.719   2.154  11.017  0.1480  0.1348 -0.0262
 2172W        W 5691   6.278   1.500   2.271 -0.2556  0.2000 -0.0250
 2173W        W 5692   4.432   9.341  10.886  0.0243 -0.0081 -0.3480
 2174W        W 5693   0.406   9.427  10.168 -0.1166 -0.1170  0.0274
 2175W        W 5694   2.789   2.190  11.020 -0.1580 -0.5385 -0.1858
 2176W        W 5695   0.710   2.836   2.961  0.1703  0.1098  0.1724
 2177W        W 5696   3.440   5.743   2.774 -0.0860  0.0618  0.0551
 2178W        W 5697   4.431   5.538   9.258  0.0379 -0.1773 -0.2799
 2179W        W 5698   4.813   6.673  12.144 -0.1990 -0.0201 -0.1159
 2180W        W 5699   4.217   2.998  10.766 -0.0681 -0.1578 -0.2435
 2181W        W 5700   3.178   3.043   9.157  0.3059  0.2506 -0.2043
 2182W        W 5701   0.154   4.340  11.248 -0.1970  0.3473 -0.2703
 2183W        W 5702   0.758   5.967   2.426 -0.2547  0.1272 -0.2810
 2184W        W 5703   1.394   7.796   1.981 -0.2792  0.1245 -0.0105
 2185W        W 5704   0.004   3.098   2.063  0.0899 -0.1502 -0.2039
 2186W        W 5705   5.223   4.727   1.895  0.0652  0.1868 -0.0191
 2187W        W 5706   9.542   8.453   1.437  0.1030 -0.2722 -0.4094
 2188W        W 5707   1.573   3.537   4.519  0.2379 -0.2188  0.0749
 2189W        W 5708   1.358   7.515   1.009 -0.3614  0.0690 -0.2253
 2190W        W 5709   8.120   7.121   9.650 -0.3473 -0.0178  0.0095
 2191W        W 5710   5.590   7.533   3.618  0.1719  0.0480 -0.0541
 2192W        W 5711   7.757   1.839   3.840 -0.0299  0.1642  0.2240
 2193W        W 5712   3.879   6.103  10.638  0.0406 -0.2321  0.0604
 2194W        W 5713   6.351   4.444  10.724  0.0455 -0.4390 -0.0239
 2195W        W 5714   2.118   4.677  11.408 -0.0681  0.0491  0.2708
 2196W        W 5715   5.428   4.603  11.313 -0.0118  0.2114 -0.1115
 2197W        W 5716   0.842   7.821   3.985 -0.0279  0.0083 -0.1220
 2198W        W 5717   6.836   7.574  12.271  0.0004  0.0817  0.1875
 2199W        W 5718   1.622   6.636   9.398  0.0579  0.1582  0.4649
 2200W        W 5719   2.784   4.036   4.334  0.4050 -0.2042  0.2167
 2201W        W 5720   6.265   0.753  11.615  0.4047 -0.2202  0.1201
 2202W        W 5721   5.735   5.993   1.981 -0.0096  0.0650 -0.1524
 2203W        W 5722   3.908   3.701   5.185  0.1881  0.1274  0.1214
 2204W        W 5723   3.506   6.874   8.147 -0.0202  0.0562 -0.3428
 2205W        W 5724   6.882   8.008   1.102 -0.1546 -0.2151 -0.1439
 2206W        W 5725   3.505   1.975   0.528  0.1193  0.1870 -0.3530
 2207W        W 5726   3.644   3.881  10.211  0.1892 -0.1098  0.1697
 2208W        W 5727   4.444   8.033   2.170 -0.0576  0.0203 -0.1688
 2209W        W 5728   3.834   5.221   4.324 -0.0559  0.0132  0.3677
 2210W        W 5729   5.770   2.586  11.774 -0.2241 -0.1474 -0.1321
 2211W        W 5730   2.641   7.360   8.612 -0.0611  0.0449  0.1337
 2212W        W 5731   2.898   1.825  10.432  0.0560  0.0769  0.3474
 2213W        W 5732   0.848   6.901   2.902  0.0261 -0.1528  0.0667
 2214W        W 5733   7.290   0.861   2.432  0.0498  0.0583 -0.1526
 2215W        W 5734   7.238   9.064   2.786  0.0347 -0.1999  0.1676
 2216W        W 5735   1.655   2.811  11.633  0.0840  0.1605 -0.0389
 2217W        W 5736   3.158   7.022   0.285 -0.4855  0.0293 -0.0482
 2218W        W 5737   7.764   8.104   2.739  0.0436  0.2308 -0.0023
 2219W        W 5738   8.384   0.341   0.455 -0.1935  0.2119 -0.0464
 2220W        W 5739   3.673   0.073   9.880 -0.1296  0.0582  0.2873
 2221W        W 5740   9.147   2.674  12.186 -0.0130 -0.1601 -0.0846
 2222W        W 5741   6.347   0.085   2.663 -0.1450  0.1610  0.0042
 2223W        W 5742   7.551   0.264  11.729 -0.2693 -0.0493 -0.1100
 2224W        W 5743   6.664   6.912   2.697 -0.2444 -0.1934  0.0598
 2225W        W 5744   8.229   4.772   1.481 -0.0211 -0.1666  0.2080
 2226W        W 5745   1.044   5.945   4.067 -0.0717  0.0781  0.1190
 2227W        W 5746   9.534   5.447   0.482  0.0693  0.0066 -0.0387
 2228W        W 5747   2.137   9.118   9.089 -0.0213 -0.2130 -0.2716
 2229W        W 5748   7.726   5.003  10.739  0.1313  0.3234  0.0231
 2230W        W 5749   2.746   0.252  10.883  0.0451 -0.0395  0.2561
 2231W        W 5750   8.873   4.332  12.570 -0.0858 -0.2108  0.1354
 2232W        W 5751   5.262   7.093   4.040  0.0546  0.1061 -0.2850
 2233W        W 5752   3.840   3.518   3.191 -0.0201 -0.1067  0.1607
 2234W        W 5753   4.971   4.223   9.183 -0.2182  0.1983 -0.0797
 2235W        W 5754   4.141   3.054  11.688 -0.2121 -0.0466 -0.1585
 2236W        W 5755   2.253   4.218  10.010  0.0290  0.0532  0.0285
 2237W        W 5756   9.609   3.963   1.242 -0.1507 -0.4263  0.1123
 2238W        W 5757   9.631   4.121   3.601 -0.0693  0.0844 -0.2304
 2239W        W 5758   6.535   5.427   2.889  0.2647  0.0978 -0.0762
 2240W        W 5759   2.567   4.771  11.638 -0.2704  0.1226 -0.0652
 2241W        W 5760   5.081   9.488   9.870  0.0595  0.0838 -0.1392
 2242W        W 5761   3.961   3.865   9.855  0.2193 -0.1055  0.0745
 2243W        W 5762   7.213   3.943  10.228 -0.0424 -0.1318  0.1446
 2244W        W 5763   6.625   3.183   1.207  0.0376 -0.0293  0.1672
 2245W        W 5764   5.490   0.699   2.934 -0.0682  0.0721  0.0501
 2246W        W 5765   0.160   7.318   2.469  0.1469 -0.0787 -0.2035
 2247W        W 5766   8.241   3.871  12.094  0.0651  0.1035  0.2250
 2248W        W 5767   4.917   5.809  12.079 -0.0350 -0.0273 -0.1645
 2249W        W 5768   7.907   4.405   2.648 -0.4497 -0.0579 -0.2398
 2250W        W 5769   5.251   5.999  10.169  0.4412 -0.0522 -0.4853
 2251W        W 5770   9.209   8.665   7.861  0.2167 -0.2424 -0.1770
 2252W        W 5771   8.130   3.745   2.426  0.0282  0.0717  0.0259
 2253W        W 5772   9.432   8.410   3.222  0.0888 -0.4958 -0.0399
 2254W        W 5773   1.840   2.911   1.025 -0.0207 -0.3702  0.1593
 2255W        W 5774   8.646   1.245  10.750  0.0743  0.1333  0.0822
 2256W        W 5775   7.886   4.327  10.060 -0.2720  0.2713  0.0251
 2257W        W 5776   7.919   1.042   3.819  0.1122 -0.1658  0.0684
 2258W        W 5777   2.317   3.406   2.633  0.1348 -0.0348 -0.1794
 2259W        W 5778   8.056   7.848   8.821 -0.0647 -0.1880  0.2193
 2260W        W 5779   0.947   6.578   2.336  0.0627 -0.0896  0.0384
 2261W        W 5780   3.683   6.555   4.810  0.3375  0.0177 -0.0440
 2262W        W 5781   3.836   5.888   1.869 -0.1838 -0.0776 -0.0424
 2263W        W 5782   8.678   7.237   8.831 -0.1405  0.3182 -0.0423
 2264W        W 5783   5.788   3.423   1.177 -0.0005 -0.1486  0.0749
 2265W        W 5784   2.583   1.877   2.008 -0.0315  0.0450  0.0073
 2266W        W 5785   6.471   0.974  11.232  0.0847 -0.1552  0.3836
 2267W        W 5786   8.485   9.602  10.860  0.2634 -0.2091  0.1773
 2268W        W 5787   0.132   8.937   2.235 -0.0578 -0.0797 -0.0954
 2269W        W 5788   2.602   7.471   9.814  0.1490  0.0154 -0.1678
 2270W        W 5789   9.459   1.248   9.688 -0.0786  0.0002 -0.1092
 2271W        W 5790   2.970   5.189  11.187 -0.2038 -0.0126 -0.2734
 2272W        W 5791   0.860   4.866   8.068  0.0477  0.0037 -0.0394
 2273W        W 5792   8.374   8.295   3.421 -0.0846  0.1620  0.1353
 2274W        W 5793   2.317   3.575  11.492 -0.2591  0.0681  0.0538
 2275W        W 5794   5.942   7.785   9.774 -0.1013  0.0209  0.0021
 2276W        W 5795   3.782   2.709   0.352 -0.3800 -0.0000  0.0954
 2277W        W 5796   2.915   9.583   2.345 -0.1002 -0.1502  0.0312
 2278W        W 5797   4.765   9.520   2.225  0.1572 -0.0458  0.2263
 2279W        W 5798   4.939   7.867   2.552 -0.2235  0.1276  0.1346
 2280W        W 5799   2.577   0.200   3.582 -0.2985 -0.2209  0.0844
 2281W        W 5800   9.463   9.183   0.058 -0.0305 -0.1025 -0.1802
 2282W        W 5801   5.708   4.600   1.962 -0.0060  0.0800  0.0625
 2283W        W 5802   1.146   4.122   9.631 -0.0975 -0.0995 -0.0651
 2284W        W 5803   2.998   9.560  11.066  0.0105  0.5346  0.2445
 2285W        W 5804   7.894   7.317   8.780  0.1759  0.1943  0.0386
 2286W        W 5805   4.444   7.233  10.534  0.0923  0.0495  0.0580
 2287W        W 5806   7.663   7.795   0.083  0.0524 -0.1955 -0.2781
 2288W        W 5807   9.068   6.569   8.882 -0.0471 -0.0568 -0.1098
 2289W        W 5808   7.865   3.607  12.219  0.2251 -0.0588  0.4027
 2290W        W 5809   7.655   0.517   3.179  0.1445 -0.0958 -0.1931
 2291W        W 5810   8.720   4.069   1.772  0.1673 -0.0394 -0.0681
 2292W        W 5811   7.697   7.457  11.592  0.1111 -0.0135 -0.1303
 2293W        W 5812   3.564   3.023   9.592 -0.1557  0.0725 -0.2803
 2294W        W 5813   9.564   1.995  12.531 -0.0672  0.1583 -0.2406
 2295W        W 5814   1.676   7.166  11.058 -0.2304  0.4325  0.3706
 2296W        W 5815   3.506   0.523   9.896 -0.1628 -0.0034 -0.2600
 2297W        W 5816   1.829   3.879   9.316 -0.1282 -0.0957 -0.2214
 2298W        W 5817   9.287   6.001   2.443 -0.0554 -0.1405  0.1895
 2299W        W 5818   7.722   1.789  10.974 -0.1648 -0.0840 -0.0346
 2300W        W 5819   3.509   6.760  11.293  0.3100  0.1655 -0.0325
 2301W        W 5820   8.382   2.992  11.167  0.0570 -0.1286 -0.0153
 2302W        W 5821   0.904   9.450   2.345  0.4285 -0.2863 -0.1467
 2303W        W 5822   2.405   6.261   3.480  0.0058 -0.1342 -0.2903
 2304W        W 5823   4.715   0.676   1.689 -0.2370  0.4371 -0.4256
 2305W        W 5824   6.396   9.025   9.496  0.2763  0.0688  0.2681
 2306W        W 5825   3.400   2.034   4.294 -0.0573  0.2359  0.1077
 2307W        W 5826   9.151   9.037   9.239  0.3004  0.2270  0.1538
 2308W        W 5827   0.992   8.047   1.859  0.2200  0.0946  0.0250
 2309W        W 5828   5.167   1.947   3.832 -0.2191 -0.1489  0.3321
 2310W        W 5829   9.417   4.389   0.940  0.0223 -0.0768 -0.1306
 2311W        W 5830   1.951   1.721   2.904 -0.1322  0.2498  0.3125
 2312W        W 5831   5.736   8.097   3.529 -0.1184 -0.0238 -0.0910
 2313W        W 5832   0.484   4.674   2.889  0.0451 -0.0024 -0.0642
 2314W        W 5833   7.375   6.153   0.896  0.1773  0.1967  0.0181
 2315W        W 5834   9.392   2.218  10.359 -0.2313  0.2943 -0.1253
 2316W        W 5835   7.054   4.752   2.323 -0.1141  0.1770 -0.0378
 2317W        W 5836   6.530   5.280  12.280 -0.0134  0.3085  0.1479
 2318W        W 5837   6.353   5.066   9.601 -0.1229  0.1203 -0.2561
 2319W        W 5838   9.061   8.191   1.415 -0.5084 -0.1374 -0.2634
 2320W        W 5839   1.311   4.167  11.754 -0.0465 -0.0278 -0.0519
 2321W        W 5840   7.245   3.637   9.763 -0.2704  0.0256  0.2308
 2322W        W 5841   3.377   5.636   9.180 -0.0403 -0.0980 -0.3053
 2323W        W 5842   7.926   3.065   3.026  0.1373  0.1282 -0.3554
 2324W        W 5843   0.520   2.485   8.881 -0.1389 -0.1903 -0.0608
 2325W        W 5844   6.343   1.886  12.236 -0.0518  0.0609 -0.3870
 2326W        W 5845   9.043   5.506   2.737 -0.3481 -0.3287  0.1731
 2327W        W 5846   9.106   0.689   4.237 -0.1681  0.1321  0.2774
 2328W        W 5847   3.071   2.101   0.037  0.0894  0.0630 -0.3355
 2329W        W 5848   3.540   2.549  10.830 -0.4269  0.0190  0.2446
 2330W        W 5849   4.457   8.107  10.580 -0.0867 -0.0228 -0.2660
 2331W        W 5850   4.128   2.886   2.445 -0.1854 -0.0066 -0.0058
 2332W        W 5851   0.366   1.425   9.477  0.1703  0.1444  0.0655
 2333W        W 5852   7.994   9.600  10.763  0.0405  0.0173 -0.5710
 2334W        W 5853   5.107   8.268   0.055  0.0158 -0.1099 -0.3257
 2335W        W 5854   8.910   4.436  10.157  0.2830  0.1264 -0.0273
 2336W        W 5855   8.003   2.291  12.159  0.0223 -0.0811 -0.0477
 2337W        W 5856   5.087   5.260   3.428 -0.2504  0.0395  0.1093
 2338W        W 5857   5.411   9.573   3.039 -0.3744 -0.2660 -0.1399
 2339W        W 5858   6.630   7.988  12.051 -0.0462 -0.1494  0.1134
 2340W        W 5859   3.829   7.727   2.021 -0.0949 -0.1470 -0.0049
 2341W        W 5860   8.160   4.953  12.362 -0.0223 -0.0149 -0.0436
 2342W        W 5861   3.235   3.928   4.242  0.1113 -0.2218 -0.0631
 2343W        W 5862   7.154   7.758   0.198  0.0094  0.1981  0.0556
 2344W        W 5863   0.230   9.154  12.366 -0.2921  0.1234  0.0057
 2345W        W 5864   5.072   0.281  10.298 -0.3294  0.0824 -0.0635
 2346W        W 5865   0.282   2.037   9.211  0.0162 -0.2239  0.2437
 2347W        W 5866   6.601   8.776   8.632  0.0729  0.1756  0.0215
 2348W        W 5867   1.420   1.303   0.067  0.0589  0.0601 -0.0283
 2349W        W 5868   4.612   4.455  11.818 -0.1721 -0.1519  0.0588
 2350W        W 5869   4.773   0.033  11.717  0.1602 -0.0151 -0.1084
 2351W        W 5870   0.751   6.807  10.009  0.0763 -0.0023  0.0248
 2352W        W 5871   3.993   0.126  10.999  0.0271  0.0185  0.0215
 2353W        W 5872   5.511   8.505  11.683 -0.1087 -0.0945 -0.3157
 2354W        W 5873   1.798   4.235   0.230  0.0969  0.1857  0.1453
 2355W        W 5874   0.277   2.194  10.184  0.0078  0.3534 -0.0650
 2356W        W 5875   1.363   8.827   2.006  0.2675 -0.1800  0.2663
 2357W        W 5876   4.568   5.330   3.139 -0.2879  0.0075  0.3687
 2358W        W 5877   5.411   7.014   3.565 -0.2332 -0.3142 -0.0047
 2359W        W 5878   2.037   6.407  11.801 -0.0516 -0.0418  0.2213
 2360W        W 5879   3.438   9.138   0.467  0.0355  0.0282 -0.1965
 2361W        W 5880   0.417   8.617  12.318  0.0521  0.0189 -0.3080
 2362W        W 5881   4.996   3.481  10.659 -0.2509 -0.0520  0.1012
 2363W        W 5882   3.442   1.276   5.046 -0.0227  0.0919 -0.1102
 2364W        W 5883   0.294   7.095   1.190 -0.0462 -0.0243  0.3076
 2365W        W 5884   5.537   3.551  10.952  0.2241  0.1926  0.2572
 2366W        W 5885   3.809   3.031  10.063  0.1079 -0.2101 -0.1296
 2367W        W 5886   5.273   9.512   1.230  0.0135  0.0555 -0.3515
 2368W        W 5887   1.350   6.635   8.861  0.0165  0.1184  0.0300
 2369W        W 5888   2.015   3.264   1.615  0.3286 -0.1333  0.0288
 2370W        W 5889   0.465   1.501   4.060 -0.0607 -0.1139 -0.0252
 2371W        W 5890   1.784   3.930  10.799 -0.1117 -0.1616 -0.0306
 2372W        W 5891   9.488   5.815   9.521 -0.1284  0.0312 -0.0669
 2373W        W 5892   4.006   0.667   2.292  0.2151 -0.0915 -0.1334
 2374W        W 5893   2.030   0.910  12.338  0.1763 -0.0505  0.1278
 2375W        W 5894   4.232   3.106   1.142  0.2413 -0.2529 -0.0252
 2376W        W 5895   0.595   8.201   9.507 -0.2115  0.1530  0.1352
 2377W        W 5896   4.581   5.970   9.318  0.1766 -0.1946 -0.2585
 2378W        W 5897   6.240   6.671   0.972 -0.1732  0.2189  0.0169
 2379W        W 5898   5.524   5.325   9.526 -0.1090 -0.0868 -0.0635
 2380W        W 5899   4.546   1.601   0.128 -0.0675  0.2152  0.1845
 2381W        W 5900   3.221   2.566  12.407 -0.0424  0.0820 -0.0345
 2382W        W 5901   3.714   2.152  10.531  0.0097  0.1188  0.1125
 2383W        W 5902   6.545   8.396   9.977 -0.0205 -0.2155 -0.0913
 2384W        W 5903   6.210   7.863  11.105  0.1261  0.1601  0.0439
 2385W        W 5904   5.561   1.842  10.224 -0.2732  0.0251  0.0922
 2386W        W 5905   9.529   0.839  12.270  0.1196  0.0656  0.0452
 2387W        W 5906   6.038   9.231   0.315  0.3287 -0.0864  0.1925
 2388W        W 5907   0.212   1.253  10.028 -0.2099  0.1336  0.1302
 2389W        W 5908   5.336   5.982  12.220 -0.2199  0.0886  0.0205
 2390W        W 5909   3.984   3.824   4.162  0.0841  0.1180  0.0298
 2391W        W 5910   6.680   3.135  11.169  0.1005  0.1621  0.0285
 2392W        W 5911   7.778   1.235   0.183 -0.0102  0.1796 -0.0027
 2393W        W 5912   9.140   3.338   2.623  0.0885 -0.1499  0.0035
 2394W        W 5913   7.654   0.393   8.750  0.1077  0.1497 -0.1582
 2395W        W 5914   4.343   9.589   8.947  0.0214  0.0119  0.0103
 2396W        W 5915   4.974   5.021   5.013  0.0711 -0.0690 -0.3889
 2397W        W 5916   1.111   8.118  10.313  0.1442 -0.0785 -0.0176
 2398W        W 5917   4.383   2.675   0.516 -0.1113  0.0897  0.2579
 2399W        W 5918   1.342   0.673   8.493  0.0932 -0.0142  0.2744
 2400W        W 5919   4.412   1.375   9.537 -0.1402 -0.2887  0.4227
 2401W        W 5920   6.142   3.709  12.010  0.2292 -0.1267  0.0225
 2402W        W 5921   0.812   3.815  11.962  0.0142  0.2127 -0.0532
 2403W        W 5922   2.783   2.387  11.906  0.1375  0.1541 -0.3695
 2404W        W 5923   3.362   7.447   0.075  0.0921  0.1024  0.0046
 2405W        W 5924   5.542   8.378   3.214 -0.1108  0.2147  0.2256
 2406W        W 5925   1.126   6.660   9.723  0.3112  0.2242 -0.3785
 2407W        W 5926   0.313   0.888   2.126  0.1730  0.1338  0.1542
 2408W        W 5927   3.420   9.363  11.833  0.1756  0.1475  0.0941
 2409W        W 5928   1.492   9.509   3.554 -0.0162  0.1288  0.1130
 2410W        W 5929   9.166   8.277  12.221  0.2419 -0.0288  0.3706
 2411W        W 5930   5.264   9.299  11.068  0.1120  0.2344  0.3717
 2412W        W 5931   2.403   8.760  10.042 -0.1118 -0.1313  0.0714
 2413W        W 5932   2.045   7.733   9.381  0.1227  0.0196 -0.0659
 2414W        W 5933   8.458   8.125  11.574  0.0318  0.2193 -0.1107
 2415W        W 5934   6.956   8.438   4.054  0.0878 -0.1228  0.2194
 2416W        W 5935   0.183   1.126  11.034  0.2454  0.2707  0.0647
 2417W        W 5936   8.707   9.170   3.095  0.0820  0.0981  0.0221
 2418W        W 5937   6.273   0.134   1.218 -0.1716  0.1374 -0.2425
 2419W        W 5938   4.936   0.033  12.216  0.0824  0.0773 -0.0496
 2420W        W 5939   9.553   5.321  10.406  0.0659 -0.1920 -0.5436
 2421W        W 5940   9.399   3.083   3.901  0.2006  0.0392  0.2704
 2422W        W 5941   3.049   1.938   9.324  0.2561 -0.3788 -0.0377
 2423W        W 5942   2.456   2.999   0.070 -0.1287  0.0142 -0.1257
 2424W        W 5943   7.599   3.964   9.849 -0.0005 -0.1124 -0.0466
 2425W        W 5944   7.771   4.061   1.691 -0.1860 -0.1750 -0.2346
 2426W        W 5945   5.732   5.018   4.256 -0.1660 -0.2719 -0.0954
 2427W        W 5946   9.182   2.674  10.576 -0.1344  0.0298 -0.1578
 2428W        W 5947   7.414   6.384  10.222 -0.1217 -0.1841 -0.3498
 2429W        W 5948   7.535   4.304   0.819  0.0257  0.1506 -0.1860
 2430W        W 5949   3.933   1.992   3.155 -0.0236  0.2245  0.2859
 2431W        W 5950   6.696   6.960  11.249 -0.1162 -0.0377 -0.0860
 2432W        W 5951   6.070   2.318  10.955 -0.3113  0.0230  0.0478
 2433W        W 5952   0.173   4.261  12.529 -0.0429 -0.0216 -0.0152
 2434W        W 5953   3.303   3.152   2.438 -0.2020 -0.1005  0.0554
 2435W        W 5954   3.257   8.597   0.941 -0.1533  0.2729  0.2752
 2436W        W 5955   3.401   7.974   8.750  0.0284  0.1190 -0.2007
 2437W        W 5956   1.155   5.978   1.909  0.1229  0.0170 -0.2295
 2438W        W 5957   1.253   9.374  10.835  0.1930  0.1928 -0.0280
 2439W        W 5958   1.270   1.455   9.572 -0.0324 -0.0296 -0.1968
 2440W        W 5959   5.610   6.376   2.971 -0.3318 -0.1376 -0.2395
 2441W        W 5960   8.763   4.227   9.721 -0.1470 -0.1483 -0.2606
 2442W        W 5961   4.443   3.822   8.138  0.3156  0.2584 -0.2860
 2443W        W 5962   5.440   5.472   1.641 -0.2344 -0.1406  0.0624
 2444W        W 5963   0.687   3.654   1.766  0.3806  0.0219  0.2334
 2445W        W 5964   4.010   3.903  10.553 -0.0241 -0.3260 -0.1350
 2446W        W 5965   6.351   9.478   3.055  0.0952  0.3075 -0.2249
 2447W        W 5966   2.539   7.310   2.293 -0.0757  0.2002 -0.0633
 2448W        W 5967   4.143   1.257   1.223  0.0240 -0.1793 -0.1622
 2449W        W 5968   3.183   7.276  12.151 -0.4566  0.2169  0.1238
 2450W        W 5969   7.875   6.016   0.886 -0.0133  0.1928 -0.3163
 2451W        W 5970   6.440   8.632  11.488 -0.3289  0.5107  0.2881
 2452W        W 5971   8.811   0.747   2.638 -0.3043 -0.1551  0.0047
 2453W        W 5972   5.186   0.718   1.247 -0.1835 -0.0321  0.3262
 2454W        W 5973   1.843   2.577   4.669 -0.1845  0.1878  0.0692
 2455W        W 5974   0.691   2.462   3.690  0.0725  0.0161  0.0668
 2456W        W 5975   9.221   0.428  12.469  0.3129 -0.0124  0.1721
 2457W        W 5976   8.477   8.688   2.327 -0.0436 -0.0960 -0.1170
 2458W        W 5977   7.125   6.677   3.329  0.1732 -0.0239  0.0897
 2459W        W 5978   7.784   9.122  10.538 -0.0802  0.0118 -0.2891
 2460W        W 5979   4.395   7.753   8.306 -0.0153 -0.2109 -0.1090
 2461W        W 5980   8.004   0.236   9.621 -0.1399  0.1266 -0.1288
 2462W        W 5981   5.920   7.629  10.258  0.2378 -0.0930  0.0738
 2463W        W 5982   0.259   4.587   1.873 -0.1914  0.1264 -0.2117
 2464W        W 5983   0.385   9.059   9.728 -0.0511 -0.3080 -0.0702
 2465W        W 5984   0.767   7.529  10.649 -0.0588  0.0669  0.1724
 2466W        W 5985   2.088   4.382   9.508  0.0766  0.0063 -0.3170
 2467W        W 5986   2.880   1.756   0.979  0.0015 -0.3038  0.2577
 2468W        W 5987   0.065   0.040   1.791  0.1111 -0.0511 -0.1883
 2469W        W 5988   6.857   1.035  11.584 -0.1373 -0.1980 -0.1605
 2470W        W 5989   3.140   0.915   9.964  0.1712  0.2159  0.2922
 2471W        W 5990   8.286   9.308   3.625 -0.0441 -0.0532 -0.1149
 2472W        W 5991   5.169   4.100  11.531  0.2363 -0.1018  0.0984
 2473W        W 5992   7.208   3.852   8.633 -0.0152  0.0267  0.1457
 2474W        W 5993   6.818   8.992   3.189 -0.1765  0.1390  0.1963
 2475W        W 5994   0.580   0.173  12.421  0.3415  0.2460 -0.0929
 2476W        W 5995   1.664   2.056  11.892  0.0413 -0.0060  0.0483
 2477W        W 5996   4.106   9.037  10.395 -0.1388  0.1166  0.1772
 2478W        W 5997   5.593   5.998  11.621 -0.0679 -0.0092 -0.0123
 2479W        W 5998   1.970   7.636   4.107  0.3068 -0.1401 -0.1469
 2480W        W 5999   7.252   7.411   2.128 -0.0064  0.0972  0.0773
 2481W        W 6000   8.607   2.053  11.475 -0.3045 -0.2374 -0.0759
 2482W        W 6001   5.496   5.498   4.123 -0.2733  0.0719 -0.0495
 2483W        W 6002   4.686   6.426   1.689  0.0015 -0.0523  0.2950
 2484W        W 6003   1.221   4.759   9.119 -0.1745  0.0420 -0.0118
 2485W        W 6004   1.471   0.811   2.994 -0.0860  0.0458 -0.0024
 2486W        W 6005   8.406   4.450  10.192  0.2137  0.0686  0.0414
 2487W        W 6006   0.553   3.314   0.614  0.0437 -0.0189  0.0893
 2488W        W 6007   0.393   1.618   2.882  0.0836 -0.0737  0.0771
 2489W        W 6008   0.192   4.711   8.375  0.3138  0.1855  0.2988
 2490W        W 6009   4.933   3.720   9.811 -0.1319 -0.1338  0.1637
 2491W        W 6010   0.922   4.979   2.885 -0.1534  0.1830 -0.1773
 2492W        W 6011   6.714   3.334  10.286 -0.1832 -0.0385  0.0254
 2493W        W 6012   4.620   6.550   9.329  0.0684  0.1915 -0.2597
 2494W        W 6013   2.019   8.331   0.151 -0.1564  0.3522 -0.0289
 2495W        W 6014   0.201   0.581   3.135  0.0345 -0.2713 -0.1968
 2496W        W 6015   6.049   3.077   3.887  0.0301 -0.0413 -0.1667
 2497W        W 6016   1.861   2.430   3.802  0.0951 -0.0594 -0.2366
 2498W        W 6017   9.230   4.862   0.997 -0.2390 -0.2188  0.1268
 2499W        W 6018   8.512   2.728   0.426  0.1931 -0.1383  0.0266
 2500W        W 6019   7.111   7.281   2.748  0.2541 -0.0682 -0.1120
 2501W        W 6020   8.179   4.620  11.949 -0.0935 -0.0633  0.1323
 2502W        W 6021   5.745   3.998  10.049  0.3304  0.2024 -0.2153
 2503W        W 6022   3.618   4.828   1.011  0.4218 -0.1342  0.2213
 2504W        W 6023   8.628   0.589  11.003  0.0375  0.2062  0.4183
 2505W        W 6024   7.247   1.452  12.567 -0.1704 -0.0915 -0.0087
 2506W        W 6025   5.750   7.924   1.656 -0.2181 -0.1643  0.1354
 2507W        W 6026   5.032   6.853  10.133 -0.1317 -0.0550  0.2681
 2508W        W 6027   2.730   4.498  12.507  0.1892  0.2241  0.1829
 2509W        W 6028   9.034   0.709   0.742 -0.2452 -0.3730 -0.3275
 2510W        W 6029   5.150   2.645   1.169 -0.2772 -0.3703 -0.2134
 2511W        W 6030   5.377   2.013   9.307  0.1205  0.2441 -0.0915
 2512W        W 6031   8.417   6.970   2.726 -0.1156  0.0525 -0.1134
 2513W        W 6032   4.943   0.017   8.970 -0.2247  0.3907 -0.2189
 2514W        W 6033   3.944   9.032   4.370 -0.2026  0.0465  0.1511
 2515W        W 6034   2.208   4.115   4.957 -0.1600  0.1804 -0.1468
 2516W        W 6035   3.314   9.142   4.183 -0.0658 -0.0287 -0.1089
 2517W        W 6036   2.902   4.749   9.521  0.0392  0.0570  0.1912
 2518W        W 6037   3.418   7.300  10.219  0.0175  0.3212 -0.1641
 2519W        W 6038   6.250   5.606   1.261 -0.0530  0.0340 -0.0079
 2520W        W 6039   7.634   5.637   3.988  0.0309  0.0924 -0.1091
 2521W        W 6040   8.387   8.766   2.969  0.2140  0.0709  0.0977
 2522W        W 6041   0.986   1.409   0.238 -0.0797 -0.0530 -0.0927
 2523W        W 6042   2.841   5.954   9.264  0.0199 -0.0322 -0.1559
 2524W        W 6043   4.217   3.338   1.936  0.1590 -0.1607  0.1262
 2525W        W 6044   7.427   3.318   3.614  0.2356  0.0052  0.0825
 2526W        W 6045   0.072   9.270  11.227  0.1057 -0.2950  0.0960
 2527W        W 6046   1.565   4.106   1.533 -0.0360 -0.3438 -0.2506
 2528W        W 6047   6.070   6.700   1.973 -0.0327  0.0919 -0.2132
 2529W        W 6048   5.457   5.557   0.763 -0.0757  0.1605  0.1941
 2530W        W 6049   4.338   6.616  12.365 -0.1124  0.1623 -0.0113
 2531W        W 6050   7.128   8.555   1.161 -0.0013 -0.1244  0.0542
 2532W        W 6051   0.241   0.304   0.317 -0.1207  0.0262  0.0902
 2533W        W 6052   4.012   3.448  10.720  0.2038 -0.1194 -0.0450
 2534W        W 6053   4.611   5.209   4.026  0.1454  0.0210 -0.2841
 2535W        W 6054   6.678   7.771   8.372 -0.0413  0.5504  0.0069
 2536W        W 6055   6.945   6.527  11.345 -0.0111 -0.2506  0.2221
 2537W        W 6056   5.176   3.626   3.282 -0.0559  0.0288 -0.0815
 2538W        W 6057   6.836   2.083   0.346 -0.0992  0.2068 -0.2829
 2539W        W 6058   8.178   1.825  10.097  0.4493 -0.0563 -0.1559
 2540W        W 6059   5.212   8.072  11.848  0.0356 -0.2028  0.2382
 2541W        W 6060   0.691   6.396   9.512 -0.0747 -0.1751  0.1590
 2542W        W 6061   6.816   5.378   9.546  0.0770 -0.1184 -0.1228
 2543W        W 6062   2.549   3.854   3.016 -0.1406  0.0250  0.2020
 2544W        W 6063   1.882   5.105  12.416 -0.1048  0.0502 -0.1729
 2545W        W 6064   4.027   9.287   8.252 -0.1795 -0.0190 -0.1794
 2546W        W 6065   4.367   8.307   9.654  0.1616 -0.1348 -0.0142
 2547W        W 6066   8.423   9.094  11.581  0.0320 -0.2276  0.2013
 2548W        W 6067   7.576   9.592   1.671  0.0029  0.4751 -0.1992
 2549W        W 6068   8.909   6.399   2.353 -0.2263 -0.1879 -0.0525
 2550W        W 6069   0.181   8.576   0.984 -0.2444 -0.1074 -0.0851
 2551W        W 6070   3.587   4.406  12.199 -0.0904 -0.2718  0.1152
 2552W        W 6071   6.938   5.865   4.432  0.0181 -0.0803 -0.3325
 2553W        W 6072   0.508   2.820   0.395  0.1481  0.2769 -0.1959
 2554W        W 6073   4.919   7.927   9.102  0.3111  0.1349 -0.1549
 2555W        W 6074   1.385   7.084   9.241  0.1669 -0.2746  0.0763
 2556W        W 6075   8.614   7.165  10.624 -0.1056 -0.0621  0.0795
 2557W        W 6076   8.745   5.077  11.128 -0.3736 -0.2478  0.2204
 2558W        W 6077   8.716   4.473   9.306 -0.0019  0.3776 -0.2934
 2559W        W 6078   4.586   6.782   9.737 -0.3818  0.0288  0.1350
 2560W        W 6079   2.167   7.180   4.179  0.0695 -0.2693 -0.0728
 2561W        W 6080   9.425   0.926  10.539 -0.4882  0.0588  0.2103
 2562W        W 6081   8.279   6.995   8.634  0.2173  0.0155  0.0866
 2563W        W 6082   6.417   6.313   0.123 -0.1558 -0.0547 -0.2441
 2564W        W 6083   9.375   1.890  10.875 -0.6159  0.1662  0.0486
 2565W        W 6084   2.778   9.234   9.746 -0.0188 -0.4459 -0.0728
 2566W        W 6085   9.262   1.169   8.818  0.0663  0.0045 -0.0237
 2567W        W 6086   2.976   1.781   3.047  0.0658  0.0092  0.1992
 2568W        W 6087   7.269   4.864  10.403  0.0893  0.1832 -0.2475
 2569W        W 6088   2.689   7.778   1.981 -0.1011  0.2718 -0.0408
 2570W        W 6089   2.899   7.078   3.875  0.1723  0.2246  0.0973
 2571W        W 6090   1.729   2.099   8.183 -0.2674  0.1662  0.0414
 2572W        W 6091   1.016   8.901   8.400 -0.0114  0.3027 -0.2097
 2573W        W 6092   7.312   3.064   2.747  0.2218  0.0756 -0.2888
 2574W        W 6093   1.551   4.845   1.511 -0.2185  0.1716 -0.1987
 2575W        W 6094   5.288   7.299   1.779 -0.3261 -0.4190 -0.2973
 2576W        W 6095   6.408   1.696   0.235 -0.4043 -0.3023 -0.2082
 2577W        W 6096   9.460   1.277  11.990  0.3121  0.0102  0.4070
 2578W        W 6097   8.127   0.788   1.129  0.2841 -0.1277 -0.3074
 2579W        W 6098   4.545   4.578  12.551 -0.1249  0.1246  0.0933
 2580W        W 6099   3.682   6.352  11.647  0.0142 -0.2695  0.1393
 2581W        W 6100   0.826   8.316   0.101 -0.0558 -0.2204 -0.0879
 2582W        W 6101   7.241   5.057  10.937 -0.0764  0.1484 -0.0286
 2583W        W 6102   8.443   5.925  12.279  0.1860 -0.0542  0.0943
 2584W        W 6103   4.578   0.907   4.254  0.1244  0.1285  0.0254
 2585W        W 6104   5.582   3.863  10.556  0.0981 -0.1860  0.1640
 2586W        W 6105   6.762   9.612   9.907 -0.3559 -0.1322  0.3392
 2587W        W 6106   1.597   5.152   3.690 -0.0741 -0.2048 -0.2115
 2588W        W 6107   1.318   7.214  11.380  0.0657 -0.1403 -0.1530
 2589W        W 6108   4.964   1.871  12.452  0.1607  0.0217  0.2422
 2590W        W 6109   7.673   0.499   3.686  0.0094  0.5195 -0.1278
 2591W        W 6110   6.125   2.207  11.578 -0.3084  0.3434  0.1235
 2592W        W 6111   5.458   3.293  10.502  0.3293 -0.2695  0.0676
 2593W        W 6112   3.015   9.365   1.862  0.0778 -0.0044  0.0953
 2594W        W 6113   3.785   1.395  12.127  0.1559  0.1648  0.2355
 2595W        W 6114   3.764   9.051  11.635  0.0812  0.0889  0.1345
 2596W        W 6115   3.464   1.699   3.959  0.1396  0.0378 -0.0382
 2597W        W 6116   8.697   8.700   0.177 -0.0862 -0.3739 -0.1499
 2598W        W 6117   6.732   5.297   8.867 -0.0382 -0.3616  0.0229
 2599W        W 6118   1.382   2.550   3.399  0.1424  0.0693  0.2073
 2600W        W 6119   9.173   3.009   2.099 -0.0496  0.1848  0.0581
 2601W        W 6120   5.787   0.341  12.208 -0.2554  0.2292 -0.2115
 2602W        W 6121   1.549   2.687   4.096  0.0687  0.1415 -0.5148
 2603W        W 6122   0.630   1.836   9.478 -0.1818 -0.1687  0.2121
 2604W        W 6123   4.600   8.772  12.151  0.1468  0.0876  0.1666
 2605W        W 6124   2.833   1.669   9.009 -0.1511 -0.0710 -0.1853
 2606W        W 6125   8.399   7.686   4.012 -0.4772  0.1384  0.2879
 2607W        W 6126   1.710   8.731   3.935 -0.2689 -0.1189  0.1077
 2608W        W 6127   7.082   0.648   1.189 -0.3710 -0.1340  0.1209
 2609W        W 6128   8.203   7.781  11.284  0.3167  0.0260  0.3616
 2610W        W 6129   4.234   1.178   3.427 -0.0267 -0.5180  0.0434
 2611W        W 6130   6.734   7.967   9.326  0.1668  0.1251 -0.0356
 2612W        W 6131   7.930   7.326  10.480  0.2562  0.1642 -0.0045
 2613W        W 6132   2.169   3.767  10.247 -0.1284 -0.0798 -0.2482
 2614W        W 6133   4.984   6.204   9.403  0.3720  0.1468  0.0476
 2615W        W 6134   0.348   5.941   1.422 -0.1679 -0.3047 -0.1706
 2616W        W 6135   3.594   5.036   9.871 -0.2082  0.0722 -0.0595
 2617W        W 6136   0.858   6.406   2.800 -0.3138 -0.3259  0.0514
 2618W        W 6137   7.093   5.463   1.656 -0.4119 -0.0641 -0.2365
 2619W        W 6138   4.940   9.191  12.138 -0.1331 -0.3500  0.3967
 2620W        W 6139   4.984   7.282  11.581 -0.0343 -0.1785  0.2175
 2621W        W 6140   9.401   8.653   2.268 -0.1147 -0.0364  0.1427
 2622W        W 6141   6.367   6.749  10.172 -0.0192 -0.0781 -0.0620
 2623W        W 6142   7.885   6.818   2.302 -0.0978  0.2136  0.0083
 2624W        W 6143   0.411   1.879   8.175  0.3545  0.2904 -0.0584
 2625W        W 6144   2.168   5.695   0.676  0.0032 -0.1486 -0.0553
 2626W        W 6145   6.375   3.733  10.323  0.0243  0.0495 -0.0667
 2627W        W 6146   6.653   6.982  11.873  0.0946  0.1340  0.0180
 2628W        W 6147   6.021   3.052  11.983 -0.0701 -0.0656  0.5070
 2629W        W 6148   4.303   0.670   2.720  0.1270 -0.0747  0.0275
 2630W        W 6149   4.045   5.269   1.933 -0.2747  0.2110  0.1492
 2631W        W 6150   8.240   2.292   1.269  0.0247  0.3281  0.2290
 2632W        W 6151   7.337   4.312   9.571 -0.0967  0.0877 -0.1131
 2633W        W 6152   8.945   6.982  11.971 -0.0481  0.2101  0.3323
 2634W        W 6153   7.820   5.580   3.472  0.1910  0.0673 -0.0635
 2635W        W 6154   3.263   6.410  12.277 -0.2581  0.3028  0.1702
 2636W        W 6155   7.015   8.286   0.666  0.1821 -0.1251 -0.4737
 2637W        W 6156   0.090   2.139   9.681 -0.0769  0.2553  0.2555
 2638W        W 6157   5.116   7.430   9.348  0.1397 -0.0825  0.0269
 2639W        W 6158   0.343   5.411   8.677 -0.1261  0.0134 -0.0689
 2640W        W 6159   5.628   3.598   9.628  0.0621  0.1931 -0.0742
 2641W        W 6160   4.366   3.887  10.165  0.0490 -0.0373  0.1076
 2642W        W 6161   3.919   2.045  12.188  0.2160 -0.0316 -0.0237
 2643W        W 6162   1.792   0.794   2.643  0.2058 -0.2550 -0.4298
 2644W        W 6163   9.108   6.059   9.324  0.0633 -0.0282 -0.1823
 2645W        W 6164   0.306   5.032   9.411 -0.0914 -0.0345 -0.0230
 2646W        W 6165   4.448   5.291   2.263  0.4159  0.1464 -0.1835
 2647W        W 6166   4.070   7.597   4.565 -0.0836 -0.0931 -0.0050
 2648W        W 6167   6.134   1.418  12.099 -0.0108 -0.0408 -0.1497
 2649W        W 6168   6.084   4.268  10.368  0.3885 -0.1565 -0.0199
 2650W        W 6169   0.217   7.283   0.460 -0.1211  0.1711  0.0729
 2651W        W 6170   0.756   8.427   0.881 -0.0242  0.0687  0.2811
 2652W        W 6171   4.428   1.191  11.956  0.2395 -0.0099  0.1550
 2653W        W 6172   9.216   5.902  10.667 -0.0839 -0.1029 -0.1812
 2654W        W 6173   4.862   7.344   2.726 -0.0561  0.0941 -0.1631
 2655W        W 6174   6.238   9.223   0.969 -0.0571 -0.0592 -0.0944
 2656W        W 6175   6.100   1.299   2.840 -0.4293 -0.1454  0.1325
 2657W        W 6176   5.060   1.427  11.170  0.0576  0.0400  0.0925
 2658W        W 6177   2.619   1.360   0.823  0.0748  0.1037 -0.1187
 2659W        W 6178   6.931   9.515  10.847 -0.0325 -0.0168 -0.0849
 2660W        W 6179   2.700   5.538  10.056  0.3093  0.0778  0.0660
 2661W        W 6180   8.735   3.463   3.090 -0.3544 -0.0562  0.1384
 2662W        W 6181   2.795   7.885  10.068  0.1526 -0.0325 -0.1914
 2663W        W 6182   8.614   4.969   0.181 -0.1675  0.3662 -0.2110
 2664W        W 6183   7.285   6.020   9.330 -0.1819  0.0828 -0.1587
 2665W        W 6184   2.273   4.281  12.585  0.2407  0.1598 -0.0526
 2666W        W 6185   6.661   4.427   9.341  0.4802  0.1657  0.0330
 2667W        W 6186   8.210   8.709   9.077 -0.1825 -0.1664  0.2645
 2668W        W 6187   1.519   6.000  10.115 -0.0333 -0.1364 -0.1325
 2669W        W 6188   6.027   4.517   8.507  0.1711 -0.0057 -0.1248
 2670W        W 6189   8.147   0.873   0.509  0.0510  0.2073  0.0148
 2671W        W 6190   6.154   6.200   4.309  0.3022  0.0484  0.4664
 2672W        W 6191   6.340   3.616   1.168 -0.0105 -0.0896 -0.0318
 2673W        W 6192   0.134   8.071   9.181 -0.1140  0.0156 -0.1964
 2674W        W 6193   5.906   1.287   0.340 -0.2678  0.1405 -0.1297
 2675W        W 6194   8.234   6.309   9.052  0.2690 -0.0104  0.2159
 2676W        W 6195   8.580   2.650   1.543  0.3374  0.0109 -0.1094
 2677W        W 6196   8.789   0.941  11.759 -0.0120  0.0851 -0.2319
 2678W        W 6197   0.894   2.417  10.274  0.2316  0.2855 -0.0801
 2679W        W 6198   0.856   5.378  11.339  0.2964 -0.0906  0.0234
 2680W        W 6199   8.165   0.465   2.104 -0.0154  0.1671 -0.1627
 2681W        W 6200   8.501   8.381   9.475 -0.2449 -0.3513  0.4282
 2682W        W 6201   8.011   5.804   1.317  0.1575  0.1695 -0.0073
 2683W        W 6202   9.387   5.657  10.007  0.0814  0.1726 -0.0595
 2684W        W 6203   1.827   1.927   0.785  0.0022 -0.0924 -0.5725
 2685W        W 6204   6.889   1.492   1.291 -0.0358  0.2984  0.1852
 2686W        W 6205   5.955   9.674   9.692  0.0634  0.0651 -0.1238
 2687W        W 6206   6.643   7.309   8.251 -0.1080  0.1170 -0.0873
 2688W        W 6207   6.940   3.996   3.269 -0.3293 -0.1726  0.1736
 2689W        W 6208   2.552   6.272  12.251 -0.3176  0.1029  0.3442
 2690W        W 6209   4.622   0.883   0.779  0.0951  0.4095  0.0501
 2691W        W 6210   7.175   9.219   9.242 -0.1162 -0.1029  0.2467
 2692W        W 6211   8.843   7.379  10.125  0.1035 -0.3462  0.1991
 2693W        W 6212   3.812   9.619   2.278  0.3895 -0.3239 -0.0819
 2694W        W 6213   0.461   4.159   3.405  0.1054  0.1353 -0.1602
 2695W        W 6214   5.646   2.392   9.467  0.0704 -0.0777  0.2567
 2696W        W 6215   4.990   4.616  11.565 -0.2675  0.0224 -0.2967
 2697W        W 6216   7.616   3.408  11.482 -0.0912 -0.0383 -0.0820
 2698W        W 6217   7.104   3.991   1.091  0.1138  0.2127  0.0470
 2699W        W 6218   7.244   5.018   0.073 -0.0494 -0.1963  0.0898
 2700W        W 6219   6.920   6.289   0.099 -0.0048  0.2519  0.1293
 2701W        W 6220   6.645   6.535   8.814  0.0692  0.0603  0.2794
 2702W        W 6221   0.956   8.719   0.456  0.1509  0.1088 -0.1289
 2703W        W 6222   5.408   3.123   1.089  0.1883 -0.0160  0.0840
 2704W        W 6223   9.632   3.889   0.188 -0.2004 -0.0797  0.3213
 2705W        W 6224   5.337   7.385   0.505  0.0729 -0.0262  0.1108
 2706W        W 6225   0.654   0.697   9.169 -0.1637  0.0092  0.0872
 2707W        W 6226   7.246   9.559   2.885  0.3402 -0.0194 -0.2079
 2708W        W 6227   8.918   7.379   0.241 -0.1467  0.0123  0.0745
 2709W        W 6228   1.910   7.811  11.955  0.1704 -0.0018  0.1399
 2710W        W 6229   3.476   1.662   9.516 -0.1164 -0.1631 -0.1054
 2711W        W 6230   1.391   0.549   0.932  0.2226  0.1879 -0.0297
 2712W        W 6231   5.428   5.691   8.735  0.4676 -0.0484 -0.0547
 2713W        W 6232   2.833   1.358  10.117 -0.0201 -0.0104 -0.2356
 2714W        W 6233   8.192   4.322   1.663  0.0161  0.0742 -0.1008
 2715W        W 6234   8.689   5.475   3.966  0.5066  0.1929  0.0599
 2716W        W 6235   9.337   0.384   3.932 -0.0434  0.1912 -0.1919
 2717W        W 6236   8.893   6.527   1.840 -0.3411  0.3320 -0.0461
 2718W        W 6237   9.451   5.358   4.297  0.1955 -0.1402 -0.4785
 2719W        W 6238   3.170   7.840   2.786 -0.0466 -0.2098  0.0602
 2720W        W 6239   7.370   1.758   1.094 -0.3398 -0.0147 -0.1692
 2721W        W 6240   9.122   1.819  10.435 -0.2758 -0.2922 -0.0575
 2722W        W 6241   6.214   3.572   0.359  0.1103  0.0309 -0.0111
 2723W        W 6242   2.954   2.408   9.772 -0.0572 -0.1495 -0.0781
 2724W        W 6243   3.723   3.849   0.987 -0.0881  0.2128  0.4117
 2725W        W 6244   3.836   5.850   4.161 -0.1013  0.1382  0.0785
 2726W        W 6245   5.134   3.447   0.135  0.2782 -0.1347  0.4889
 2727W        W 6246   9.141   9.232  11.170  0.2015  0.0883 -0.1733
 2728W        W 6247   2.733   3.668   1.973  0.0763  0.1180  0.4500
 2729W        W 6248   2.657   2.260   8.484 -0.0583  0.1479  0.1414
 2730W        W 6249   3.877   4.951  12.134  0.1562 -0.4312  0.3329
 2731W        W 6250   3.885   0.285   9.259  0.0130  0.5307 -0.0074
 2732W        W 6251   7.822   0.102  11.283  0.2510 -0.1511  0.1384
 2733W        W 6252   4.553   1.117   9.908 -0.3775 -0.0811  0.1944
 2734W        W 6253   7.286   1.919   0.402  0.2457 -0.0077  0.1290
 2735W        W 6254   8.481   7.652   9.958  0.3695 -0.0940 -0.1817
 2736W        W 6255   9.053   2.212  11.086  0.0184 -0.0387  0.0235
 2737W        W 6256   4.031   5.472  12.076  0.0960 -0.2937  0.3356
 2738W        W 6257   5.704   8.027   7.940  0.0240  0.2803  0.3076
 2739W        W 6258   0.597   8.002  10.565 -0.1209  0.1272 -0.0174
 2740W        W 6259   7.354   8.136   1.004  0.0961 -0.0763 -0.0547
 2741W        W 6260   9.140   1.763   3.405  0.3789 -0.2785 -0.0234
 2742W        W 6261   1.401   4.131   8.445  0.0939  0.1715 -0.1633
 2743W        W 6262   4.955   6.550   2.156 -0.5406  0.0158 -0.1637
 2744W        W 6263   9.661   2.855  12.210 -0.4048 -0.1362  0.1189
 2745W        W 6264   8.819   8.812   9.690  0.0084  0.0640  0.2203
 2746W        W 6265   3.005   8.524  11.884  0.2142 -0.1567 -0.1618
 2747W        W 6266   3.363   0.777   2.963 -0.2802  0.1290  0.3231
 2748W        W 6267   4.362   6.168  11.160 -0.1137 -0.0535 -0.1000
 2749W        W 6268   7.556   5.120   4.059  0.2064 -0.2294 -0.2130
 2750W        W 6269   7.453   2.194  12.281 -0.0574 -0.1651  0.3942
 2751W        W 6270   4.907   3.151   1.141 -0.4071  0.1559  0.0122
 2752W        W 6271   9.246   2.038  11.539 -0.0685  0.1226 -0.3207
 2753W        W 6272   1.426   0.540   9.684 -0.4037 -0.0929  0.0714
 2754W        W 6273   5.754   9.565   8.737  0.1801 -0.5227 -0.1039
 2755W        W 6274   1.875   3.868  12.361  0.1727  0.0523 -0.1800
 2756W        W 6275   1.015   3.909  10.046  0.1472 -0.0596  0.1397
 2757W        W 6276   9.522   8.117   1.102 -0.2748  0.0147  0.0048
 2758W        W 6277   1.615   5.389   0.117  0.3081 -0.0218  0.0922
 2759W        W 6278   3.024   3.814   0.744  0.0259  0.0028  0.1086
 2760W        W 6279   9.043   7.702   3.162 -0.0923 -0.3277  0.0013
 2761W        W 6280   6.696   4.863  10.726  0.2696 -0.1289  0.1395
 2762W        W 6281   6.504   2.794   1.484  0.1333  0.0856  0.1557
 2763W        W 6282   2.058   1.921   9.498 -0.1483  0.0184  0.2797
 2764W        W 6283   2.096   4.086   3.132  0.0015 -0.1078 -0.1495
 2765W        W 6284   7.516   3.260   2.288 -0.0952  0.0292 -0.0457
 2766W        W 6285   3.078   5.628   0.578  0.2393 -0.1733 -0.1421
 2767W        W 6286   6.275   2.800  10.939 -0.0913  0.0091  0.1149
 2768W        W 6287   8.985   7.664   1.433 -0.3396  0.0551  0.0518
 2769W        W 6288   6.535   6.492  11.719 -0.1433 -0.0484 -0.0553
 2770W        W 6289   7.371   1.094  10.430  0.3363 -0.1039 -0.4187
 2771W        W 6290   1.140   2.236   9.570  0.1771 -0.2205 -0.0277
 2772W        W 6291   0.579   6.254   0.625 -0.0832 -0.3376  0.1619
 2773W        W 6292   9.186   8.662   0.154  0.0414 -0.1188 -0.1461
 2774W        W 6293   3.608   7.544   2.988  0.0226 -0.2335  0.1353
 2775W        W 6294   1.709   5.908   3.076  0.0010 -0.0191  0.1764
 2776W        W 6295   3.563   6.319  11.008 -0.1170  0.0805 -0.3278
 2777W        W 6296   2.767   3.588   1.083  0.0388  0.1870  0.0691
 2778W        W 6297   4.955   5.362  11.488 -0.0592 -0.2189 -0.2323
 2779W        W 6298   9.245   6.404   0.291 -0.1763  0.1398 -0.1506
 2780W        W 6299   6.862   0.620   2.300  0.2186 -0.0892  0.0115
 2781W        W 6300   3.648   2.673   1.918  0.2016 -0.1594 -0.2614
 2782W        W 6301   4.106   6.117   8.248 -0.2690 -0.0195  0.0904
 2783W        W 6302   9.080   5.803   3.452 -0.0330 -0.1133  0.0227
 2784W        W 6303   2.288   0.213  11.655 -0.2133  0.2966  0.0790
 2785W        W 6304   8.371   6.399  12.298 -0.0993 -0.3059  0.3183
 2786W        W 6305   3.611   3.533   2.540  0.0973  0.0270  0.3346
 2787W        W 6306   1.505   0.196  10.068  0.2146  0.0362  0.0869
 2788W        W 6307   2.038   7.810  10.464  0.2085  0.1776 -0.1654
 2789W        W 6308   1.425   6.280   4.495  0.0981  0.1231 -0.3365
 2790W        W 6309   4.962   8.249   9.704 -0.1168 -0.3186  0.2521
 2791W        W 6310   2.715   2.103   5.041 -0.0179  0.3655 -0.1526
 2792W        W 6311   8.815   8.063   8.690 -0.1121  0.0756 -0.0214
 2793W        W 6312   2.834   2.772   8.432  0.2888  0.2972  0.1304
 2794W        W 6313   6.165   8.044  10.624 -0.1565 -0.1288  0.2808
 2795W        W 6314   3.222   3.575   1.717  0.0590  0.2055 -0.0050
 2796W        W 6315   3.766   4.806   1.464  0.2448 -0.0889  0.2080
 2797W        W 6316   2.917   7.010   9.911  0.1870  0.0467  0.3901
 2798W        W 6317   3.229   8.590   4.964 -0.0206 -0.0959 -0.1721
 2799W        W 6318   9.260   2.099   9.344 -0.3417  0.1067  0.3506
 2800W        W 6319   3.088   9.026  11.676  0.1575  0.0173 -0.1019
 2801W        W 6320   7.473   5.676   0.882  0.0509  0.4703 -0.0747
 2802W        W 6321   8.398   2.196   0.404  0.0314 -0.0725  0.0025
 2803W        W 6322   7.749   2.614   3.076  0.1914  0.0755 -0.0118
 2804W        W 6323   2.439   4.471   3.007  0.0717 -0.1892 -0.0474
 2805W        W 6324   4.293   0.752   3.234 -0.0057 -0.0614  0.2494
 2806W        W 6325   4.806   5.951  10.997 -0.1472 -0.0679 -0.0278
 2807W        W 6326   5.305   4.149   1.961 -0.0026 -0.2879 -0.2967
 2808W        W 6327   1.833   4.989   0.613  0.1206  0.0961  0.3353
 2809W        W 6328   2.941   2.499   3.079  0.2663 -0.1917 -0.0180
 2810W        W 6329   8.114   0.590   1.602 -0.2246 -0.1283  0.3391
 2811W        W 6330   7.140   3.768   0.599  0.0614 -0.1050 -0.3941
 2812W        W 6331   7.397   2.678   0.974  0.2397 -0.4904 -0.2163
 2813W        W 6332   9.107   4.491   1.845 -0.1417 -0.3348  0.2581
 2814W        W 6333   8.280   5.632   9.011  0.1667 -0.2321  0.0001
 2815W        W 6334   2.604   4.591   9.951 -0.4723 -0.0926 -0.0077
 2816W        W 6335   5.079   8.765  12.379 -0.3120  0.2366 -0.0451
 2817W        W 6336   0.682   9.257   8.490  0.0694 -0.2097  0.1002
 2818W        W 6337   5.818   0.348   0.123 -0.1636 -0.2158  0.0813
 2819W        W 6338   9.221   3.111  12.431 -0.0813 -0.2479 -0.0393
 2820W        W 6339   1.583   5.581   2.706 -0.0266  0.1628 -0.0140
 2821W        W 6340   2.985   6.401   1.266  0.0353  0.1114 -0.0449
 2822W        W 6341   6.656   0.237   1.547 -0.0444  0.2492 -0.2574
 2823W        W 6342   2.675   1.641   3.389  0.0066  0.0710  0.2255
 2824W        W 6343   0.470   0.409  12.020  0.0817  0.1562  0.2804
 2825W        W 6344   6.491   1.669   3.274 -0.0218 -0.1002  0.1033
 2826W        W 6345   7.110   6.911  11.588 -0.0401 -0.2984  0.0578
 2827W        W 6346   5.253   3.500   1.305 -0.0978  0.0439  0.0569
 2828W        W 6347   9.143   3.595   0.145  0.1055 -0.0465  0.1691
 2829W        W 6348   0.209   0.319   1.351 -0.3297 -0.3061  0.1093
 2830W        W 6349   1.626   0.589  10.686 -0.1525  0.0008 -0.0114
 2831W        W 6350   8.415   1.996   3.785 -0.3856 -0.0495  0.0693
 2832W        W 6351   1.961   0.716   9.119  0.1639  0.0061 -0.0763
 2833W        W 6352   2.055   0.636  11.554 -0.3707  0.4025 -0.0407
 2834W        W 6353   7.483   0.569  11.291  0.0905 -0.0530  0.0332
 2835W        W 6354   2.161   5.300   3.618 -0.1463  0.0520  0.0003
 2836W        W 6355   7.479   6.477   3.601  0.3247  0.2460  0.2265
 2837W        W 6356   0.101   7.979  11.842 -0.1674 -0.0766  0.1232
 2838W        W 6357   5.061   6.324   9.874 -0.0540 -0.0798 -0.0009
 2839W        W 6358   9.056   4.828  12.588  0.0310  0.0122  0.0649
 2840W        W 6359   8.766   9.397   2.615  0.0686 -0.3758  0.3806
 2841W        W 6360   8.287   9.649   2.455  0.3327  0.0876 -0.3002
 2842W        W 6361   5.675   4.017   9.374  0.0489 -0.0171  0.0605
 2843W        W 6362   2.592   4.624   1.154 -0.0079 -0.4232  0.0344
 2844W        W 6363   9.223   6.198  12.393 -0.0413  0.1765 -0.1429
 2845W        W 6364   4.885   4.437   2.113  0.0309 -0.1946  0.4524
 2846W        W 6365   8.786   2.371   1.237  0.2632  0.0813  0.0830
 2847W        W 6366   0.080   1.592   0.253 -0.1986  0.0512  0.0914
 2848W        W 6367   5.091   4.952  11.181  0.1460 -0.4140  0.0144
 2849W        W 6368   0.229   1.500  11.888 -0.1845 -0.1296  0.0205
 2850W        W 6369   7.056   7.334  11.125  0.2494  0.1378  0.1801
 2851W        W 6370   5.116   0.471  11.567 -0.3529  0.0303  0.2888
 2852W        W 6371   7.598   3.886   0.145 -0.0556 -0.1260  0.2378
 2853W        W 6372   5.902   3.110   2.886 -0.2097  0.1496  0.0162
 2854W        W 6373   7.703   2.486   0.015 -0.1572 -0.0153 -0.1974
 2855W        W 6374   2.533   8.460   1.500  0.0197 -0.2247 -0.3090
 2856W        W 6375   1.513   0.783   8.920 -0.1082  0.1889 -0.0850
 2857W        W 6376   0.071   5.812  11.579 -0.0911 -0.1511 -0.1844
 2858W        W 6377   9.550   0.884   0.685 -0.0889  0.1785 -0.0944
 2859W        W 6378   9.364   8.141   4.779 -0.2277  0.0742  0.2480
 2860W        W 6379   7.298   1.218  11.767  0.0334  0.0009 -0.1299
 2861W        W 6380   1.927   3.368   9.440 -0.1076 -0.2379  0.0791
 2862W        W 6381   5.590   2.116   0.480  0.5188 -0.0112  0.0802
 2863W        W 6382   4.036   8.400   3.161  0.1247 -0.0443 -0.1632
 2864W        W 6383   3.461   1.451   0.650  0.1508  0.0792  0.2752
 2865W        W 6384   2.383   9.133   4.620 -0.0477 -0.1742 -0.0831
 2866W        W 6385   8.124   5.344   0.132 -0.0716  0.4842 -0.2636
 2867W        W 6386   9.352   3.302  11.425  0.3879 -0.0340  0.0155
 2868W        W 6387   1.450   7.036   2.791 -0.2117 -0.0176  0.2446
 2869W        W 6388   4.798   2.940  11.038 -0.0506  0.1437 -0.0566
 2870W        W 6389   8.098   8.674   1.656  0.0255 -0.1049  0.1931
 2871W        W 6390   3.978   4.748  10.119  0.1521  0.1258 -0.4684
 2872W        W 6391   4.536   8.704   3.784 -0.0468  0.1297  0.0774
 2873W        W 6392   8.326   2.117   2.526 -0.0568  0.2053  0.2017
 2874W        W 6393   6.517   0.563   2.634  0.0657  0.0157 -0.1130
 2875W        W 6394   7.164   7.757  10.862  0.0938  0.2125  0.0487
 2876W        W 6395   1.473   6.779   2.332  0.1921  0.3494  0.0407
 2877W        W 6396   1.503   7.257   1.986 -0.1557  0.1615  0.1898
 2878W        W 6397   2.985   6.853   9.357 -0.0625 -0.1140  0.1116
 2879W        W 6398   3.020   4.438   3.224  0.1696  0.2184  0.3659
 2880W        W 6399   1.192   1.820   2.486 -0.1399  0.2696 -0.3061
 2881W        W 6400   1.886   6.924   1.535  0.3297 -0.0721 -0.1085
 2882W        W 6401   2.332   2.754  10.207 -0.0915 -0.3470  0.2451
 2883W        W 6402   8.699   1.744  12.436 -0.0772  0.1111  0.0579
 2884W        W 6403   4.174   9.377   3.026  0.0585 -0.1318 -0.2032
 2885W        W 6404   3.704   4.287   9.926 -0.1530  0.0349 -0.0262
 2886W        W 6405   8.354   1.658  12.046  0.0560  0.1463 -0.1120
 2887W        W 6406   7.650   0.346  10.877  0.2780  0.0610  0.0864
 2888W        W 6407   1.457   0.242   8.097 -0.0572 -0.1361 -0.2817
 2889W        W 6408   6.894   5.424   0.024  0.0697  0.0370 -0.0131
 2890W        W 6409   4.152   8.579  12.372  0.1181  0.1778  0.3847
 2891W        W 6410   6.233   6.740   9.625  0.3576  0.3084  0.0611
 2892W        W 6411   6.232   8.233   3.622  0.1837  0.2391 -0.0488
 2893W        W 6412   4.604   8.953  10.261  0.2031 -0.0732 -0.1325
 2894W        W 6413   9.390   4.572  11.129 -0.0324 -0.1366 -0.0366
 2895W        W 6414   8.879   8.863  11.466 -0.2359 -0.2869  0.0123
 2896W        W 6415   9.500   7.397   1.365 -0.1218 -0.3019 -0.1238
 2897W        W 6416   0.933   8.497   9.235 -0.2625  0.0032  0.0805
 2898W        W 6417   5.195   5.948   0.148  0.2141 -0.2551  0.3798
 2899W        W 6418   2.664   2.831   2.866  0.0596  0.1874  0.1148
 2900W        W 6419   2.473   8.490  11.935 -0.1251 -0.0987 -0.0370
 2901W        W 6420   1.002   7.020  10.451  0.0694  0.0787 -0.1943
 2902W        W 6421   1.031   7.882   0.893 -0.1539  0.2462 -0.2845
 2903W        W 6422   0.089   7.036   1.623 -0.3123  0.2720  0.0870
 2904W        W 6423   5.527   0.032   9.973  0.1158 -0.2067 -0.2039
 2905W        W 6424   1.658   6.091   0.433  0.1335 -0.0860  0.1738
 2906W        W 6425   7.487   7.111  10.753  0.2520  0.1940 -0.2013
 2907W        W 6426   8.188   4.425   9.168  0.0862 -0.1908 -0.1968
 2908W        W 6427   2.962   2.427   4.247 -0.0310 -0.3898  0.1525
 2909W        W 6428   8.553   8.265  12.419  0.1089 -0.0007 -0.1208
 2910W        W 6429   8.143   0.360   3.033 -0.1781 -0.6226 -0.0485
 2911W        W 6430   1.071   6.615  10.800 -0.2948  0.2333  0.0514
 2912W        W 6431   0.036   2.851   3.621  0.4124  0.2543 -0.1927
 2913W        W 6432   2.968   8.541  12.419  0.1662 -0.1002 -0.0854
 2914W        W 6433   8.599   3.214   3.878 -0.0316 -0.1330  0.1116
 2915W        W 6434   3.240   4.674   3.635  0.1476  0.2338  0.0385
 2916W        W 6435   1.434   8.339   1.987  0.1668  0.0415  0.1607
 2917W        W 6436   7.512   9.097   1.526 -0.1424  0.4089 -0.2108
 2918W        W 6437   6.130   9.081  11.296  0.3673  0.2179 -0.0605
 2919W        W 6438   0.886   7.742  12.311  0.1831  0.0363  0.1394
 2920W        W 6439   2.486   8.186   1.097 -0.3077  0.0073  0.1222
 2921W        W 6440   0.992   6.691   9.216 -0.0375 -0.1831 -0.0769
 2922W        W 6441   7.147   3.724   0.093 -0.1655  0.1780  0.2538
 2923W        W 6442   6.138   5.085   9.024  0.2238  0.2754  0.0019
 2924W        W 6443   0.236   0.892  11.836 -0.2754  0.2041  0.0167
 2925W        W 6444   3.563   6.925   8.619 -0.0754 -0.0591 -0.0665
 2926W        W 6445   2.468   8.126   3.266  0.3204 -0.0737 -0.2110
 2927W        W 6446   6.199   0.380   1.699  0.0284 -0.2130  0.3449
 2928W        W 6447   5.753   7.323   2.697 -0.4469  0.3203  0.0934
 2929W        W 6448   1.101   1.935   4.067  0.0204 -0.1909 -0.1207
 2930W        W 6449   3.945   7.187   2.878 -0.2326  0.0758  0.0294
 2931W        W 6450   1.111   1.491  12.327  0.0555 -0.3385 -0.2157
 2932W        W 6451   7.150   8.589   2.340 -0.2390  0.0475  0.0051
 2933W        W 6452   4.817   9.002   0.195  0.0458 -0.3295  0.1111
 2934W        W 6453   4.731   4.174   9.924  0.0019 -0.1196  0.0607
 2935W        W 6454   1.277   6.574   1.929  0.1198  0.0971 -0.0972
 2936W        W 6455   7.125   9.351  11.829 -0.0342  0.3417  0.3691
 2937W        W 6456   9.252   5.500  11.808  0.2240 -0.1028  0.2738
 2938W        W 6457   2.788   8.915  10.389 -0.2196  0.1111 -0.2287
 2939W        W 6458   3.642   6.946   0.854 -0.2585  0.2774  0.3449
 2940W        W 6459   2.707   1.745   4.646 -0.0143  0.2775 -0.0996
 2941W        W 6460   5.459   8.825   2.173  0.2857  0.3260 -0.1679
 2942W        W 6461   8.570   5.284   8.792 -0.1987  0.1685 -0.2776
 2943W        W 6462   8.904   8.336  11.539  0.1356  0.0551 -0.0394
 2944W        W 6463   5.092   1.260  10.065 -0.0632 -0.0004 -0.2095
 2945W        W 6464   7.678   8.713  11.140  0.3382  0.0469  0.3198
 2946W        W 6465   5.593   2.789   3.177  0.1536  0.0769 -0.0898
 2947W        W 6466   7.644   5.935   2.266 -0.0532  0.2212 -0.1754
 2948W        W 6467   6.716   6.662  10.839  0.1957 -0.0337 -0.1194
 2949W        W 6468   7.928   2.832  12.142  0.1391 -0.0317  0.2788
 2950W        W 6469   3.673   3.700   2.022  0.0836 -0.0113  0.0502
 2951W        W 6470   3.398   6.116   4.092 -0.0604  0.0102 -0.0111
 2952W        W 6471   2.996   7.738   8.537 -0.2270  0.0303 -0.0788
 2953W        W 6472   5.964   4.641  11.979  0.2178  0.1133 -0.2114
 2954W        W 6473   7.671   8.200   8.283  0.2194  0.0888 -0.2721
 2955W        W 6474   1.555   4.623   2.331 -0.1002 -0.1433  0.0280
 2956W        W 6475   0.641   4.992   0.098  0.0516 -0.3212  0.0567
 2957W        W 6476   6.432   1.524   4.124  0.1250 -0.1742  0.1516
 2958W        W 6477   1.211   8.666   0.025  0.1744 -0.2968  0.1718
 2959W        W 6478   4.494   4.083   9.319  0.1423 -0.3189  0.0204
 2960W        W 6479   7.888   8.006   3.257 -0.1786  0.0598 -0.1376
 2961W        W 6480   5.003   1.224   0.845  0.0093 -0.0766  0.0486
 2962W        W 6481   7.939   5.233  11.570 -0.0240  0.1013 -0.2227
 2963W        W 6482   1.016   2.842   0.237 -0.1560  0.2023  0.1979
 2964W        W 6483   8.149   4.126   0.774 -0.2213 -0.3524  0.4245
 2965W        W 6484   5.350   7.642   2.770 -0.2886  0.4645 -0.1347
 2966W        W 6485   2.144   5.238   0.279  0.2801  0.0471  0.2190
 2967W        W 6486   7.869   1.836  12.014  0.1407  0.0789  0.2709
 2968W        W 6487   8.761   1.241   9.012 -0.2741  0.0295 -0.1131
 2969W        W 6488   2.495   1.027   4.077 -0.2589 -0.0054  0.2302
 2970W        W 6489   8.201   3.431  11.240 -0.0020  0.1153  0.2077
 2971W        W 6490   3.957   7.174   3.854 -0.1944 -0.2457  0.0200
 2972W        W 6491   9.643   8.461  11.551  0.0159  0.0886 -0.1701
 2973W        W 6492   4.652   4.155  12.248  0.1413 -0.1237  0.2151
 2974W        W 6493   0.737   5.503   0.066 -0.1175  0.0249 -0.1357
 2975W        W 6494   2.123   6.196  10.474 -0.3862 -0.3476 -0.0804
 2976W        W 6495   6.800   7.417  11.595 -0.3909 -0.1138 -0.4107
 2977W        W 6496   2.679   7.092  12.302 -0.1474  0.0082 -0.0170
 2978W        W 6497   2.870   9.303   4.507 -0.1371 -0.0336  0.3641
 2979W        W 6498   7.455   6.404   1.327 -0.1838  0.0113  0.0920
 2980W        W 6499   8.107   4.567   4.399  0.0753 -0.1863  0.1360
 2981W        W 6500   6.255   7.971  10.111 -0.0705 -0.1783  0.2974
 2982W        W 6501   4.943   0.597   2.303 -0.1416  0.3846  0.0924
 2983W        W 6502   4.718   3.048   0.199  0.1843  0.0347 -0.0972
 2984W        W 6503   0.916   6.968  11.070  0.0085  0.0062  0.2588
 2985W        W 6504   6.616   7.421   1.914 -0.1164 -0.1778 -0.1483
 2986W        W 6505   0.062   0.740   9.342 -0.2586 -0.1115 -0.0416
 2987W        W 6506   6.516   6.914   1.973  0.1689  0.2821  0.1428
 2988W        W 6507   1.455   9.446  10.350  0.0989  0.1238  0.0445
 2989W        W 6508   9.236   1.934   4.443  0.4580 -0.1073 -0.2197
 2990W        W 6509   7.374   8.943  11.454  0.3554  0.0048 -0.3172
 2991W        W 6510   6.137   8.240   8.915 -0.3122 -0.0018 -0.1714
 2992W        W 6511   3.216   5.360  11.641 -0.1323  0.1942  0.0634
 2993W        W 6512   5.693   7.506   9.374 -0.0438  0.1691 -0.2130
 2994W        W 6513   5.020   1.557   0.371  0.0996  0.1577  0.1759
 2995W        W 6514   3.383   7.778  10.119 -0.1153  0.1191  0.0281
 2996W        W 6515   9.504   2.363  12.039 -0.2528 -0.1927 -0.2168
 2997W        W 6516   2.554   2.468   2.570  0.0275  0.0781 -0.0531
 2998W        W 6517   9.249   1.051   4.604 -0.1731 -0.1293  0.1557
 2999W        W 6518   4.784   3.624  12.315 -0.1533 -0.2282  0.0518
 3000W        W 6519   7.327   4.434  10.072  0.1410 -0.0944 -0.2707
 3001W        W 6520   6.683   7.997   3.889 -0.1188  0.0908 -0.1973
 3002W        W 6521   0.572   2.622  11.455  0.0641  0.1397  0.1484
 3003W        W 6522   6.539   8.940  10.078  0.2566 -0.2562 -0.0350
 3004W        W 6523   0.154   5.710  10.720  0.4455  0.0735  0.0034
 3005W        W 6524   2.462   1.461  11.583 -0.1891  0.2993  0.1140
 3006W        W 6525   7.580   6.856   1.147 -0.0964 -0.0067 -0.1497
 3007W        W 6526   2.707   5.074   1.305 -0.0215  0.1236  0.2255
 3008W        W 6527   1.996   2.919  12.464 -0.0398 -0.0055 -0.0329
 3009W        W 6528   1.786   9.191   0.438  0.1147  0.0084 -0.0254
 3010W        W 6529   8.089   1.490  12.470 -0.0555  0.1787 -0.0406
 3011W        W 6530   2.950   0.747  11.102 -0.1448  0.1080 -0.2029
 3012W        W 6531   5.113   4.539  12.521  0.1255 -0.1901  0.0363
 3013W        W 6532   1.847   3.712  11.409 -0.1746  0.0965  0.0855
 3014W        W 6533   6.237   4.374   1.996 -0.0402 -0.2361 -0.1771
 3015W        W 6534   5.258   7.305   3.213  0.0334 -0.3620  0.2499
 3016W        W 6535   6.259   2.834   2.507  0.1087  0.1188 -0.0689
 3017W        W 6536   1.217   8.166  12.372  0.2063 -0.3906 -0.1055
 3018W        W 6537   2.751   1.358   4.377 -0.0507 -0.3296  0.0477
 3019W        W 6538   9.219   9.076   9.819  0.1125 -0.2716  0.2008
 3020W        W 6539   0.620   1.907  11.639 -0.0184  0.1365 -0.1789
 3021W        W 6540   5.985   3.596  10.663 -0.0871 -0.1248 -0.0061
 3022W        W 6541   8.737   6.158  12.549 -0.3077  0.0454 -0.3092
 3023W        W 6542   3.098   0.429   2.572 -0.1569 -0.0230 -0.0336
 3024W        W 6543   4.285   6.072   2.608  0.0475  0.0208  0.0163
 3025W        W 6544   9.090   3.321   1.601  0.1886 -0.0168  0.2721
 3026W        W 6545   7.930   6.808  11.488  0.2239  0.1448  0.2983
 3027W        W 6546   5.271   9.360   3.907  0.4155  0.0597 -0.1135
 3028W        W 6547   6.191   4.322   2.817 -0.2861 -0.1419 -0.0069
 3029W        W 6548   1.855   3.207   2.662  0.4972 -0.0489  0.1457
 3030W        W 6549   4.575   6.338   9.990  0.1837  0.1303  0.1706
 3031W        W 6550   4.771   6.103  10.355 -0.0578  0.0914 -0.0731
 3032W        W 6551   0.382   3.220   1.777  0.0501  0.0188  0.0119
 3033W        W 6552   0.003   7.436   9.718 -0.0035 -0.1539 -0.2838
 3034W        W 6553   5.225   2.258   3.060 -0.0133  0.0854  0.0147
 3035W        W 6554   4.273   7.511   0.693 -0.1439 -0.1729  0.0440
 3036W        W 6555   0.970   6.543   1.443 -0.1596 -0.1905 -0.0852
 3037W        W 6556   5.579   1.144   9.830  0.1007 -0.2312  0.1963
 3038W        W 6557   6.115   0.808   3.475  0.1224  0.4603 -0.1350
 3039W        W 6558   8.715   7.996   1.752 -0.1584  0.0416 -0.1044
 3040W        W 6559   3.403   3.649  11.543  0.0180 -0.0557  0.2247
 3041W        W 6560   1.979   0.480  12.522  0.0243 -0.2068 -0.0056
 3042W        W 6561   8.467   8.267   8.950 -0.1075  0.0120  0.0113
 3043W        W 6562   1.178   8.899   1.577 -0.0407  0.0494  0.1119
 3044W        W 6563   4.034   6.655   3.965  0.0545  0.2448  0.3194
 3045W        W 6564   1.428   1.711  10.010  0.0746 -0.0021  0.2141
 3046W        W 6565   3.792   3.192   3.737  0.0794 -0.2637 -0.2282
 3047W        W 6566   3.275   3.418   1.243 -0.0972 -0.0643  0.0100
 3048W        W 6567   0.356   7.346  11.424  0.2496 -0.0572 -0.2207
 3049W        W 6568   3.017   8.939   2.197 -0.1631 -0.4379  0.0399
 3050W        W 6569   9.354   7.446   3.643 -0.0785 -0.2874 -0.0436
 3051W        W 6570   2.463   2.719   4.510  0.2472  0.3379  0.2855
 3052W        W 6571   3.073   5.986   0.105  0.1405  0.1300 -0.0365
 3053W        W 6572   1.330   0.994   9.351  0.0358 -0.2869  0.3924
 3054W        W 6573   1.357   7.894   9.931 -0.0522 -0.0034 -0.1105
 3055W        W 6574   8.804   0.702   9.462  0.2353 -0.1350 -0.2959
 3056W        W 6575   3.032   0.817  12.138  0.2854 -0.0512  0.0254
 3057W        W 6576   2.878   6.342  11.870  0.1351  0.1042 -0.2085
 3058W        W 6577   9.310   7.369  10.068  0.2801  0.1889 -0.2058
 3059W        W 6578   5.713   2.831   2.048  0.2918  0.3115  0.2203
 3060W        W 6579   2.431   8.483   3.624 -0.1841  0.1658  0.0765
 3061W        W 6580   2.102   4.205   4.027  0.0461  0.1232 -0.1483
 3062W        W 6581   8.170   4.283   3.153  0.0096  0.4244  0.3732
 3063W        W 6582   3.332   3.007  12.156 -0.1771 -0.1853  0.0456
 3064W        W 6583   2.428   0.097   2.278 -0.1837 -0.2550  0.0561
 3065W        W 6584   3.243   0.141  12.323  0.0749  0.0916  0.0422
 3066W        W 6585   8.918   8.656  12.348  0.0404  0.1191 -0.1500
 3067W        W 6586   7.971   7.650   2.926  0.1896  0.0668  0.0254
 3068W        W 6587   0.545   6.884   9.065 -0.1014  0.0569  0.0225
 3069W        W 6588   2.483   5.297  12.468  0.0724  0.0952 -0.0022
 3070W        W 6589   4.660   7.898   0.229 -0.1781  0.1621  0.1488
 3071W        W 6590   2.683   2.521  10.621  0.1886 -0.0681  0.1932
 3072W        W 6591   3.688   3.359   0.403  0.3444  0.1557 -0.4144
 3073W        W 6592   0.626   7.968   0.555 -0.3581  0.0060  0.2327
 3074W        W 6593   3.024   7.726   0.873 -0.0528 -0.1772  0.1854
 3075W        W 6594   6.635   8.448   1.314  0.4086  0.1513 -0.3052
 3076W        W 6595   1.845   0.043  12.253  0.3526 -0.1277 -0.2776
 3077W        W 6596   7.567   7.976  10.042  0.2684  0.0325  0.1969
 3078W        W 6597   4.351   7.626   1.828 -0.0092  0.3603  0.0519
 3079W        W 6598   8.171   3.416   9.843  0.3183  0.1027 -0.3197
 3080W        W 6599   9.379   2.039   2.927 -0.2186  0.3037  0.2784
 3081W        W 6600   7.260   7.735  11.441  0.1503  0.3599  0.1359
 3082W        W 6601   0.364   3.594  12.086 -0.2161  0.1214  0.0750
 3083W        W 6602   8.213   3.916   1.907 -0.4403 -0.1548 -0.1591
 3084W        W 6603   3.222   6.404   9.239 -0.1572 -0.2960  0.2555
 3085W        W 6604   4.326   5.345  10.855 -0.1236  0.2193 -0.0872
 3086W        W 6605   4.757   8.305   1.222  0.3007 -0.0838 -0.2619
 3087W        W 6606   8.357   3.385   2.119 -0.0257  0.1127  0.1142
 3088W        W 6607   9.652   1.200  11.539 -0.1174 -0.0034 -0.1079
 3089W        W 6608   3.255   3.852   4.720 -0.0450  0.0507 -0.2625
 3090W        W 6609   3.676   0.270  10.390 -0.1244  0.4576  0.0074
 3091W        W 6610   5.652   0.329   0.633 -0.0351  0.1305  0.0983
 3092W        W 6611   3.572   6.678   9.382 -0.0028 -0.1205 -0.1393
 3093W        W 6612   8.720   0.263  10.579  0.1381  0.3122  0.3767
 3094W        W 6613   8.195   1.620  11.612  0.3156 -0.2386 -0.0569
 3095W        W 6614   2.548   0.741   1.739 -0.0905  0.0487  0.0986
 3096W        W 6615   5.460   5.170   3.740  0.0341  0.0177  0.1812
 3097W        W 6616   2.669   4.299  11.553  0.2018 -0.4096 -0.1878
 3098W        W 6617   4.443   0.626   9.682  0.1064 -0.1615  0.2033
 3099W        W 6618   3.658   2.747  12.408 -0.2492  0.1153  0.2774
 3100W        W 6619   6.565   1.915   3.823  0.2275 -0.1338 -0.0178
 3101W        W 6620   5.279   1.263   3.227  0.0336  0.1400 -0.0882
 3102W        W 6621   2.402   8.416   0.498  0.0437  0.0203  0.0796
 3103W        W 6622   2.697   9.628   4.079  0.1153 -0.1383 -0.0702
 3104W        W 6623   7.066   6.783   0.092  0.2576 -0.0462 -0.0883
 3105W        W 6624   9.225   5.310  10.819  0.2122  0.1322  0.3055
 3106W        W 6625   3.321   6.535   0.250 -0.0174  0.1495  0.1804
 3107W        W 6626   0.516   1.132  11.472  0.0582 -0.0774 -0.2779
 3108W        W 6627   8.166   1.403   0.755 -0.2629 -0.0423 -0.1521
 3109W        W 6628   9.590   8.588  10.100 -0.0403 -0.4251  0.0068
 3110W        W 6629   5.578   2.526  12.347 -0.0839  0.1943  0.0340
 3111W        W 6630   6.920   4.450   2.795 -0.2596  0.1013  0.2344
 3112W        W 6631   0.050   5.306   9.810 -0.1568 -0.1730 -0.1514
 3113W        W 6632   5.757   7.407   1.470 -0.1723  0.0877  0.2768
 3114W        W 6633   0.287   2.111   8.576 -0.2215 -0.4596 -0.1655
 3115W        W 6634   1.218   3.380   4.244 -0.0670  0.1867  0.3221
 3116W        W 6635   7.277   7.239   3.380  0.0327 -0.0324  0.0907
 3117W        W 6636   0.589   0.680  10.615 -0.0451 -0.1317 -0.1642
 3118W        W 6637   5.201   0.847   3.580 -0.2614 -0.0828 -0.1553
 3119W        W 6638   5.736   9.647   2.663 -0.2129 -0.1083 -0.4650
 3120W        W 6639   7.621   9.458   1.179 -0.4315 -0.3242 -0.1625
 3121W        W 6640   4.564   7.119   0.543  0.0294  0.1933  0.0355
 3122W        W 6641   6.941   4.702  12.359 -0.1085  0.1445 -0.1719
 3123W        W 6642   3.274   2.224   3.882 -0.0494 -0.2876  0.4348
 3124W        W 6643   8.255   3.262   3.430  0.0338 -0.1772 -0.1509
 3125W        W 6644   5.858   2.699   9.166 -0.2744 -0.0480 -0.0726
 3126W        W 6645   2.620   6.430   2.167  0.0131 -0.0056  0.1415
 3127W        W 6646   7.447   5.326  10.253 -0.3330  0.0291  0.2843
 3128W        W 6647   0.781   4.008  10.759 -0.1665  0.1575 -0.0007
 3129W        W 6648   3.478   0.349   0.128  0.1940  0.2163  0.0741
 3130W        W 6649   7.139   8.638  10.860 -0.2399 -0.0552 -0.2878
 3131W        W 6650   3.758   9.673   8.151 -0.2009  0.1701 -0.1221
 3132W        W 6651   4.836   3.974   3.025  0.4366 -0.0358  0.2974
 3133W        W 6652   6.982   0.554   8.585  0.2069  0.1975 -0.2221
 3134W        W 6653   6.665   9.442   1.324 -0.1813  0.0239  0.4085
 3135W        W 6654   0.499   1.658   1.449 -0.0183 -0.4049  0.0567
 3136W        W 6655   5.089   2.124   0.299  0.1942 -0.1040  0.2230
 3137W        W 6656   9.131   9.278   3.429  0.0670  0.2481 -0.2495
 3138W        W 6657   2.183   2.244   0.635 -0.0525 -0.1409  0.0007
 3139W        W 6658   7.906   6.562  11.035 -0.0689 -0.0895 -0.1898
 3140W        W 6659   3.654   0.970   0.696  0.2623 -0.4185 -0.0481
 3141W        W 6660   7.938   3.639   1.516 -0.1565  0.1088  0.0284
 3142W        W 6661   2.066   7.954   3.556  0.0453 -0.1645 -0.2073
 3143W        W 6662   3.347   7.172   9.203  0.0349 -0.0342 -0.1806
 3144W        W 6663   0.363   6.735   0.382  0.0397  0.1534 -0.3072
 3145W        W 6664   3.597   4.428   3.397  0.2753  0.0809  0.2698
 3146W        W 6665   6.493   7.415   9.112  0.1930 -0.0020 -0.2694
 3147W        W 6666   3.618   0.424  11.145  0.4598  0.1051  0.0895
 3148W        W 6667   7.527   7.667  10.512 -0.1906  0.3334 -0.0251
 3149W        W 6668   5.251   6.046   1.530  0.2357 -0.3842  0.1706
 3150W        W 6669   5.260   7.422   2.302 -0.0329 -0.0349  0.2623
 3151W        W 6670   2.160   6.979  11.062 -0.3534  0.1292 -0.3156
 3152W        W 6671   1.784   3.449   3.465 -0.0397 -0.2095  0.0783
 3153W        W 6672   5.551   1.249   2.721 -0.0578 -0.3841  0.1156
 3154W        W 6673   7.878   6.985  10.100  0.0322 -0.0912 -0.1056
 3155W        W 6674   7.664   4.816  10.090  0.5936  0.1598  0.0597
 3156W        W 6675   4.346   2.033   2.842  0.0626  0.0334  0.0345
 3157W        W 6676   5.041   6.059   1.966 -0.2061 -0.1928 -0.2448
 3158W        W 6677   0.246   5.118   0.424  0.0145 -0.0334 -0.0010
 3159W        W 6678   0.068   6.073   2.261  0.0597  0.0227  0.0328
 3160W        W 6679   6.124   5.497  10.860  0.2660  0.0170 -0.1184
 3161W        W 6680   2.392   4.319   2.112  0.1684 -0.1118 -0.0076
 3162W        W 6681   6.731   8.125   2.010 -0.2464  0.1909 -0.2816
 3163W        W 6682   4.575   7.647  11.397  0.2884 -0.1311  0.1480
 3164W        W 6683   2.851   4.225   8.339 -0.0578 -0.1266  0.3144
 3165W        W 6684   3.817   7.658   3.737 -0.1765 -0.0150 -0.0737
 3166W        W 6685   3.283   9.017   8.712 -0.3020 -0.3239 -0.1484
 3167W        W 6686   4.725   4.893   2.823 -0.1064  0.0304 -0.0217
 3168W        W 6687   0.103   3.194   1.180 -0.2161  0.1259 -0.2121
 3169W        W 6688   6.053   7.633   1.849  0.1529  0.0666  0.0044
 3170W        W 6689   8.288   9.207   8.913 -0.1549 -0.2150 -0.1278
 3171W        W 6690   7.907   6.486   3.775 -0.3132  0.0763 -0.2985
 3172W        W 6691   2.036   7.311   9.653 -0.2535 -0.0656  0.0647
 3173W        W 6692   7.193   4.589  11.053  0.1164  0.0226 -0.0811
 3174W        W 6693   2.217   0.109   3.924 -0.1292  0.3288  0.1970
 3175W        W 6694   3.636   9.019  10.612 -0.0136  0.0005 -0.0608
 3176W        W 6695   3.043   7.797  10.646  0.0958  0.0961 -0.1810
 3177W        W 6696   6.709   7.741  11.231  0.0458 -0.0576 -0.1559
 3178W        W 6697   7.729   0.010   0.734 -0.0125 -0.2030  0.0845
 3179W        W 6698   7.413   5.391  11.283 -0.1676 -0.0021 -0.0936
 3180W        W 6699   6.540   9.040  12.290  0.1157  0.0660 -0.1055
 3181W        W 6700   1.101   0.556  11.213 -0.5026  0.0651  0.2313
 3182W        W 6701   6.884   7.551   3.176  0.3890 -0.1713  0.2271
 3183W        W 6702   4.683   8.483   0.005  0.1863 -0.2626  0.2297
 3184W        W 6703   8.422   7.326   4.379  0.0444  0.0641  0.0178
 3185W        W 6704   3.953   9.206   2.585 -0.0858  0.3239  0.1070
 3186W        W 6705   4.503   5.271   9.763 -0.1270  0.4166 -0.1890
 3187W        W 6706   8.523   3.190   0.883 -0.1333  0.1488 -0.4140
 3188W        W 6707   4.835   3.737  10.277  0.1981 -0.3746 -0.2107
 3189W        W 6708   7.567   0.857   0.396 -0.2847  0.2607  0.0570
 3190W        W 6709   6.557   4.493   2.459  0.1450  0.1254  0.3384
 3191W        W 6710   1.861   6.541  11.290  0.0863 -0.1406  0.2083
 3192W        W 6711   8.773   0.510   9.930  0.0826 -0.1168  0.0243
 3193W        W 6712   8.825   3.853  12.440 -0.0055  0.3017  0.1533
 3194W        W 6713   7.148   8.221   1.512 -0.1210 -0.0779 -0.0097
 3195W        W 6714   6.349   2.197   0.356 -0.0922  0.1929  0.1286
 3196W        W 6715   3.868   1.178   8.743  0.0256  0.1446  0.0323
 3197W        W 6716   8.709   3.782  11.930 -0.1002  0.0159  0.3903
 3198W        W 6717   2.348   4.818   9.421  0.1565  0.1028 -0.0785
 3199W        W 6718   8.813   4.456  11.082  0.0016  0.4507 -0.0383
 3200W        W 6719   7.801   4.461   9.509  0.1312  0.0768  0.0032
 3201W        W 6720   5.696   2.101   1.565 -0.0266 -0.1991 -0.2387
 3202W        W 6721   6.852   5.591  12.006 -0.4058 -0.1287 -0.0558
 3203W        W 6722   2.417   5.804   3.637  0.1988  0.1731 -0.1885
 3204W        W 6723   7.016   1.795   2.652  0.2159 -0.1653  0.1151
 3205W        W 6724   4.387   6.302   0.699  0.0010 -0.0275  0.1204
 3206W        W 6725   4.085   2.546  10.508 -0.1068  0.1149  0.0466
 3207W        W 6726   3.512   9.363   9.543  0.2618 -0.1172 -0.3780
 3208W        W 6727   8.763   9.328   2.087  0.1555 -0.1240  0.0571
 3209W        W 6728   4.314   2.593   1.391 -0.3289 -0.1202  0.0735
 3210W        W 6729   6.197   6.313   3.286  0.0787 -0.1834 -0.1720
 3211W        W 6730   7.349   2.075   2.366  0.0541 -0.0614 -0.3214
 3212W        W 6731   9.081   7.343   9.628  0.1722 -0.0094 -0.1139
 3213W        W 6732   1.831   0.254  11.812 -0.0731  0.2306  0.1438
 3214W        W 6733   4.400   2.248   0.849  0.0051 -0.0869  0.1860
 3215W        W 6734   7.566   6.068  10.634  0.1188 -0.2919  0.1382
 3216W        W 6735   6.109   1.300   3.388 -0.0062 -0.1759 -0.0764
 3217W        W 6736   1.829   7.337   0.263 -0.1122  0.2220  0.0192
 3218W        W 6737   8.996   8.228   0.131 -0.2604  0.0899 -0.1332
 3219W        W 6738   6.630   7.890  10.788  0.1752  0.0290  0.0502
 3220W        W 6739   8.662   8.182  11.140  0.1240  0.1382  0.1504
 3221W        W 6740   9.166   7.231  12.363  0.0081 -0.1544 -0.0509
 3222W        W 6741   3.535   4.771  10.369  0.2222 -0.0475  0.1617
 3223W        W 6742   1.413   2.142   1.008  0.1019 -0.1101  0.4333
 3224W        W 6743   5.401   5.692   3.611 -0.0403  0.2082 -0.1029
 3225W        W 6744   4.551   5.919   1.082  0.1383 -0.2238  0.0093
 3226W        W 6745   4.215   7.037   1.150  0.2887  0.2271 -0.2581
 3227W        W 6746   5.542   5.994   0.526  0.1302 -0.1439  0.0704
 3228W        W 6747   1.265   5.481   1.846 -0.0645 -0.0903 -0.0625
 3229W        W 6748   5.341   5.035  10.624 -0.1797  0.0529  0.0715
 3230W        W 6749   8.483   2.532  11.761 -0.2390 -0.5633  0.1662
 3231W        W 6750   3.192   9.675   4.232  0.2203  0.0451  0.0406
 3232W        W 6751   5.563   1.152  11.132 -0.0119  0.0185  0.3391
 3233W        W 6752   5.041   8.608   0.443 -0.0626  0.0452 -0.1054
 3234W        W 6753   0.995   3.578   9.655  0.0667 -0.4279  0.3555
 3235W        W 6754   7.532   7.085   4.296 -0.1942  0.0705  0.1502
 3236W        W 6755   9.318   8.278  11.181  0.1773 -0.0646 -0.2926
 3237W        W 6756   4.305   8.131   9.202 -0.0078  0.2628  0.0654
 3238W        W 6757   8.470   0.644  12.068 -0.2545  0.0568 -0.0894
 3239W        W 6758   4.964   9.298   9.402  0.0187  0.2378 -0.2355
 3240W        W 6759   2.482   5.076   2.649  0.2463 -0.1519 -0.2623
 3241W        W 6760   3.052   5.582  10.861 -0.3113 -0.1284  0.0709
 3242W        W 6761   4.250   6.287   9.572  0.0741  0.0155  0.1016
 3243W        W 6762   0.721   5.866   2.984  0.1177  0.0246  0.0806
 3244W        W 6763   9.262   9.241   2.318 -0.0927 -0.1988  0.1804
 3245W        W 6764   1.948   8.221   2.294 -0.0735  0.0143  0.0608
 3246W        W 6765   6.636   3.619   9.477 -0.0209  0.1119 -0.0438
 3247W        W 6766   4.599   2.846   2.770 -0.1826  0.0096  0.3170
 3248W        W 6767   6.200   9.267   7.874 -0.0564  0.1377 -0.1773
 3249W        W 6768   9.607   0.912   3.731 -0.0625 -0.1042 -0.0463
 3250W        W 6769   4.360   4.887   8.789  0.2401  0.2672  0.1435
 3251W        W 6770   8.577   4.947   9.313  0.2282 -0.1911  0.0626
 3252W        W 6771   6.257   2.020   1.642  0.1648 -0.2572 -0.0920
 3253W        W 6772   7.631   7.717   0.933 -0.3542  0.1434 -0.2515
 3254W        W 6773   7.931   5.455   0.885  0.2014 -0.2378 -0.2221
 3255W        W 6774   3.372   1.737  10.654 -0.3336 -0.0940  0.2110
 3256W        W 6775   0.048   6.747   2.468 -0.0066  0.3154  0.0127
 3257W        W 6776   4.275   9.264   7.823  0.0398 -0.2152  0.2089
 3258W        W 6777   7.225   3.274   9.361  0.0128  0.5040  0.3278
 3259W        W 6778   5.869   1.331  10.779 -0.0395  0.0006  0.0555
 3260W        W 6779   0.676   8.190  11.067  0.1600  0.0937  0.3149
 3261W        W 6780   4.600   7.537   2.329  0.1251  0.0611 -0.1679
 3262W        W 6781   4.745   0.707   3.534 -0.2039  0.1011 -0.0223
 3263W        W 6782   0.983   7.783   2.312 -0.2995 -0.3330  0.0616
 3264W        W 6783   6.346   6.228   2.281 -0.0827 -0.1320 -0.1677
 3265W        W 6784   0.931   3.097   9.750 -0.1269  0.3075  0.0574
 3266W        W 6785   0.040   3.219  11.730 -0.1946 -0.2316 -0.2285
 3267W        W 6786   4.627   2.540  10.325  0.5377  0.4242  0.3324
 3268W        W 6787   7.522   1.743   8.984 -0.0831 -0.1612  0.0411
 3269W        W 6788   5.259   0.845  10.329 -0.2033  0.0542  0.0254
 3270W        W 6789   7.278   0.946   0.753  0.2110 -0.2557  0.0739
 3271W        W 6790   0.720   1.651   9.035  0.1507  0.0417  0.2096
 3272W        W 6791   6.604   0.741   3.281  0.2708 -0.0767  0.3071
 3273W        W 6792   3.915   1.408   1.882  0.4735 -0.1594  0.2916
 3274W        W 6793   5.856   5.769   2.417  0.1387  0.2888 -0.0099
 3275W        W 6794   3.233   0.841   9.419  0.0988 -0.0770  0.0596
 3276W        W 6795   8.409   1.177   1.088  0.0179  0.1155  0.1392
 3277W        W 6796   3.279   8.934  12.131  0.0156 -0.0519  0.1545
 3278W        W 6797   2.481   0.930  11.625  0.4176 -0.0606  0.1549
 3279W        W 6798   1.774   4.764   9.364  0.1778  0.1894  0.0808
 3280W        W 6799   2.477   6.693  10.463 -0.1983  0.3334 -0.3258
 3281W        W 6800   4.451   1.491   1.951 -0.0651 -0.0654 -0.1396
 3282W        W 6801   5.300   2.563   0.228  0.4103 -0.1842 -0.0769
 3283W        W 6802   6.997   6.828   1.929 -0.0094  0.1952 -0.2839
 3284W        W 6803   0.451   9.566   9.407  0.1534 -0.1374  0.2207
 3285W        W 6804   0.148   6.476  12.100  0.0286  0.1807  0.2003
 3286W        W 6805   1.751   1.120   2.316 -0.0284 -0.1073 -0.0455
 3287W        W 6806   0.915   2.098   1.310 -0.0594 -0.3814  0.1397
 3288W        W 6807   5.687   5.853   9.338  0.1077 -0.0434  0.0964
 3289W        W 6808   1.236   8.685   3.772 -0.0869  0.0173 -0.0144
 3290W        W 6809   2.101   5.639   3.273 -0.1838 -0.0631 -0.1014
 3291W        W 6810   6.993   5.910   2.909 -0.2050 -0.3441  0.1658
 3292W        W 6811   3.253   0.680   0.527  0.0781  0.6595 -0.0567
 3293W        W 6812   0.847   4.406  10.424 -0.0165  0.0819 -0.0973
 3294W        W 6813   6.953   6.233   1.989  0.1211 -0.2903 -0.3139
 3295W        W 6814   9.573   4.798   9.683 -0.2296  0.0416 -0.0923
 3296W        W 6815   8.802   5.629   0.555  0.2595  0.0507  0.0080
 3297W        W 6816   0.224   5.061   2.046 -0.2309 -0.2237  0.1290
 3298W        W 6817   5.931   0.965   2.533  0.0975 -0.0195 -0.0540
 3299W        W 6818   2.860   3.232   2.555  0.2615 -0.2922  0.2142
 3300W        W 6819   4.721   1.231   8.839 -0.1212  0.0869 -0.0132
 3301W        W 6820   9.237   3.934   9.887  0.1285 -0.0485  0.2298
 3302W        W 6821   4.381   9.463   2.597 -0.2070 -0.2158  0.2281
 3303W        W 6822   3.161   8.525   9.512  0.4553  0.2651  0.0495
 3304W        W 6823   0.256   4.898   8.824  0.1736  0.0530  0.2449
 3305W        W 6824   4.931   3.980   0.151 -0.1052  0.2523 -0.3158
 3306W        W 6825   9.476   8.734   0.494  0.0198  0.5423 -0.2231
 3307W        W 6826   6.222   9.056   2.819 -0.0586  0.2847  0.3312
 3308W        W 6827   0.818   4.872   9.460  0.0707  0.0167  0.0041
 3309W        W 6828   6.885   2.817   0.451  0.1960 -0.0772 -0.2416
 3310W        W 6829   3.606   6.516   8.890 -0.2501  0.1409  0.0380
 3311W        W 6830   2.830   3.035  10.914 -0.2199 -0.3826 -0.2355
 3312W        W 6831   4.991   6.228  11.350  0.2780 -0.1424 -0.0221
 3313W        W 6832   3.770   1.881   2.072  0.1458  0.2544  0.3602
 3314W        W 6833   2.748   2.873   3.376  0.0887 -0.0454  0.2649
 3315W        W 6834   4.298   4.228   2.139  0.3188 -0.1020  0.0871
 3316W        W 6835   0.894   4.511   9.908  0.0342 -0.0036 -0.1992
 3317W        W 6836   6.259   3.382  11.187 -0.0955  0.0718 -0.0105
 3318W        W 6837   6.110   6.880   4.142  0.0939  0.2270 -0.1880
 3319W        W 6838   2.832   1.149  12.507  0.0827 -0.4957 -0.0247
 3320W        W 6839   5.218   7.629   7.952 -0.1409 -0.0227  0.2184
 3321W        W 6840   2.304   8.491  10.516  0.0773 -0.1290  0.2127
 3322W        W 6841   4.985   5.336   1.362  0.1710  0.1655 -0.0319
 3323W        W 6842   8.367   0.042   0.844 -0.0408  0.0555 -0.0337
 3324W        W 6843   2.755   5.559   0.965 -0.1221  0.1076  0.1507
 3325W        W 6844   7.563   3.211   1.223  0.1982  0.2269 -0.0938
 3326W        W 6845   0.133   6.476  12.585 -0.1905  0.3366  0.0150
 3327W        W 6846   7.499   9.108   0.835 -0.0751 -0.3485  0.1526
 3328W        W 6847   7.063   4.121  11.289 -0.0691 -0.1995 -0.1946
 3329W        W 6848   8.195   1.962  12.565 -0.2534 -0.1147 -0.0868
 3330W        W 6849   7.438   8.154   0.444 -0.1434  0.1195 -0.0202
 3331W        W 6850   6.975   8.713   1.643 -0.0874  0.1418 -0.0149
 3332W        W 6851   7.438   8.578   0.750 -0.2322 -0.1401 -0.1116
 3333W        W 6852   4.393   2.045   3.908  0.1208  0.0064  0.1209
 3334W        W 6853   2.252   5.459   4.066 -0.0621  0.4202 -0.1264
 3335W        W 6854   4.922   2.667  11.832 -0.1489  0.0415  0.3045
 3336W        W 6855   0.833   7.096  11.549  0.0124 -0.1356 -0.0713
 3337W        W 6856   5.746   9.128   4.407 -0.2205  0.0676 -0.1011
 3338W        W 6857   0.996   9.438   7.987 -0.3675 -0.1650  0.4057
 3339W        W 6858   7.660   8.684   1.836  0.0879  0.1781  0.1866
 3340W        W 6859   2.876   8.802   4.587 -0.2142  0.0400 -0.1004
 3341W        W 6860   6.648   5.154   9.995 -0.1822  0.1066 -0.0764
 3342W        W 6861   9.342   8.021  10.354  0.1935  0.0176  0.2276
 3343W        W 6862   1.787   0.987  11.501 -0.0448  0.0757 -0.3712
 3344W        W 6863   6.493   5.018  11.306  0.1951  0.1316  0.0727
 3345W        W 6864   1.475   4.711   3.838 -0.1523  0.0066 -0.1120
 3346W        W 6865   7.943   0.804   2.948 -0.1917 -0.0803  0.1916
 3347W        W 6866   8.271   8.266   1.955  0.3668 -0.2395  0.0022
 3348W        W 6867   8.921   9.400  10.744  0.0082  0.0748 -0.1736
 3349W        W 6868   7.151   6.577   0.991  0.0758  0.1041 -0.0448
 3350W        W 6869   5.105   2.444  10.144 -0.0364  0.1625 -0.0831
 3351W        W 6870   6.124   8.212   3.072 -0.2262  0.1995  0.3442
 3352W        W 6871   4.127   7.478   9.083  0.0820  0.2269  0.0601
 3353W        W 6872   5.213   8.302   1.737 -0.1821 -0.1027 -0.2749
 3354W        W 6873   3.926   4.306  10.912 -0.1267  0.0117  0.0590
 3355W        W 6874   2.037   2.189   9.029 -0.1007  0.0753 -0.2245
 3356W        W 6875   5.889   2.122   0.094 -0.3451 -0.0988  0.0300
 3357W        W 6876   2.728   0.938   9.714  0.3031  0.4556 -0.0059
 3358W        W 6877   0.827   2.194   9.143 -0.1954 -0.1058 -0.4964
 3359W        W 6878   5.607   3.413   2.564  0.1205 -0.0847  0.2546
 3360W        W 6879   9.066   0.880   2.211  0.3600 -0.0947 -0.1987
 3361W        W 6880   6.806   8.076   4.353 -0.1990 -0.0525 -0.1453
 3362W        W 6881   7.457   6.611   4.064  0.0982  0.0479 -0.0656
 3363W        W 6882   3.709   5.777   1.212  0.1076  0.1173  0.0734
 3364W        W 6883   7.718   0.924  11.628 -0.0244 -0.2253  0.3045
 3365W        W 6884   4.420   3.776   9.693  0.1106 -0.0751 -0.0220
 3366W        W 6885   8.530   8.210   0.322  0.1806  0.1924 -0.1931
 3367W        W 6886   8.535   7.095  11.619 -0.0615  0.0056 -0.1814
 3368W        W 6887   3.084   7.962   2.174  0.1086  0.0661 -0.1869
 3369W        W 6888   5.795   4.273   2.388 -0.0785  0.2750  0.1573
 3370W        W 6889   1.312   2.103  12.312 -0.1004  0.1337 -0.2191
 3371W        W 6890   9.643   3.910   3.003  0.3674  0.1847 -0.0308
 3372W        W 6891   4.521   3.581  11.380  0.1116 -0.0655  0.0865
 3373W        W 6892   3.020   6.406  10.185  0.1238  0.1486  0.0356
 3374W        W 6893   6.710   3.728  11.139 -0.3682  0.3151 -0.1581
 3375W        W 6894   7.216   2.967  11.555 -0.2120 -0.1179  0.2723
 3376W        W 6895   2.854   4.082   2.340 -0.0973  0.0464 -0.0542
 3377W        W 6896   4.062   5.934   7.795  0.1850  0.1387  0.0052
 3378W        W 6897   5.225   5.189   2.038 -0.1332  0.0048 -0.1107
 3379W        W 6898   8.816   5.658  10.867  0.0826  0.2380  0.3467
 3380W        W 6899   0.766   9.505  10.807  0.0899 -0.3099  0.0094
 3381W        W 6900   1.579   2.324   8.669 -0.1676  0.0547  0.0319
 3382W        W 6901   7.653   5.587   1.781  0.1477 -0.3800  0.2748
 3383W        W 6902   4.484   0.335   8.623 -0.3464 -0.1421 -0.0478
 3384W        W 6903   5.804   9.575  11.704 -0.0460 -0.2149  0.0090
 3385W        W 6904   6.036   1.907   3.461 -0.2246  0.2344  0.2595
 3386W        W 6905   0.475   0.403   9.533  0.1110  0.0925  0.3348
 3387W        W 6906   2.036   1.469   0.634  0.2207  0.0272  0.1861
 3388W        W 6907   5.287   5.684   2.154 -0.1534 -0.2050  0.2692
 3389W        W 6908   1.151   0.142  10.949  0.1358  0.0578  0.1196
 3390W        W 6909   0.959   5.632   1.380  0.0168  0.1471 -0.2170
 3391W        W 6910   4.229   4.102  11.792  0.1434  0.0244  0.2235
 3392W        W 6911   3.474   6.187   9.998 -0.0235 -0.0456 -0.0772
 3393W        W 6912   4.895   1.918   3.376 -0.1878 -0.1628  0.1959
 3394W        W 6913   6.532   3.373  10.742  0.1454  0.3260  0.3207
 3395W        W 6914   1.429   7.500   7.792  0.0131 -0.0270  0.1048
 3396W        W 6915   4.720   7.926   7.940 -0.0430 -0.1522 -0.0773
 3397W        W 6916   4.485   7.019   3.805 -0.1247 -0.3309 -0.1972
 3398W        W 6917   5.045   6.951   0.423  0.0887 -0.0453 -0.3643
 3399W        W 6918   8.885   3.490   1.093  0.4654 -0.0617 -0.2068
 3400W        W 6919   3.230   8.193  10.462  0.3304 -0.2700 -0.1372
 3401W        W 6920   9.026   8.126   0.902  0.1693  0.1343 -0.1501
 3402W        W 6921   5.857   0.317  11.268 -0.5298 -0.0931  0.0601
 3403W        W 6922   3.923   6.969   2.339  0.1980  0.0507  0.0898
 3404W        W 6923   1.654   5.813   1.645  0.1019 -0.0077 -0.2958
 3405W        W 6924   4.410   8.405  11.879 -0.0742 -0.0031 -0.0360
 3406W        W 6925   6.262   9.403   8.685  0.1167  0.0737  0.2166
 3407W        W 6926   3.144   9.177   9.197 -0.0855  0.1348  0.2094
 3408W        W 6927   4.399   1.109   2.935  0.3120 -0.1815  0.1012
 3409W        W 6928   5.411   8.412   3.841 -0.1502 -0.0703  0.1208
 3410W        W 6929   7.517   5.384   1.266 -0.2051  0.1922  0.2502
 3411W        W 6930   4.037   8.384   8.877 -0.0596 -0.1749  0.0673
 3412W        W 6931   4.773   2.947  10.532  0.1562  0.0038  0.0729
 3413W        W 6932   7.239   5.679   3.302  0.0919  0.0551  0.0507
 3414W        W 6933   9.093   2.710   0.429 -0.4374  0.3999  0.2271
 3415W        W 6934   8.039   7.135  11.824  0.2213  0.0752  0.2833
 3416W        W 6935   9.381   1.298  12.467 -0.2272  0.1415  0.1630
 3417W        W 6936   4.840   5.277  12.062 -0.0482 -0.0001  0.2231
 3418W        W 6937   1.556   9.551   4.867  0.0929 -0.1213 -0.1988
 3419W        W 6938   8.784   8.970  10.588  0.1101  0.0687  0.2104
 3420W        W 6939   1.608   9.312   9.080  0.1358  0.1888 -0.3080
 3421W        W 6940   4.909   8.739  11.021 -0.1005  0.4766  0.1186
 3422W        W 6941   9.651   5.691   2.562  0.0073 -0.1309  0.0524
 3423W        W 6942   2.850   6.441  10.665 -0.1375 -0.2082 -0.1445
 3424W        W 6943   3.619   7.669   1.586  0.0062 -0.3399 -0.2898
 3425W        W 6944   3.052   5.113   9.983  0.0421  0.1972 -0.0493
 3426W        W 6945   3.416   4.003   0.486  0.1718  0.2251  0.1494
 3427W        W 6946   8.388   3.729  10.737  0.2255  0.1010 -0.0613
 3428W        W 6947   3.950   3.351   9.600 -0.1772 -0.2954 -0.2831
 3429W        W 6948   0.412   3.154  10.615 -0.0373 -0.1418  0.0596
 3430W        W 6949   0.700   8.928   0.032 -0.1897  0.0778  0.4062
 3431W        W 6950   0.160   3.608   1.998 -0.0661  0.0758  0.0540
 3432W        W 6951   0.052   7.988  11.338  0.7286  0.1232  0.2421
 3433W        W 6952   0.646   6.277   9.039  0.0455  0.2310 -0.0611
 3434W        W 6953   8.724   7.824   3.668 -0.0862  0.2873  0.2158
 3435W        W 6954   1.028   4.076   3.704  0.0159  0.2293  0.0351
 3436W        W 6955   4.194   0.623   8.299  0.2187 -0.0442  0.0906
 3437W        W 6956   0.533   8.026   2.179 -0.0691  0.3864 -0.3089
 3438W        W 6957   2.075   8.123   1.420 -0.0197  0.1680 -0.1102
 3439W        W 6958   1.945   7.854   1.829  0.0871  0.0673  0.1668
 3440W        W 6959   1.444   2.782  12.533  0.0896 -0.0735 -0.0359
 3441W        W 6960   4.074   7.936   1.571  0.0936 -0.0103 -0.1060
 3442W        W 6961   7.263   8.186   2.004  0.1827  0.0827 -0.0833
 3443W        W 6962   7.770   1.909  11.475 -0.0614 -0.3421  0.2977
 3444W        W 6963   8.140   7.174   3.161  0.0899  0.2291  0.1407
 3445W        W 6964   1.913   6.302   0.063  0.0020  0.0411 -0.0352
 3446W        W 6965   0.073   6.352   0.537  0.1881  0.0160 -0.4598
 3447W        W 6966   1.342   8.005   3.314 -0.2159 -0.0072 -0.0909
 3448W        W 6967   0.585   8.170   2.858  0.1161  0.0499 -0.1143
 3449W        W 6968   6.539   7.661  10.351  0.2097  0.3007 -0.2322
 3450W        W 6969   7.491   0.283   1.288  0.1201  0.1839 -0.0463
 3451W        W 6970   6.390   6.179   1.739  0.0411  0.1209  0.2356
 3452W        W 6971   3.839   8.424   0.217 -0.0957 -0.0256 -0.1101
 3453W        W 6972   2.817   8.203   1.788 -0.2036  0.1202  0.1271
 3454W        W 6973   8.988   8.580   9.217 -0.1485  0.1117  0.1595
 3455W        W 6974   7.698   8.702   8.939  0.0869 -0.0852  0.1148
 3456W        W 6975   9.374   1.816   0.481 -0.0973 -0.0444 -0.0896
 3457W        W 6976   0.434   9.074   2.606 -0.2663  0.1807 -0.1302
 3458W        W 6977   8.084   8.064   9.246  0.2078  0.0772 -0.5495
 3459W        W 6978   0.235   0.596  11.415 -0.0305  0.0262 -0.0558
 3460W        W 6979   7.744   2.783  10.814 -0.0885  0.0380  0.0569
 3461W        W 6980   8.300   1.062  11.633 -0.0522 -0.1149  0.1759
 3462W        W 6981   8.732   0.565  12.482 -0.2262  0.2728  0.0333
 3463W        W 6982   7.345   6.939  12.295 -0.2838 -0.0596  0.1173
 3464W        W 6983   2.168   6.574  10.862 -0.2147 -0.0790  0.1550
 3465W        W 6984   7.460   2.133   0.809  0.2017 -0.1131  0.0995
 3466W        W 6985   7.040   7.814   1.740  0.1002  0.2936 -0.0439
 3467W        W 6986   8.267   4.203  11.618 -0.0595  0.1580  0.0504
 3468W        W 6987   6.931   8.592  12.390 -0.1385  0.0921 -0.1164
 3469W        W 6988   1.705   1.382   9.268 -0.1473  0.0799  0.1698
 3470W        W 6989   0.866   1.909  12.086  0.2901  0.3722 -0.1349
 3471W        W 6990   2.997   3.427  11.236 -0.2440 -0.1567 -0.2508
 3472W        W 6991   5.101   9.027  10.133  0.3792  0.2196  0.0598
 3473W        W 6992   9.586   6.020   0.213 -0.0179  0.0613 -0.5441
 3474W        W 6993   7.687   0.168   8.031  0.1354  0.2070 -0.1801
 3475W        W 6994   9.152   7.394  11.092  0.1100 -0.0973 -0.1540
 3476W        W 6995   7.259   2.993   1.944  0.2228  0.0316 -0.1051
 3477W        W 6996   2.496   3.092  12.180  0.3018  0.3502  0.1039
 3478W        W 6997   6.979   1.487   0.799  0.1100 -0.0166 -0.1158
 3479W        W 6998   2.547   7.663  10.551  0.2350  0.4012  0.0197
 3480W        W 6999   1.676   7.120   8.777  0.0722  0.1819 -0.0984
 3481W        W 7000   6.100   4.663  11.213 -0.4719  0.1063  0.0096
 3482W        W 7001   2.393   2.700   1.002 -0.0724  0.2129 -0.1394
 3483W        W 7002   8.350   5.631  11.854  0.0580 -0.1170 -0.0191
 3484W        W 7003   2.069   6.970   9.156  0.1074  0.0657  0.2409
 3485W        W 7004   5.331   6.496  11.093 -0.1345  0.1940  0.1396
 3486W        W 7005   2.396   7.033  10.073  0.0209  0.0485 -0.1401
 3487W        W 7006   9.572   3.365   2.982  0.0738 -0.0210  0.0724
 3488W        W 7007   1.178   7.868   1.415 -0.1313  0.2674 -0.2423
 3489W        W 7008   6.838   6.787  10.009  0.0554  0.0898  0.1273
 3490W        W 7009   0.938   6.625   0.858 -0.0441 -0.1196  0.0899
 3491W        W 7010   5.563   1.344   1.744 -0.0922 -0.2710  0.1845
 3492W        W 7011   4.235   2.171  10.222 -0.2702 -0.0624  0.2159
 3493W        W 7012   5.748   8.327   1.279  0.2749 -0.0583  0.2275
 3494W        W 7013   8.350   0.553   2.552  0.0581  0.0749  0.1717
 3495W        W 7014   6.843   8.022  12.510 -0.1010  0.0866  0.0434
 3496W        W 7015   4.546   2.494   9.715 -0.2127 -0.1251  0.0903
 3497W        W 7016   8.517   6.076   1.968 -0.3992  0.0218  0.1546
 3498W        W 7017   1.745   0.337   4.225 -0.2541 -0.0731  0.3924
 3499W        W 7018   2.847   6.418   8.821 -0.0833 -0.1289  0.0060
 3500W        W 7019   1.321   5.005   3.267  0.1048 -0.3182  0.5010
 3501W        W 7020   3.894   4.902   0.421  0.2860  0.0731 -0.0676
 3502W        W 7021   6.074   6.785   2.444  0.1357  0.3397 -0.0835
 3503W        W 7022   9.428   4.771   3.363  0.1586  0.0254 -0.4497
 3504W        W 7023   0.936   8.594  12.161 -0.0262  0.1509  0.2364
 3505W        W 7024   0.077   9.619   4.637  0.3629 -0.1707 -0.0436
 3506W        W 7025   8.817   8.556   8.661  0.1109  0.2031 -0.2362
 3507W        W 7026   2.678   2.757   1.724 -0.1971  0.0782  0.2025
 3508W        W 7027   5.865   1.534  11.579 -0.0556  0.1265 -0.0904
 3509W        W 7028   5.880   1.995  12.032 -0.0777  0.1322 -0.0406
 3510W        W 7029   1.884   2.854  10.391 -0.2162 -0.2883  0.0383
 3511W        W 7030   3.246   0.323  10.780  0.3269  0.0256 -0.2660
 3512W        W 7031   2.580   6.181  10.324  0.1033  0.2304 -0.0217
 3513W        W 7032   1.485   5.854   0.939 -0.0786  0.2397  0.0865
 3514W        W 7033   3.199   5.737   3.324 -0.1009 -0.0216 -0.2572
 3515W        W 7034   0.838   3.663  11.435  0.0514  0.1561  0.2079
 3516W        W 7035   8.617   9.486  10.366 -0.2243  0.1335  0.0095
 3517W        W 7036   0.106   7.491  11.827  0.2097  0.1121  0.0749
 3518W        W 7037   2.224   4.947   1.272 -0.0625  0.0997 -0.2037
 3519W        W 7038   2.379   7.505  10.981  0.3405  0.1491  0.1919
 3520W        W 7039   8.762   2.964  11.992  0.3480  0.1581 -0.6022
 3521W        W 7040   3.531   3.903   9.602 -0.2518 -0.0402  0.3863
 3522W        W 7041   3.430   4.069   2.526  0.2321  0.0200 -0.1087
 3523W        W 7042   5.961   4.504   1.446 -0.0872  0.3279  0.1082
 3524W        W 7043   4.685   9.447  12.582  0.1665  0.0696 -0.3732
 3525W        W 7044   0.027   7.637   0.128 -0.2083  0.0523  0.0188
 3526W        W 7045   7.614   7.204   9.759 -0.1739  0.2489 -0.2597
 3527W        W 7046   6.507   2.341   1.301  0.0300  0.1545  0.0942
 3528W        W 7047   8.386   5.468  10.283 -0.0128  0.1281  0.0270
 3529W        W 7048   6.566   5.786   8.910 -0.2379 -0.1981  0.0684
 3530W        W 7049   0.360   7.342   9.048  0.1151  0.2148 -0.0484
 3531W        W 7050   7.972   2.735   0.389 -0.0506 -0.0603  0.0109
 3532W        W 7051   0.262   5.202   2.768  0.5682  0.0432 -0.0580
 3533W        W 7052   0.708   3.534  10.947 -0.1251  0.1730 -0.0225
 3534W        W 7053   7.647   0.785   1.328  0.0748  0.2752 -0.1960
 3535W        W 7054   9.325   7.709   0.891  0.1852  0.1297 -0.1333
 3536W        W 7055   0.815   8.843  11.611  0.0697 -0.1790 -0.0568
 3537W        W 7056   1.141   2.022  10.411  0.2383 -0.1431 -0.1705
 3538W        W 7057   6.111   6.038  11.636  0.2947 -0.0614 -0.0530
 3539W        W 7058   5.142   4.077   2.541 -0.2852  0.0303 -0.0553
 3540W        W 7059   8.274   6.696   9.867  0.0351  0.0641 -0.2304
 3541W        W 7060   9.289   7.097   4.081  0.0953 -0.2825 -0.0123
 3542W        W 7061   7.503   5.933   1.332  0.2627 -0.2514 -0.0373
 3543W        W 7062   7.990   8.796   2.634  0.1768 -0.1219 -0.3447
 3544W        W 7063   4.979   7.377   1.400 -0.1168 -0.0603  0.1305
 3545W        W 7064   6.854   8.312   2.686  0.2460 -0.0317  0.1053
 3546W        W 7065   7.474   8.675   4.022  0.0944 -0.1496  0.0693
 3547W        W 7066   0.999   7.201   2.257 -0.1035  0.1958  0.0655
 3548W        W 7067   4.654   2.770   3.863  0.1863 -0.0638 -0.0843
 3549W        W 7068   2.638   0.529  11.885  0.5884 -0.0002 -0.0053
 3550W        W 7069   7.882   3.186   1.977 -0.1107  0.0864  0.2027
 3551W        W 7070   9.625   6.423   3.525 -0.0761  0.2040 -0.2488
 3552W        W 7071   2.300   1.781   0.955  0.1026  0.4279 -0.0534
 3553W        W 7072   2.912   9.463  11.560 -0.0801  0.3988 -0.4724
 3554W        W 7073   0.335   2.613   9.924  0.1926 -0.1136  0.3483
 3555W        W 7074   1.821   7.834   2.838  0.3852  0.2715  0.0119
 3556W        W 7075   2.278   7.822  11.426 -0.1441  0.0676  0.0828
 3557W        W 7076   7.755   1.587   0.725 -0.1812 -0.0208 -0.0254
 3558W        W 7077   2.189   1.552   3.402  0.0581  0.0294 -0.0590
 3559W        W 7078   5.880   3.546   3.764 -0.1216 -0.0722  0.2023
 3560W        W 7079   6.154   4.689   9.318  0.0292  0.2745 -0.4371
 3561W        W 7080   6.017   5.243  12.083  0.3359 -0.3166 -0.2510
 3562W        W 7081   5.037   5.942   8.659  0.1623 -0.3451 -0.3197
 3563W        W 7082   7.130   5.151   9.895 -0.1391  0.0105  0.0338
 3564W        W 7083   6.378   8.017   1.082  0.2998  0.0403  0.0114
 3565W        W 7084   5.620   1.159  10.356  0.0907  0.1840 -0.2426
 3566W        W 7085   3.177   0.610   1.662 -0.2084  0.2092 -0.2089
 3567W        W 7086   6.333   7.567   1.412 -0.0068 -0.1618 -0.1737
 3568W        W 7087   1.017   6.137   0.893 -0.0864  0.1682  0.2259
 3569W        W 7088   5.054   2.887   0.549  0.1687  0.0721 -0.0861
 3570W        W 7089   3.264   2.619   3.487 -0.1363  0.0665 -0.2576
 3571W        W 7090   9.178   5.416   0.878  0.4182 -0.0187 -0.1348
 3572W        W 7091   5.352   2.333  11.946 -0.0072  0.1774 -0.2213
 3573W        W 7092   4.650   8.296   1.728 -0.2143 -0.0952 -0.0354
 3574W        W 7093   2.654   3.294  11.783 -0.1492  0.0025 -0.2598
 3575W        W 7094   4.181   4.142   0.850 -0.1319 -0.0322  0.0099
 3576W        W 7095   7.760   5.212  12.131 -0.1200 -0.1778 -0.0640
 3577W        W 7096   6.398   5.975   9.598  0.1283 -0.2542  0.0859
 3578W        W 7097   1.077   2.810   3.755 -0.1177 -0.0477 -0.1143
 3579W        W 7098   9.001   7.805  11.248  0.0488  0.2378  0.1441
 3580W        W 7099   0.258   5.162   4.557  0.3092 -0.0119  0.3384
 3581W        W 7100   6.510   8.998   1.677  0.2433  0.0034  0.1644
 3582W        W 7101   6.732   8.746   0.270 -0.0810  0.1920  0.0480
 3583W        W 7102   2.337   8.165   1.883 -0.0647 -0.2046  0.1872
 3584W        W 7103   6.195   5.465   8.698 -0.0627  0.2002 -0.0870
 3585W        W 7104   6.936   1.854  11.865 -0.0263  0.0842 -0.2684
 3586W        W 7105   0.085   4.340   9.817  0.0073 -0.0964 -0.1440
 3587W        W 7106   2.405   1.443   2.426  0.1034 -0.1033 -0.1774
 3588W        W 7107   7.012   1.488  11.483 -0.0925  0.1066  0.1246
 3589W        W 7108   8.980   0.525  11.377 -0.3317  0.1221  0.0565
 3590W        W 7109   0.539   6.187  10.830 -0.1036  0.2467  0.0592
 3591W        W 7110   1.712   1.262   3.711 -0.2035 -0.2277 -0.1099
 3592W        W 7111   3.213   5.443  10.398  0.2807 -0.1989  0.3562
 3593W        W 7112   1.798   5.135   4.191  0.1173  0.1069  0.4286
 3594W        W 7113   2.452   1.352   0.363  0.0532  0.1792 -0.0476
 3595W        W 7114   6.251   2.842  12.468 -0.1353  0.1728 -0.0586
 3596W        W 7115   9.140   5.784   4.149 -0.0974  0.1502  0.0140
 3597W        W 7116   8.697   3.055   1.847 -0.1317  0.0614 -0.1268
 3598W        W 7117   2.781   2.997   1.087 -0.0239  0.4042 -0.0536
 3599W        W 7118   0.604   0.352   3.498 -0.2567  0.0735 -0.0873
 3600W        W 7119   5.974   2.608  11.334  0.1883 -0.2597  0.5358
 3601W        W 7120   4.631   4.126  11.400  0.1901  0.1295  0.1291
 3602W        W 7121   2.279   0.867   1.315  0.1140 -0.1256 -0.1631
 3603W        W 7122   4.835   2.510  11.331  0.1847 -0.3054 -0.5349
 3604W        W 7123   0.088   5.856   5.142  0.0548 -0.2057 -0.2109
 3605W        W 7124   4.835   4.305   3.906  0.0647  0.2569 -0.0577
 3606W        W 7125   5.893   4.848   0.995  0.0579 -0.0420 -0.2349
 3607W        W 7126   7.893   6.878   1.557 -0.1708  0.0036  0.1693
 3608W        W 7127   0.883   9.363   4.250 -0.1232 -0.3906  0.2323
 3609W        W 7128   5.255   0.894  11.566  0.0719 -0.2664 -0.1555
 3610W        W 7129   2.259   7.531  10.158 -0.2458  0.0108  0.3667
 3611W        W 7130   5.597   7.032   0.271 -0.0190  0.0476  0.1551
 3612W        W 7131   6.931   0.022   8.650 -0.0985  0.2598 -0.0614
 3613W        W 7132   1.833   0.549  10.137 -0.4642  0.3297 -0.0347
 3614W        W 7133   1.508   1.140   8.393  0.0138 -0.1001  0.4572
 3615W        W 7134   1.874   1.969   0.308 -0.0380  0.1728 -0.4097
 3616W        W 7135   9.119   5.004  10.391  0.4551 -0.0158  0.0007
 3617W        W 7136   5.070   9.443   2.713  0.1130  0.1269 -0.0406
 3618W        W 7137   6.372   8.605   2.804 -0.0632 -0.1731  0.1358
 3619W        W 7138   7.319   9.162   8.734 -0.0844 -0.2427 -0.1349
 3620W        W 7139   3.621   9.589   0.308 -0.0638  0.0773 -0.0939
 3621W        W 7140   8.092   9.628   8.391  0.1726  0.1646  0.0673
 3622W        W 7141   1.778   5.535  12.178 -0.2313 -0.1937  0.0845
 3623W        W 7142   9.472   9.274  12.125  0.1124 -0.0860  0.0437
 3624W        W 7143   6.896   4.410   9.884 -0.0894 -0.0100 -0.0159
 3625W        W 7144   6.815   0.321  10.259  0.3815  0.0995  0.2643
 3626W        W 7145   3.109   6.129  10.987 -0.0447 -0.0123  0.0605
 3627W        W 7146   3.929   1.389   0.814  0.2859  0.0343 -0.2977
 3628W        W 7147   7.716   3.950  10.391 -0.2261  0.0310  0.2988
 3629W        W 7148   3.395   1.040  11.355 -0.3558 -0.2185 -0.0023
 3630W        W 7149   5.356   7.690   1.389 -0.2870 -0.1622 -0.2028
 3631W        W 7150   0.711   6.966   9.534 -0.1235 -0.1079  0.2005
 3632W        W 7151   5.725   3.484  12.070  0.3818 -0.0379 -0.0287
 3633W        W 7152   1.410   6.834   4.131 -0.0469  0.4204  0.0610
 3634W        W 7153   2.613   5.597   2.731  0.3122  0.0796 -0.4372
 3635W        W 7154   1.679   6.320  10.840 -0.0778  0.3102  0.0632
 3636W        W 7155   9.051   5.489  10.294  0.2654  0.0430 -0.4616
 3637W        W 7156   3.719   2.461   3.258 -0.0931 -0.0074 -0.0453
 3638W        W 7157   6.493   3.842   0.662 -0.2865  0.0869 -0.2292
 3639W        W 7158   1.121   3.986   5.179 -0.0409 -0.0527  0.1605
 3640W        W 7159   8.960   0.500  11.976 -0.0631  0.0106 -0.0045
 3641W        W 7160   0.434   1.882   0.100  0.1100 -0.0225 -0.0685
 3642W        W 7161   0.627   1.612   0.528 -0.1792 -0.2903 -0.2369
 3643W        W 7162   4.161   0.233   9.720 -0.0779  0.2164  0.1406
 3644W        W 7163   1.506   6.019   8.981  0.1718 -0.0904  0.2401
 3645W        W 7164   5.095   7.441   3.634 -0.0908  0.0411 -0.1595
 3646W        W 7165   9.065   6.532   9.763  0.1192 -0.2802  0.1989
 3647W        W 7166   2.823   4.200   2.799 -0.3327 -0.2832 -0.2239
 3648W        W 7167   2.160   4.296   0.978  0.0111 -0.0322 -0.2410
 3649W        W 7168   6.496   8.937   0.632  0.1217 -0.0521 -0.0558
 3650W        W 7169   5.208   9.101   3.134  0.1209 -0.0535 -0.0096
 3651W        W 7170   5.498   1.583   4.175  0.2084 -0.1384 -0.0824
 3652W        W 7171   4.083   4.119   8.961 -0.1261 -0.0488 -0.1734
 3653W        W 7172   7.292   9.457   9.721  0.0482  0.2713  0.1126
 3654W        W 7173   6.169   6.367  10.523 -0.1435 -0.2480  0.0029
 3655W        W 7174   1.892   7.217  10.166 -0.0652  0.0963  0.1299
 3656W        W 7175   4.749   4.785   9.795  0.2164  0.0007  0.0073
 3657W        W 7176   8.521   8.050   2.349  0.0315  0.2439 -0.2654
 3658W        W 7177   7.310   6.292   3.070  0.0775  0.0560 -0.2549
 3659W        W 7178   4.991   8.655   0.944 -0.3967 -0.0038 -0.3507
 3660W        W 7179   6.678   9.052  10.565  0.1895  0.2936 -0.0467
 3661W        W 7180   8.785   6.688  12.517 -0.0989  0.1765  0.1454
 3662W        W 7181   3.346   5.062   1.380  0.1117 -0.1387 -0.2033
 3663W        W 7182   2.959   0.868   4.210 -0.1815 -0.0009 -0.1744
 3664W        W 7183   1.392   0.626  11.591  0.3615  0.1124  0.0867
 3665W        W 7184   9.032   5.628   9.620  0.3056  0.1565 -0.3962
 3666W        W 7185   2.051   2.760   4.204  0.3646 -0.1455  0.1305
 3667W        W 7186   5.948   9.615   0.692  0.2513  0.4073  0.1119
 3668W        W 7187   2.407   8.648   8.922  0.0419  0.1801  0.3054
 3669W        W 7188   2.204   8.133   2.769 -0.0411 -0.0660 -0.0345
 3670W        W 7189   9.099   0.368  10.870 -0.3725  0.0737 -0.0111
 3671W        W 7190   6.271   8.529   0.405 -0.0833 -0.3600 -0.1497
 3672W        W 7191   6.731   7.767   0.401  0.2296 -0.2689 -0.5768
 3673W        W 7192   5.442   1.219   9.339 -0.2857 -0.1197  0.0100
 3674W        W 7193   2.980   1.698  10.976 -0.1359  0.2263 -0.0568
 3675W        W 7194   0.820   1.258   9.920 -0.0394  0.0493 -0.0501
 3676W        W 7195   3.332   7.926   4.250  0.0917  0.1700  0.2213
 3677W        W 7196   7.588   8.231   9.303 -0.1209  0.1766 -0.2491
 3678W        W 7197   2.671   0.096   1.837  0.2286  0.1189 -0.0733
 3679W        W 7198   2.373   4.921   2.204 -0.1730 -0.0447 -0.1278
 3680W        W 7199   1.646   8.872   0.909 -0.1974 -0.2052 -0.0661
 3681W        W 7200   1.857   5.000   2.237 -0.2388 -0.2114 -0.2422
 3682W        W 7201   9.193   0.855   9.821 -0.1633 -0.1623  0.1237
 3683W        W 7202   3.367   4.679   0.589  0.0781 -0.0432  0.2787
 3684W        W 7203   0.146   1.833   2.425  0.1216  0.2969 -0.0361
 3685W        W 7204   8.130   1.853   2.092  0.1224  0.3412  0.0688
 3686W        W 7205   2.239   6.664   0.364  0.1937 -0.0869 -0.1388
 3687W        W 7206   1.314   1.894   7.964  0.0432  0.0918  0.4265
 3688W        W 7207   4.706   3.229   8.918 -0.2284 -0.2099 -0.0057
 3689W        W 7208   2.429   2.520   9.770 -0.0179 -0.0213  0.0212
 3690W        W 7209   7.197   7.399   8.377  0.3222  0.1054  0.1836
 3691W        W 7210   1.027   8.601  11.257  0.4578 -0.0047  0.1219
 3692W        W 7211   2.621   9.665  11.995  0.0911  0.2291 -0.0896
 3693W        W 7212   9.291   7.283   3.140 -0.2589 -0.1605 -0.1725
 3694W        W 7213   5.071   4.343   1.167 -0.2334 -0.0306 -0.0481
 3695W        W 7214   0.576   6.394   1.115 -0.1364  0.2802 -0.0912
 3696W        W 7215   2.236   8.734   3.997 -0.1180 -0.2645 -0.1117
 3697W        W 7216   4.332   3.733   2.216  0.2759  0.0533 -0.1950
 3698W        W 7217   1.049   8.284   2.325  0.2163 -0.0483  0.3327
 3699W        W 7218   8.302   8.139   0.859  0.2542  0.1753  0.3506
 3700W        W 7219   3.876   6.608   1.229 -0.1151  0.0727 -0.2686
 3701W        W 7220   5.695   7.840   4.040  0.1271 -0.1133 -0.0072
 3702W        W 7221   2.232   8.958  10.565  0.2038  0.1053  0.0454
 3703W        W 7222   9.432   6.064  11.930  0.1382  0.0074  0.3565
 3704W        W 7223   4.927   7.729   3.022 -0.1425 -0.1232 -0.2803
 3705W        W 7224   3.042   4.961   3.950 -0.0954 -0.1490 -0.0553
 3706W        W 7225   4.975   2.341   2.013 -0.0332 -0.2688 -0.1045
 3707W        W 7226   1.663   6.428  10.324  0.1015  0.2417  0.1446
 3708W        W 7227   0.510   0.748  12.481  0.1049  0.2314 -0.0187
 3709W        W 7228   5.743   9.423   1.167 -0.2089 -0.1663 -0.0035
 3710W        W 7229   7.106   5.051   1.370  0.2353 -0.0034  0.1337
 3711W        W 7230   3.728   5.126   9.259 -0.1794  0.3433 -0.3246
 3712W        W 7231   9.612   7.359   8.751  0.0241 -0.2061  0.1895
 3713W        W 7232   2.485   8.437  12.550 -0.1888  0.5421  0.1325
 3714W        W 7233   7.880   5.511   2.637  0.1681 -0.0519 -0.1317
 3715W        W 7234   8.667   7.009   0.945 -0.0373 -0.3025  0.3269
 3716W        W 7235   7.347   4.346   2.084  0.1036 -0.1332 -0.0277
 3717W        W 7236   3.963   8.712  11.353  0.0952 -0.0716 -0.0713
 3718W        W 7237   1.141   5.537   2.905 -0.1258  0.0305 -0.0250
 3719W        W 7238   5.345   8.952  11.959  0.1293  0.2162 -0.0959
 3720W        W 7239   4.523   6.704   2.212  0.1725  0.0864  0.1712
 3721W        W 7240   8.410   6.399   3.697  0.0054 -0.3384 -0.2489
 3722W        W 7241   9.354   8.004   0.475 -0.0879 -0.2367  0.0854
 3723W        W 7242   7.306   6.107   4.026 -0.0005  0.0135 -0.1308
 3724W        W 7243   6.724   7.061   1.534  0.1888  0.1765  0.0453
 3725W        W 7244   3.160   6.894   2.674  0.2111 -0.1605  0.0673
 3726W        W 7245   3.737   2.926  10.558 -0.1790 -0.1377 -0.1307
 3727W        W 7246   6.277   0.734   2.210  0.0006 -0.0959  0.2333
 3728W        W 7247   7.605   0.877   8.929 -0.2751 -0.1384 -0.1756
 3729W        W 7248   1.667   4.134   1.029  0.0507  0.0990 -0.0864
 3730W        W 7249   4.318   0.954  11.340 -0.0686  0.0779  0.0262
 3731W        W 7250   0.939   4.919  10.620  0.5444  0.3532  0.4330
 3732W        W 7251   8.331   6.743   9.381  0.0465 -0.0998  0.1615
 3733W        W 7252   4.097   9.035   0.767 -0.2796 -0.2068 -0.0375
 3734W        W 7253   0.118   8.268  10.377 -0.2061 -0.1365 -0.0391
 3735W        W 7254   0.712   6.788  12.243  0.2107  0.1215  0.1505
 3736W        W 7255   5.468   8.686   9.909  0.0492  0.1145  0.1371
 3737W        W 7256   9.507   5.096   8.959 -0.0241  0.3189 -0.4408
 3738W        W 7257   1.686   2.344   9.627  0.0670  0.0544 -0.2013
 3739W        W 7258   6.150   0.936  10.707 -0.2699  0.3373 -0.2422
 3740W        W 7259   0.684   2.016   4.401  0.1241  0.1814 -0.3808
 3741W        W 7260   5.084   8.023  10.465 -0.0035 -0.1880 -0.2176
 3742W        W 7261   1.902   6.092   3.501  0.2051 -0.1234 -0.0584
 3743W        W 7262   7.694   8.154   1.785 -0.1134  0.1108 -0.1730
 3744W        W 7263   8.961   1.663  11.273  0.2621 -0.0456  0.2463
 3745W        W 7264   0.461   2.542  12.016  0.0498  0.0539 -0.1032
 3746W        W 7265   6.084   0.673   9.068 -0.2111  0.1425 -0.2481
 3747W        W 7266   3.616   8.039   3.163 -0.0357 -0.0694  0.0742
 3748W        W 7267   7.810   3.905   1.090 -0.4372 -0.2691  0.1017
 3749W        W 7268   6.286   9.464   1.843 -0.0607  0.0422  0.0695
 3750W        W 7269   7.695   7.885  11.339  0.2261 -0.1080 -0.3687
 3751W        W 7270   3.979   5.773  10.988  0.5419  0.3955 -0.0865
 3752W        W 7271   7.812   0.625   9.324 -0.0691 -0.0652  0.0816
 3753W        W 7272   2.544   8.120   2.357 -0.3315 -0.1947 -0.0052
 3754W        W 7273   9.115   3.306  11.877  0.0418 -0.0272  0.1098
 3755W        W 7274   5.567   4.463  10.189 -0.0864 -0.2651 -0.1534
 3756W        W 7275   4.238   6.167   3.936 -0.0039 -0.1409 -0.1858
 3757W        W 7276   2.170   3.409   8.576 -0.1623 -0.2120 -0.3134
 3758W        W 7277   6.303   8.479  10.390 -0.0542 -0.0198 -0.2175
 3759W        W 7278   1.841   2.388   2.234 -0.0858  0.0963 -0.1389
 3760W        W 7279   6.817   4.759   3.720  0.0717  0.0367  0.0847
 3761W        W 7280   6.860   6.994   1.048 -0.0032  0.0186 -0.0061
 3762W        W 7281   8.803   0.147  11.699 -0.1808 -0.1035 -0.0908
 3763W        W 7282   0.643   1.862   2.537  0.1739  0.1032  0.0497
 3764W        W 7283   9.471   2.447  11.378  0.2437 -0.0419 -0.0529
 3765W        W 7284   1.303   4.476   1.243  0.1186  0.1515 -0.1302
 3766W        W 7285   2.822   7.485   4.668 -0.1203 -0.1627  0.0627
 3767W        W 7286   7.830   4.487  11.485  0.1557  0.0255  0.1640
 3768W        W 7287   3.257   8.692  10.209 -0.1691  0.1825 -0.1551
 3769W        W 7288   5.967   1.624  12.541 -0.0038 -0.1151  0.2247
 3770W        W 7289   8.460   1.057   9.497  0.0665 -0.1884  0.2380
 3771W        W 7290   8.921   1.510   0.438  0.0357 -0.2035 -0.0484
 3772W        W 7291   5.321   5.595   3.111 -0.3412 -0.3433  0.1374
 3773W        W 7292   8.489   7.522   2.567 -0.3522 -0.2308 -0.1318
 3774W        W 7293   5.532   9.272   3.517  0.0950 -0.0037 -0.1934
 3775W        W 7294   4.245   4.379  10.401  0.0188  0.1474 -0.1562
 3776W        W 7295   2.969   9.055   3.628  0.1354 -0.0796 -0.0374
 3777W        W 7296   2.223   3.385   0.346  0.0283  0.1287  0.0608
 3778W        W 7297   3.337   6.523   2.968 -0.1702 -0.0334 -0.0556
 3779W        W 7298   1.797   1.119   0.872  0.0853  0.2708  0.2788
 3780W        W 7299   4.879   3.208   2.982 -0.1358 -0.0388  0.0742
 3781W        W 7300   6.728   6.579   2.308 -0.2765  0.4408 -0.0228
 3782W        W 7301   2.781   7.250   3.438 -0.2215  0.0290  0.3624
 3783W        W 7302   1.332   0.646  10.169  0.1466  0.2204  0.3516
 3784W        W 7303   7.631   3.074   0.772 -0.1927 -0.1344  0.2074
 3785W        W 7304   3.676   5.560   3.262  0.1046 -0.3027  0.1282
 3786W        W 7305   7.979   3.420   0.838  0.6367  0.0166  0.2169
 3787W        W 7306   4.889   8.304   3.863 -0.2119 -0.1478  0.2082
 3788W        W 7307   6.052   6.612   0.324  0.1035 -0.0984  0.0995
 3789W        W 7308   3.780   4.191   1.996  0.0283 -0.0166 -0.0052
 3790W        W 7309   8.707   7.405  12.003  0.6096 -0.5276  0.3201
 3791W        W 7310   9.378   8.223   9.305  0.2515  0.0642 -0.0681
 3792W        W 7311   0.977   5.000   9.888 -0.1822 -0.2395  0.1361
 3793W        W 7312   7.795   8.360   0.017 -0.0242 -0.1064  0.1918
 3794W        W 7313   1.842   4.454   0.658 -0.0999 -0.0501  0.1118
 3795W        W 7314   3.551   2.018  11.861 -0.0387 -0.1787  0.2193
 3796W        W 7315   0.528   4.731   0.474 -0.0836  0.0995 -0.1177
 3797W        W 7316   3.701   7.339  11.978 -0.0659  0.3097 -0.2521
 3798W        W 7317   5.856   4.375  10.919 -0.0071 -0.0453  0.2537
 3799W        W 7318   6.443   2.197   3.374  0.1316 -0.4439 -0.1748
 3800W        W 7319   1.479   3.753   3.705 -0.0328  0.0934 -0.0712
 3801W        W 7320   8.364   0.265  10.108  0.0060  0.0328 -0.0377
 3802W        W 7321   1.077   9.351   9.464 -0.0863 -0.0543 -0.0879
 3803W        W 7322   5.770   7.671  11.137 -0.0879  0.0285  0.0840
 3804W        W 7323   5.244   5.932   4.055  0.0124 -0.0177  0.0572
 3805W        W 7324   3.028   7.332   2.455 -0.0307 -0.1375  0.0892
 3806W        W 7325   5.366   8.038   2.410  0.1174 -0.1663 -0.1474
 3807W        W 7326   6.723   4.892   3.086  0.1266  0.0580  0.1493
 3808W        W 7327   7.088   6.951   8.673  0.0410  0.1358  0.1412
 3809W        W 7328   6.731   1.979  10.110 -0.4020 -0.0224  0.1514
 3810W        W 7329   8.742   0.428   1.685  0.0107 -0.1174 -0.2028
 3811W        W 7330   7.007   4.157  12.404  0.1377  0.4951  0.4717
 3812W        W 7331   3.242   7.182   1.056  0.2892  0.1799 -0.0737
 3813W        W 7332   6.803   5.414  11.540 -0.2738 -0.1454  0.3020
 3814W        W 7333   5.954   2.571   8.684 -0.0079 -0.4268  0.0381
 3815W        W 7334   8.825   3.665   0.532  0.0649 -0.2190 -0.1864
 3816W        W 7335   3.441   0.205   8.634  0.0047  0.0359 -0.2607
 3817W        W 7336   9.448   6.933   9.719  0.3895  0.0501 -0.0394
 3818W        W 7337   0.387   8.505  11.847  0.1647 -0.1646 -0.0819
 3819W        W 7338   3.673   5.176  12.543  0.0203  0.2141  0.0670
 3820W        W 7339   6.056   7.595   3.659 -0.1082 -0.0018 -0.0408
 3821W        W 7340   7.060   3.170   0.921  0.2323 -0.1597 -0.0181
 3822W        W 7341   2.114   4.688   8.992 -0.1691 -0.0293 -0.2546
 3823W        W 7342   1.380   1.816   8.470  0.1986 -0.0206  0.3084
 3824W        W 7343   9.424   8.994  11.511  0.0371  0.0930 -0.1968
 3825W        W 7344   0.217   4.821   4.138  0.1211 -0.1818 -0.0351
 3826W        W 7345   7.942   7.565   9.890 -0.1904 -0.0844 -0.1056
 3827W        W 7346   6.130   6.725   8.832 -0.0896  0.0960  0.1237
 3828W        W 7347   7.113   9.051   1.226  0.0622  0.0075  0.0974
 3829W        W 7348   2.292   8.673   0.951  0.0013 -0.0127  0.0375
 3830W        W 7349   0.613   4.458  11.024  0.0533  0.1724  0.0566
 3831W        W 7350   0.667   0.187  10.430  0.0386 -0.0629 -0.1436
 3832W        W 7351   8.863   3.048  11.428 -0.1237  0.1416 -0.0881
 3833W        W 7352   3.126   2.244  10.579 -0.0149  0.2929 -0.2866
 3834W        W 7353   7.226   5.611   2.149 -0.1407  0.1610  0.2261
 3835W        W 7354   2.920   9.339   0.460  0.1942  0.0594  0.1770
 3836W        W 7355   0.001   6.742  11.691  0.0558 -0.3824  0.1958
 3837W        W 7356   8.364   0.269   4.270  0.0517 -0.0807  0.0576
 3838W        W 7357   0.936   1.619   1.691 -0.2641 -0.0198  0.0573
 3839W        W 7358   2.125   0.446   2.496 -0.2140 -0.0813 -0.3008
 3840W        W 7359   8.560   5.617   9.843 -0.0355 -0.2124 -0.1131
 3841W        W 7360   8.892   4.560   0.506 -0.4246  0.0821 -0.0047
 3842W        W 7361   5.402   6.525  10.228  0.0232  0.0750  0.5667
 3843W        W 7362   7.474   2.457  11.406  0.4065  0.1226 -0.0978
 3844W        W 7363   9.232   4.430  10.672 -0.1350  0.1107 -0.2594
 3845W        W 7364   8.491   8.995   0.882  0.0983  0.0232 -0.3388
 3846W        W 7365   7.301   2.404   1.939 -0.0285  0.2727 -0.2162
 3847W        W 7366   3.473   1.044   8.354 -0.1025  0.1925  0.0178
 3848W        W 7367   9.253   1.320   0.881 -0.1741 -0.1805 -0.0797
 3849W        W 7368   4.308   0.129   0.218  0.2810 -0.1856  0.0605
 3850W        W 7369   5.654   8.031   2.869  0.0450  0.2015 -0.0225
 3851W        W 7370   2.010   0.710   1.708  0.0989 -0.1195 -0.2518
 3852W        W 7371   0.462   3.935  11.155  0.1770  0.2198 -0.1968
 3853W        W 7372   6.952   6.498   3.777 -0.0343 -0.0573  0.0701
 3854W        W 7373   3.029   7.142   8.382  0.0494  0.2037  0.2863
 3855W        W 7374   7.362   0.066  12.355  0.0619 -0.2092  0.2544
 3856W        W 7375   9.151   0.861   0.228  0.0618  0.1446 -0.0490
 3857W        W 7376   3.837   8.366   4.909  0.3058  0.0197  0.1498
 3858W        W 7377   4.509   5.746   0.617  0.0681  0.0392 -0.1793
 3859W        W 7378   3.098   0.143   8.280 -0.1556 -0.2161 -0.1582
 3860W        W 7379   0.113   3.658  10.060 -0.0174 -0.1027 -0.2668
 3861W        W 7380   2.856   1.058   1.454  0.3776 -0.1140 -0.2168
 3862W        W 7381   9.080   3.881   3.605 -0.2102  0.1954 -0.0486
 3863W        W 7382   7.342   5.384   3.692 -0.1864  0.0153 -0.1872
 3864W        W 7383   8.285   2.513  11.289  0.5175  0.0979  0.1707
 3865W        W 7384   5.174   6.573   4.042 -0.3815 -0.0394 -0.0974
 3866W        W 7385   7.356   4.284   1.483  0.0235 -0.0342  0.0346
 3867W        W 7386   1.118   6.419  12.129  0.4285 -0.2315 -0.1581
 3868W        W 7387   6.606   5.826   1.547  0.0581 -0.0535  0.0146
 3869W        W 7388   9.085   7.651  10.489 -0.0085  0.0550  0.2916
 3870W        W 7389   8.625   3.480   2.579 -0.2212 -0.0617  0.2734
 3871W        W 7390   1.659   5.434   0.701  0.1540 -0.2265  0.3079
 3872W        W 7391   1.196   1.536  10.378  0.3505  0.0934 -0.1188
 3873W        W 7392   6.711   5.857   0.338  0.5986  0.1194 -0.2084
 3874W        W 7393   7.895   4.180   2.130 -0.2445 -0.3373  0.1016
 3875W        W 7394   0.704   0.607  11.572 -0.0367 -0.4288  0.1986
 3876W        W 7395   3.049   3.489   4.403 -0.1842  0.4058 -0.0794
 3877W        W 7396   2.513   3.226   0.777  0.2796 -0.0989 -0.0028
 3878W        W 7397   4.138   1.693  11.719  0.0651  0.0337  0.1345
 3879W        W 7398   9.286   7.826   1.925  0.2771 -0.0070 -0.2741
 3880W        W 7399   0.205   7.062   4.412  0.0865  0.2525  0.1856
 3881W        W 7400   1.505   6.842  10.664  0.0943 -0.1238 -0.3762
 3882W        W 7401   8.884   5.616   1.873 -0.0322 -0.0154  0.1152
 3883W        W 7402   5.017   3.854   8.386 -0.0136  0.1288 -0.1578
 3884W        W 7403   9.427   4.066  10.356  0.1010  0.1006  0.0258
 3885W        W 7404   6.304   8.959   8.963  0.1300 -0.0230 -0.1639
 3886W        W 7405   0.009   8.879  11.914 -0.3195  0.0510 -0.0412
 3887W        W 7406   3.178   1.943   1.448 -0.3361  0.0946 -0.1045
 3888W        W 7407   1.386   0.640   2.393  0.1722 -0.0693  0.1092
 3889W        W 7408   6.129   7.645   0.817  0.0720 -0.2517  0.3801
 3890W        W 7409   2.151   7.638   3.206  0.0661  0.4284  0.1208
 3891W        W 7410   6.223   8.730   3.797 -0.0490  0.0658 -0.1937
 3892W        W 7411   2.453   3.543   1.503  0.1146  0.0831 -0.1274
 3893W        W 7412   2.998   7.939   9.578  0.3283 -0.3441  0.2013
 3894W        W 7413   1.078   1.140   3.106 -0.1374 -0.0776 -0.4639
 3895W        W 7414   6.768   6.159   9.212 -0.2760 -0.0282 -0.0783
 3896W        W 7415   4.515   7.299   5.027  0.2760  0.1682 -0.0180
 3897W        W 7416   7.851   3.001   9.734  0.0970  0.0101  0.0491
 3898W        W 7417   5.714   6.435   0.644 -0.1435 -0.1052 -0.1617
 3899W        W 7418   6.137   0.425   0.813  0.0051  0.1788 -0.0336
 3900W        W 7419   8.163   7.322   1.711 -0.0173  0.0870  0.0112
 3901W        W 7420   8.954   8.681  10.970 -0.2487  0.0282 -0.1180
 3902W        W 7421   4.829   1.749   2.190 -0.0624  0.2097  0.2927
 3903W        W 7422   7.180   2.605  10.951 -0.2944 -0.0002 -0.0063
 3904W        W 7423   0.123   7.853  10.605 -0.3009 -0.0111  0.1271
 3905W        W 7424   1.917   7.150   3.490  0.1163  0.0496  0.2335
 3906W        W 7425   8.354   2.811   3.682  0.3491 -0.1164  0.1551
 3907W        W 7426   3.291   0.522   4.050  0.1990  0.3325 -0.0585
 3908W        W 7427   3.605   2.285  11.393 -0.0626  0.3269  0.0243
 3909W        W 7428   4.353   2.789  11.194 -0.0730  0.1378  0.2933
 3910W        W 7429   7.486   4.725   0.495 -0.0647  0.1576  0.2254
 3911W        W 7430   0.644   8.561   3.561  0.0410  0.2797  0.2163
 3912W        W 7431   2.195   3.825   3.686 -0.1804 -0.1686  0.0155
 3913W        W 7432   2.745   7.695   3.525 -0.0510 -0.4009 -0.3361
 3914W        W 7433   6.695   4.812   1.587 -0.0065 -0.1581  0.1989
 3915W        W 7434   6.008   7.260   8.945  0.1425 -0.0933 -0.0510
 3916W        W 7435   8.224   5.315  10.773 -0.0990  0.0577 -0.0831
 3917W        W 7436   6.579   2.505   0.045 -0.0722  0.0591 -0.3806
 3918W        W 7437   3.891   7.323   0.462 -0.0887  0.0930  0.1385
 3919W        W 7438   4.056   4.554  11.816  0.1533 -0.3185 -0.2427
 3920W        W 7439   5.138   6.394  12.445  0.2323 -0.0726  0.2045
 3921W        W 7440   3.544   4.049   9.099 -0.1094 -0.0349  0.0517
 3922W        W 7441   9.095   1.123  11.347 -0.1612  0.0121  0.1651
 3923W        W 7442   4.736   7.211   3.313  0.1791  0.0981  0.1019
 3924W        W 7443   8.561   6.401   0.952  0.1229  0.2218 -0.0799
 3925W        W 7444   3.934   1.038   8.246 -0.0006 -0.1480  0.0061
 3926W        W 7445   8.507   0.694   0.816 -0.2351  0.1210 -0.1779
 3927W        W 7446   8.924   0.877   3.142  0.2435 -0.2076  0.1087
 3928W        W 7447   1.137   4.525  10.869 -0.3794  0.3416  0.1429
 3929W        W 7448   6.388   2.673   3.592 -0.4469  0.0519  0.1767
 3930W        W 7449   8.654   1.954  10.094 -0.1239  0.5232 -0.1406
 3931W        W 7450   1.145   3.638   8.106 -0.1333  0.0887 -0.3055
 3932W        W 7451   3.671   9.228   3.803 -0.1442  0.0100  0.1897
 3933W        W 7452   8.808   2.711   3.911 -0.0425  0.0214 -0.3086
 3934W        W 7453   6.302   3.948  12.570 -0.1356  0.0997 -0.2455
 3935W        W 7454   2.009   6.645   3.490 -0.1871 -0.1175 -0.3032
 3936W        W 7455   3.623   8.692   3.163 -0.1959  0.0448 -0.4457
 3937W        W 7456   4.171   9.594   0.794  0.0625 -0.1100  0.2898
 3938W        W 7457   2.292   2.884  10.765  0.0765 -0.3035  0.0769
 3939W        W 7458   5.920   5.396   0.940 -0.0807 -0.1223  0.2857
 3940W        W 7459   6.560   3.334   0.692 -0.1134  0.1163  0.1374
 3941W        W 7460   4.188   1.167  12.515  0.2426  0.0759  0.2735
 3942W        W 7461   3.896   4.815   2.779 -0.0775 -0.2265 -0.1405
 3943W        W 7462   0.964   5.555   5.315  0.1488  0.3512  0.1173
 3944W        W 7463   2.433   1.910   9.958 -0.0525 -0.3072  0.2298
 3945W        W 7464   2.172   7.024   2.739 -0.1077 -0.1276 -0.1223
 3946W        W 7465   1.686   9.409   0.914 -0.0083  0.1475  0.0397
 3947W        W 7466   0.502   7.326   1.564 -0.1391 -0.2280 -0.0999
 3948W        W 7467   5.779   9.269  10.707  0.0595 -0.0880 -0.0798
 3949W        W 7468   8.020   2.967   1.126  0.2507  0.0050  0.2264
 3950W        W 7469   6.822   1.495   2.293  0.0651 -0.3857  0.1744
 3951W        W 7470   9.182   9.228  10.323 -0.1656 -0.2843  0.1700
 3952W        W 7471   7.318   4.090   2.899 -0.1055 -0.2459  0.1258
 3953W        W 7472   4.264   1.615   9.984 -0.0914 -0.1934  0.1114
 3954W        W 7473   3.716   1.632   9.015 -0.1612 -0.1635 -0.0897
 3955W        W 7474   3.439   8.740   9.115  0.2169  0.4051  0.1162
 3956W        W 7475   6.254   0.922   1.541 -0.0180 -0.2712 -0.0679
 3957W        W 7476   2.599   3.218   4.513 -0.1959 -0.0632  0.4491
 3958W        W 7477   4.273   9.430   2.100 -0.0097 -0.1961 -0.1052
 3959W        W 7478   4.805   5.018   1.738 -0.3429  0.2996 -0.1661
 3960W        W 7479   2.641   7.473   4.020  0.2989 -0.1954 -0.1159
 3961W        W 7480   3.685   8.502  10.546 -0.1850 -0.2365 -0.1870
 3962W        W 7481   0.622   5.853   1.018 -0.0828  0.4303  0.0339
 3963W        W 7482   1.134   1.878   0.515  0.0375  0.2822  0.0115
 3964W        W 7483   1.210   5.581   3.786 -0.1508  0.0407  0.0142
 3965W        W 7484   4.698   5.925   4.037 -0.4264  0.0838  0.1210
 3966W        W 7485   2.240   2.915   2.434 -0.1248 -0.0821 -0.0073
 3967W        W 7486   4.040   4.153   3.712  0.1177 -0.3698 -0.0514
 3968W        W 7487   3.730   6.679   1.696  0.2448  0.0944  0.2518
 3969W        W 7488   4.286   5.286  10.222 -0.1535 -0.3275 -0.2302
 3970W        W 7489   7.062   8.108   8.161  0.1876 -0.6642  0.0747
 3971W        W 7490   6.839   7.495   9.523  0.0402  0.2720  0.3408
 3972W        W 7491   6.381   1.508  10.843 -0.1566  0.2564  0.2288
 3973W        W 7492   2.922   4.962   0.011 -0.0711  0.1710  0.2886
 3974W        W 7493   9.336   4.316   9.506  0.3835  0.1416 -0.2193
 3975W        W 7494   9.169   6.385  11.063  0.0874  0.1337  0.2191
 3976W        W 7495   9.320   1.486   2.999 -0.1469 -0.1120 -0.1056
 3977W        W 7496   1.983   6.811  10.462 -0.1415 -0.0812  0.0882
 3978W        W 7497   7.890   0.412   0.352 -0.0230 -0.1107  0.0522
 3979W        W 7498   3.112   3.473  10.656 -0.1701  0.2535  0.1219
 3980W        W 7499   4.763   7.290   9.691 -0.2606 -0.1252  0.0870
 3981W        W 7500   4.172   4.370   2.729 -0.1369  0.0836 -0.1020
 3982W        W 7501   6.844   4.837   9.635 -0.1847 -0.0230  0.0312
 3983W        W 7502   9.358   5.638   2.087  0.0019 -0.0251 -0.3350
 3984W        W 7503   8.827   0.232   0.853  0.1594  0.4264  0.1354
 3985W        W 7504   0.381   9.657  11.155  0.2117  0.1986 -0.3511
 3986W        W 7505   9.378   8.835  12.311  0.1085 -0.1096  0.0431
 3987W        W 7506   1.270   3.060   9.296  0.1754  0.1513  0.1422
 3988W        W 7507   8.228   3.228  12.066 -0.1677 -0.0137  0.0627
 3989W        W 7508   0.523   7.465   4.189  0.2967  0.3157  0.1477
 3990W        W 7509   9.404   8.897   3.226 -0.1388  0.2148 -0.2974
 3991W        W 7510   5.324   9.022   1.071  0.2194  0.3807 -0.1295
 3992W        W 7511   7.785   1.417   1.248 -0.1346 -0.1293 -0.1369
 3993W        W 7512   4.631   1.189  10.987 -0.2088 -0.0413  0.0998
 3994W        W 7513   1.546   7.310   3.898  0.1412  0.0715  0.2015
 3995W        W 7514   6.085   5.766   4.780  0.4150  0.0562  0.0775
 3996W        W 7515   2.228   0.535  12.107 -0.1248 -0.3393 -0.1202
 3997W        W 7516   3.267   1.544   3.404  0.0209  0.2084 -0.0139
 3998W        W 7517   6.944   3.034  10.743  0.0034  0.0775 -0.2281
 3999W        W 7518   6.778   5.079   0.518  0.0676  0.4103  0.0556
 4000W        W 7519   5.648   2.781   9.721  0.0885 -0.0516  0.3827
 4001W        W 7520   2.003   0.011  10.349  0.0906 -0.0247 -0.0371
 4002W        W 7521   6.211   1.964   2.983  0.0138 -0.3320  0.1695
 4003W        W 7522   6.353   4.624   1.130 -0.2878  0.1884  0.2979
 4004W        W 7523   2.171   0.286  10.947  0.4480  0.0388 -0.0938
 4005W        W 7524   0.584   7.524   0.236  0.0502 -0.3418  0.1264
 4006W        W 7525   0.101   8.307   2.349 -0.0685 -0.4373  0.1516
 4007W        W 7526   7.272   0.095  11.100  0.3396 -0.0363  0.1305
 4008W        W 7527   7.691   6.814   3.348 -0.1596 -0.2025  0.0761
 4009W        W 7528   2.451   2.312   1.636 -0.4118 -0.1795  0.2162
 4010W        W 7529   4.251   7.743   7.784 -0.2081  0.1601 -0.0151
 4011W        W 7530   3.007   2.664   0.702 -0.4524 -0.1131 -0.3702
 4012W        W 7531   2.677   7.688   3.016  0.1423  0.1832  0.2476
 4013W        W 7532   8.541   9.221   0.021  0.2648  0.1892  0.1529
 4014W        W 7533   9.468   1.236   4.095  0.3149  0.0193 -0.1216
 4015W        W 7534   4.612   9.145   2.914 -0.1281 -0.2008  0.0676
 4016W        W 7535   3.730   7.421   9.590  0.0566 -0.4327  0.2575
 4017W        W 7536   1.290   7.568   9.066  0.0721  0.0511  0.1158
 4018W        W 7537   1.126   5.125   3.971 -0.0463  0.2283  0.3167
 4019W        W 7538   1.458   2.174   3.736  0.0292  0.0203  0.0429
 4020W        W 7539   1.111   5.303   8.787 -0.2702  0.1745  0.1152
 4021W        W 7540   5.930   9.569  12.436  0.3499  0.3289 -0.1534
 4022W        W 7541   1.701   7.633   3.417  0.2880  0.2546 -0.0697
 4023W        W 7542   8.283   8.097   2.847  0.3577 -0.1199  0.1148
 4024W        W 7543   0.497   3.858   0.566  0.1404 -0.4308 -0.0294
 4025W        W 7544   3.430   2.728   8.866  0.1302  0.2305  0.0132
 4026W        W 7545   8.932   7.750   2.293  0.0971  0.1996 -0.1395
 4027W        W 7546   9.324   2.534   2.916 -0.0687 -0.2038 -0.1236
 4028W        W 7547   8.417   2.680  12.220 -0.0790  0.1445 -0.1759
 4029W        W 7548   0.514   4.870   4.877 -0.3928 -0.1998 -0.0904
 4030W        W 7549   4.642   2.856   3.339  0.0263 -0.0575 -0.0763
 4031W        W 7550   1.152   4.744   8.599 -0.2700  0.2400  0.2601
 4032W        W 7551   5.587   8.077  10.506  0.0268 -0.0185  0.4084
 4033W        W 7552   5.867   1.495   9.501  0.1308 -0.0732 -0.0423
 4034W        W 7553   7.324   7.424   9.415 -0.1126  0.2066 -0.0371
 4035W        W 7554   7.060   9.055  12.219  0.1231  0.2928  0.2028
 4036W        W 7555   4.209   0.610  10.934 -0.2437 -0.1179  0.1756
 4037W        W 7556   2.426   4.824   3.404 -0.2283  0.0408 -0.1044
 4038W        W 7557   6.270   8.668   3.271 -0.0966 -0.2747  0.3350
 4039W        W 7558   1.415   9.157   3.881  0.0455  0.1717  0.0157
 4040W        W 7559   2.111   9.464  10.834 -0.2514  0.0583  0.2068
 4041W        W 7560   1.537   1.296   4.177 -0.2739  0.1906  0.0461
 4042W        W 7561   6.237   9.556  12.064  0.1820 -0.0622 -0.1085
 4043W        W 7562   3.208   6.526   9.715 -0.1684  0.1040  0.2161
 4044W        W 7563   0.605   2.313   2.718 -0.0470 -0.1890  0.3370
 4045W        W 7564   2.171   2.843   2.940  0.0060  0.0914 -0.2157
 4046W        W 7565   9.408   7.777  10.961  0.1074 -0.3067 -0.2120
 4047W        W 7566   9.600   2.899   3.163  0.1683  0.0880  0.2238
 4048W        W 7567   3.978   8.567   9.892  0.2947  0.3582 -0.1383
 4049W        W 7568   0.692   3.336   7.969  0.4201 -0.1655 -0.0294
 4050W        W 7569   1.569   2.761   2.430  0.1135  0.3172 -0.1625
 4051W        W 7570   2.060   0.263   1.383 -0.0932 -0.3810 -0.4169
 4052W        W 7571   9.519   6.041  10.325  0.0006  0.1852  0.0889
 4053W        W 7572   1.361   7.604   3.024  0.2603  0.0179 -0.2169
 4054W        W 7573   6.638   0.683   1.845 -0.3305  0.1649 -0.0687
 4055W        W 7574   1.462   0.770   3.957 -0.1041  0.1533  0.0632
 4056W        W 7575   6.335   1.728  11.753 -0.0132 -0.0394  0.1921
 4057W        W 7576   8.110   8.274  12.231  0.1962 -0.0435 -0.3583
 4058W        W 7577   1.760   6.800   3.127  0.1170  0.1153  0.0254
 4059W        W 7578   9.133   7.497   2.747 -0.1257 -0.3012 -0.0597
 4060W        W 7579   4.236   7.669  10.468  0.0844 -0.0819 -0.2338
 4061W        W 7580   1.384   4.652  11.930 -0.0736  0.1130 -0.0354
 4062W        W 7581   0.026   7.514   1.886 -0.2387 -0.4527 -0.2739
 4063W        W 7582   6.275   1.197  10.305  0.1226  0.1955 -0.2736
 4064W        W 7583   2.802   7.447  11.945 -0.1395 -0.1615  0.0322
 4065W        W 7584   4.282   1.680   1.023  0.0341 -0.1197  0.1189
 4066W        W 7585   6.661   5.522   4.085  0.2279 -0.0102  0.1889
 4067W        W 7586   5.527   1.637  11.195 -0.1302 -0.0150 -0.0613
 4068W        W 7587   7.785   7.187   9.291 -0.1838  0.2038 -0.0867
 4069W        W 7588   0.852   6.926   3.492  0.1325 -0.2555 -0.2882
 4070W        W 7589   7.017   3.536   2.044 -0.1193  0.2480  0.0138
 4071W        W 7590   2.185   1.863  11.658 -0.3966  0.0182  0.1946
 4072W        W 7591   7.829   8.229   1.006  0.0308 -0.1514 -0.4095
 4073W        W 7592   6.134   5.842   9.152 -0.1881 -0.2515  0.0280
 4074W        W 7593   3.395   1.342   2.145 -0.0688 -0.0302 -0.1013
 4075W        W 7594   8.488   7.749   9.097 -0.2736 -0.0609  0.1760
 4076W        W 7595   8.095   1.615   2.541  0.0125  0.1000 -0.1040
 4077W        W 7596   8.842   2.605   9.920  0.1091  0.4505  0.2158
 4078W        W 7597   6.437   4.571   9.804 -0.3606 -0.3791 -0.0646
 4079W        W 7598   7.902   3.448   0.105 -0.2768 -0.1268 -0.0833
 4080W        W 7599   9.221   8.049   2.830 -0.1860  0.0411  0.2397
 4081W        W 7600   0.314   6.102   9.453  0.0184 -0.1271 -0.0531
 4082W        W 7601   4.406   7.139   2.575 -0.1039  0.0775  0.1753
 4083W        W 7602   5.467   7.172  10.299 -0.0480 -0.0812  0.1998
 4084W        W 7603   4.012   3.632   3.662 -0.1390  0.1365 -0.1464
 4085W        W 7604   2.653   2.120   2.945  0.3955 -0.2351  0.1303
 4086W        W 7605   5.992   9.077   3.465 -0.1244 -0.0471 -0.3059
 4087W        W 7606   5.009   5.520   3.879  0.0238  0.5846  0.0940
 4088W        W 7607   3.988   4.703   4.147 -0.1147  0.0236 -0.0730
 4089W        W 7608   5.677   4.456   0.563 -0.1905 -0.0741  0.2810
 4090W        W 7609   6.118   4.207  12.194 -0.1532  0.2499  0.0631
 4091W        W 7610   9.016   8.055  10.813 -0.0972  0.0208 -0.0715
 4092W        W 7611   1.840   7.305   2.998 -0.0086 -0.3157 -0.0628
 4093W        W 7612   6.406   2.369   1.960 -0.0549 -0.0148 -0.1067
 4094W        W 7613   8.577   7.181   3.888  0.2096  0.1077 -0.0190
 4095W        W 7614   6.032   6.404  10.019 -0.2767  0.2167 -0.0284
 4096W        W 7615   2.734   4.022   3.448 -0.1114 -0.0557 -0.1959
 4097W        W 7616   0.469   3.014   9.593 -0.2348 -0.1576 -0.2130
 4098W        W 7617   7.191   6.513   8.539  0.0831 -0.2284 -0.0295
 4099W        W 7618   0.274   4.086   1.915  0.1668 -0.0009 -0.0303
 4100W        W 7619   3.618   9.014   0.958 -0.0571  0.2943 -0.2188
 4101W        W 7620   1.296   1.510   3.755 -0.0109  0.3007 -0.2092
 4102W        W 7621   8.757   2.647   2.116  0.1090  0.0955  0.0584
 4103W        W 7622   2.778   1.359   2.762 -0.4117 -0.1538  0.1082
 4104W        W 7623   1.856   4.749  10.519  0.1197 -0.1168 -0.1967
 4105W        W 7624   4.397   5.959  11.955  0.1677 -0.1099  0.0129
 4106W        W 7625   2.662   6.101  11.332 -0.3185 -0.3826 -0.1164
 4107W        W 7626   4.580   2.145  12.459 -0.0354  0.1303  0.0652
 4108W        W 7627   3.749   6.234   3.750 -0.1418 -0.1093 -0.3957
 4109W        W 7628   8.028   4.711   3.470 -0.0637 -0.0644  0.0952
 4110W        W 7629   8.284   5.143  11.949  0.1607 -0.0002  0.1010
 4111W        W 7630   8.253   7.479   3.588 -0.3883 -0.2778  0.0728
 4112W        W 7631   7.732   3.538   9.585 -0.1034  0.1112 -0.1121
 4113W        W 7632   9.648   0.239  11.170 -0.1079  0.1657  0.3765
 4114W        W 7633   8.028   5.377   9.334 -0.1787  0.1774 -0.2328
 4115W        W 7634   7.278   1.066  11.293  0.0146  0.0893  0.1099
 4116W        W 7635   0.795   7.389   2.661  0.1696  0.0859  0.1557
 4117W        W 7636   4.880   8.597  10.082 -0.0670  0.1526  0.1992
 4118W        W 7637   1.435   3.596   0.525  0.0226 -0.0832  0.0521
 4119W        W 7638   9.300   5.665   9.050 -0.1379 -0.0348  0.1876
 4120W        W 7639   0.456   9.064   3.554  0.2615  0.0580  0.4439
 4121W        W 7640   9.601   5.613   3.837 -0.0282  0.0180 -0.0522
 4122W        W 7641   2.504   2.063  10.644 -0.0783 -0.1620  0.0032
 4123W        W 7642   6.802   7.466   1.272  0.3048 -0.3911  0.1645
 4124W        W 7643   5.717   1.478   2.252 -0.1651 -0.0091  0.0301
 4125W        W 7644   6.684   3.575  12.433 -0.0856  0.2454 -0.1308
 4126W        W 7645   8.544   9.422   1.643 -0.0221 -0.2972  0.1571
 4127W        W 7646   8.141   1.325   2.973  0.2486  0.3674  0.1486
 4128W        W 7647   2.349   7.539   0.320  0.1266  0.4142  0.0679
 4129W        W 7648   2.906   8.260   0.827 -0.1121 -0.0303 -0.0555
 4130W        W 7649   0.115   1.697   0.819 -0.2038 -0.2470  0.1584
 4131W        W 7650   2.805   8.695   1.057  0.0224 -0.3528  0.1779
 4132W        W 7651   6.413   9.614   9.577  0.0981  0.1663 -0.1852
 4133W        W 7652   8.988   8.867   1.971  0.1907  0.0031  0.1169
 4134W        W 7653   4.047   7.863   9.506 -0.3119 -0.0898 -0.1601
 4135W        W 7654   2.598   4.389  12.017  0.1160  0.0401  0.0821
 4136W        W 7655   1.261   8.919   9.234 -0.1470  0.2524 -0.3807
 4137W        W 7656   7.633   0.122  10.061  0.3307  0.1655  0.2777
 4138W        W 7657   0.244   9.462   2.250  0.1944  0.2817 -0.0942
 4139W        W 7658   7.310   2.780  12.358  0.0026  0.1542 -0.0487
 4140W        W 7659   8.204   9.194   3.127  0.0495 -0.1279  0.0210
 4141W        W 7660   5.050   4.350   3.439 -0.0359 -0.0543 -0.1588
 4142W        W 7661   8.237   3.141   1.619  0.6693 -0.0740  0.1489
 4143W        W 7662   3.642   5.623   2.313 -0.0902 -0.0789 -0.0357
 4144W        W 7663   5.149   1.928   4.354 -0.0665 -0.3816 -0.1132
 4145W        W 7664   4.281   7.527   4.133 -0.3309  0.0974  0.3172
 4146W        W 7665   4.862   9.505  10.306 -0.0332  0.1162  0.5049
 4147W        W 7666   3.730   3.078   2.766  0.0707 -0.1404 -0.2809
 4148W        W 7667   8.704   9.321   9.575  0.0498 -0.2175  0.0804
 4149W        W 7668   7.928   4.962   1.894 -0.1300 -0.2978 -0.3621
 4150W        W 7669   5.644   1.984  11.587  0.1632 -0.1493  0.1360
 4151W        W 7670   5.415   4.405   1.580  0.0956 -0.1079  0.3667
 4152W        W 7671   6.441   2.028   2.355  0.0400 -0.0943  0.0538
 4153W        W 7672   0.143   8.613   2.695  0.1345  0.0693 -0.2864
 4154W        W 7673   0.893   2.691   9.274  0.0101  0.0704 -0.0670
 4155W        W 7674   4.508   8.759  10.690  0.0469 -0.3388  0.1438
 4156W        W 7675   8.191   2.036  10.963  0.0630  0.0833 -0.2052
 4157W        W 7676   2.696   4.203  10.232  0.2121 -0.1631  0.4401
 4158W        W 7677   9.659   4.599  12.125  0.1450 -0.1128  0.5063
 4159W        W 7678   2.209   3.527  11.953  0.1622 -0.0351  0.1041
 4160W        W 7679   1.818   7.704   8.553  0.1562  0.2567 -0.0740
 4161W        W 7680   8.745   3.068   1.349  0.0408  0.1631  0.0826
 4162W        W 7681   5.959   1.887   2.071 -0.2748 -0.1800 -0.3677
 4163W        W 7682   1.423   1.168  11.844  0.2585  0.1010  0.0209
 4164W        W 7683   8.979   6.122   1.521  0.1762  0.1171 -0.0167
 4165W        W 7684   9.252   8.082   8.379  0.4000 -0.0372  0.3593
 4166W        W 7685   5.809   6.694  11.971  0.2953 -0.2775 -0.1859
 4167W        W 7686   2.979   4.033  10.630 -0.0128 -0.0815 -0.2180
 4168W        W 7687   4.365   2.002   9.650  0.0539 -0.1146 -0.1745
 4169W        W 7688   4.930   8.773   9.557 -0.1701 -0.0297  0.2135
 4170W        W 7689   6.429   0.429  11.259 -0.1578 -0.0975 -0.2480
 4171W        W 7690   4.497   7.628  10.053 -0.2419 -0.2365 -0.0302
 4172W        W 7691   7.126   3.516  10.859  0.2472  0.1750  0.0067
 4173W        W 7692   8.108   1.963   9.560  0.2668 -0.0253 -0.4238
 4174W        W 7693   1.398   2.910  12.014 -0.5195 -0.0370 -0.3615
 4175W        W 7694   7.127   2.453   9.387  0.1023  0.4168 -0.0152
 4176W        W 7695   6.357   1.781   9.847 -0.0465 -0.0636 -0.0249
 4177W        W 7696   4.719   5.270  10.552  0.1336  0.2424 -0.3247
 4178W        W 7697   1.550   3.182   1.324  0.1156 -0.0250  0.0554
 4179W        W 7698   8.826   0.727   4.666 -0.3904 -0.0612 -0.1229
 4180W        W 7699   3.982   0.065   1.632  0.1562 -0.1430 -0.3699
 4181W        W 7700   9.527   4.046   4.430 -0.2988 -0.6248 -0.1692
 4182W        W 7701   3.435   8.209  11.965 -0.2970  0.0345  0.1359
 4183W        W 7702   4.978   0.775   4.019 -0.2435  0.1757 -0.1450
 4184W        W 7703   0.352   3.313  11.210 -0.0749  0.3090 -0.1856
 4185W        W 7704   9.640   9.657  12.507  0.1424  0.0764  0.1155
 4186W        W 7705   7.399   5.594  10.750 -0.0497 -0.4804 -0.0142
 4187W        W 7706   1.846   6.647   2.559  0.1339  0.0933  0.1240
 4188W        W 7707   6.756   5.294  10.991 -0.3015  0.1351  0.2212
 4189W        W 7708   3.953   1.676  12.499 -0.0661  0.1898 -0.2413
 4190W        W 7709   6.689   6.188   4.091 -0.2310 -0.0439 -0.0942
 4191W        W 7710   7.046   6.467   4.292 -0.2348  0.0608  0.0852
 4192W        W 7711   2.186   0.404   0.375  0.0871  0.0061 -0.1990
 4193W        W 7712   7.763   0.680   2.486  0.1040  0.3066 -0.1607
 4194W        W 7713   7.443   1.846   3.445 -0.1942 -0.0658  0.2751
 4195W        W 7714   2.748   1.245   9.273  0.0693 -0.0358 -0.0759
 4196W        W 7715   7.107   6.405   9.636 -0.2822  0.1836 -0.1968
 4197W        W 7716   5.034   6.094   3.656 -0.1983  0.1554  0.0738
 4198W        W 7717   8.199   7.483  10.856  0.1025  0.0342  0.2042
 4199W        W 7718   4.455   6.835  11.790  0.0846 -0.1075 -0.1881
 4200W        W 7719   1.713   0.223   3.746 -0.0660 -0.1669 -0.0735
 4201W        W 7720   8.426   7.764   0.443 -0.0988  0.3059 -0.3802
 4202W        W 7721   6.620   8.549   3.623 -0.1385 -0.1115  0.0666
 4203W        W 7722   3.768   0.876  11.076 -0.0863  0.0198  0.1594
 4204W        W 7723   2.997   2.419  11.457 -0.1962  0.5619  0.0068
 4205W        W 7724   4.292   6.309  10.463 -0.0670  0.1588  0.0707
 4206W        W 7725   6.125   4.175   9.286  0.1323 -0.0799 -0.0353
 4207W        W 7726   0.187   8.912   1.392  0.0293 -0.0990  0.0383
 4208W        W 7727   5.396   0.692   9.393 -0.0681  0.0163  0.2548
 4209W        W 7728   3.204   0.043   0.994  0.1684 -0.1479 -0.0997
 4210W        W 7729   5.997   6.353   3.776  0.0136  0.0982  0.1735
 4211W        W 7730   9.504   4.276   2.128  0.0851  0.1972 -0.2492
 4212W        W 7731   8.782   2.938   9.326 -0.3377 -0.0201 -0.2007
 4213W        W 7732   5.612   4.881   2.446  0.0999 -0.1364 -0.2301
 4214W        W 7733   6.689   5.347   1.379 -0.1039 -0.4477 -0.0804
 4215W        W 7734   9.401   0.376   9.173 -0.0925 -0.2425  0.2523
 4216W        W 7735   6.280   8.804  11.890 -0.2202 -0.1369 -0.1175
 4217W        W 7736   8.049   0.546  11.158  0.1222  0.0681  0.1118
 4218W        W 7737   7.809   3.460   3.306  0.3139  0.2088 -0.1615
 4219W        W 7738   5.073   0.979   9.134  0.1953 -0.0348  0.1774
 4220W        W 7739   2.894   7.053   1.433  0.1231 -0.0430  0.0925
 4221W        W 7740   1.004   8.230   9.817  0.2043  0.2785  0.0503
 4222W        W 7741   1.184   9.125  12.225 -0.1784  0.1948  0.0146
 4223W        W 7742   1.331   8.249   1.136  0.0029 -0.3934 -0.0312
 4224W        W 7743   2.914   7.217   0.678  0.1227 -0.5432 -0.0006
 4225W        W 7744   9.548   1.483   2.129 -0.2388  0.1973  0.3380
 4226W        W 7745   2.066   9.148   3.685  0.1493  0.1217  0.0577
 4227W        W 7746   1.204   7.599  10.425  0.1424  0.1997 -0.2183
 4228W        W 7747   4.429   2.101   8.721  0.0213  0.0836  0.0754
 4229W        W 7748   6.984   8.585  11.414  0.1239  0.0779 -0.0673
 4230W        W 7749   1.607   0.690   3.482 -0.0160  0.1941  0.0093
 4231W        W 7750   7.245   5.701  11.661 -0.0349 -0.2059  0.0017
 4232W        W 7751   4.102   4.207   8.189  0.0465 -0.0191 -0.2553
 4233W        W 7752   6.822   8.958  11.771  0.4452  0.0619 -0.1357
 4234W        W 7753   3.502   8.762   1.415  0.0755  0.1356 -0.0617
 4235W        W 7754   1.870   4.461   2.875 -0.1959  0.3460  0.5694
 4236W        W 7755   6.281   0.454   0.370 -0.0444  0.1311  0.1529
 4237W        W 7756   0.106   0.782   9.887 -0.3486  0.0373 -0.2390
 4238W        W 7757   1.108   3.880   3.138  0.0757  0.1417  0.0635
 4239W        W 7758   7.463   3.153  11.051  0.3285  0.2683 -0.1927
 4240W        W 7759   5.207   6.902  12.577  0.0811  0.0727  0.0868
 4241W        W 7760   3.182   4.289   0.916  0.1349  0.3018 -0.3217
 4242W        W 7761   0.866   7.041   1.314  0.0397  0.3343  0.3360
 4243W        W 7762   5.510   4.431   2.744  0.0455  0.0587 -0.1289
 4244W        W 7763   4.344   0.289   2.111 -0.1933  0.1238  0.2081
 4245W        W 7764   7.499   6.975   2.001 -0.4049  0.2776 -0.0241
 4246W        W 7765   1.236   5.568  12.317 -0.0167  0.1001  0.1542
 4247W        W 7766   8.531   5.452   2.552 -0.0738  0.0201 -0.1901
 4248W        W 7767   3.996   6.937  12.183 -0.0372  0.1371  0.0882
 4249W        W 7768   6.478   1.390   0.719 -0.0418  0.0752 -0.1189
 4250W        W 7769   4.606   4.670  11.241  0.3814 -0.3311  0.0719
 4251W        W 7770   2.973   1.761   3.758  0.3057 -0.0892 -0.0384
 4252W        W 7771   6.168   5.176   3.154 -0.2303 -0.1131  0.0613
 4253W        W 7772   8.501   4.615   2.751 -0.1523 -0.3769  0.1596
 4254W        W 7773   4.496   7.193   1.566  0.2733  0.0010 -0.0513
 4255W        W 7774   0.900   5.235   3.532  0.1838  0.0962 -0.1080
 4256W        W 7775   1.632   6.845   8.300 -0.1165 -0.1884  0.0568
 4257W        W 7776   3.543   6.579   4.060  0.0259 -0.1510 -0.0109
 4258W        W 7777   8.139   8.360   2.471  0.0754  0.0939 -0.0376
 4259W        W 7778   2.207   7.323  12.039  0.0024 -0.0817 -0.0885
 4260W        W 7779   1.083   6.151   3.214  0.4064  0.1715 -0.2539
 4261W        W 7780   7.022   3.175   2.369 -0.1941  0.0969  0.0624
 4262W        W 7781   0.310   1.179  12.264  0.0410  0.1122 -0.0638
 4263W        W 7782   1.302   3.891   4.185  0.6471 -0.0741  0.0439
 4264W        W 7783   7.950   8.748  12.168 -0.1524 -0.1432 -0.3000
 4265W        W 7784   5.593   4.456   1.110  0.2034  0.0112  0.1351
 4266W        W 7785   2.233   4.465  10.926 -0.0257 -0.0166 -0.0715
 4267W        W 7786   0.808   9.368  12.400 -0.0003 -0.1814 -0.2876
 4268W        W 7787   5.853   8.606  10.671  0.2003 -0.2214  0.1737
 4269W        W 7788   4.497   4.329  10.923  0.4158 -0.1645  0.0313
 4270W        W 7789   0.312   4.486  11.743 -0.1978 -0.0432  0.0940
 4271W        W 7790   3.058   6.505   3.965 -0.2198  0.1978  0.0595
 4272W        W 7791   1.455   6.356   0.887  0.2443  0.0423 -0.2017
 4273W        W 7792   9.279   7.396   2.219 -0.0867 -0.1797  0.0542
 4274W        W 7793   4.609   0.230   3.449 -0.1201  0.1448  0.0726
 4275W        W 7794   8.191   6.901  12.580 -0.2809 -0.0068  0.1374
 4276W        W 7795   3.716   1.577   2.525  0.5040  0.1041 -0.0863
 4277W        W 7796   7.835   0.040  12.577 -0.0475 -0.0739  0.1473
 4278W        W 7797   0.378   1.733   9.908  0.1155 -0.0417  0.2589
 4279W        W 7798   5.230   4.919   9.469 -0.2306  0.0082 -0.1015
 4280W        W 7799   0.668   4.494   0.055 -0.1678 -0.0916  0.0797
 4281W        W 7800   6.016   3.205   9.631 -0.1765  0.3918  0.0592
 4282W        W 7801   1.329   7.313   0.314  0.0163  0.0611 -0.0947
 4283W        W 7802   2.675   0.232   1.291 -0.0639 -0.1343  0.2980
 4284W        W 7803   4.515   7.765   8.767 -0.0131  0.1834 -0.0749
 4285W        W 7804   9.372   0.850   1.151  0.0920 -0.2844 -0.0542
 4286W        W 7805   6.383   2.755   0.454  0.0075 -0.0083 -0.1185
 4287W        W 7806   6.554   9.067   3.592 -0.0461 -0.3245  0.2297
 4288W        W 7807   1.006   0.613   4.708 -0.0942  0.1290 -0.1432
 4289W        W 7808   3.054   2.733   2.610 -0.1950 -0.3415  0.2523
 4290W        W 7809   6.756   1.322  10.490  0.1037  0.2667  0.1779
 4291W        W 7810   2.795   5.771  11.715  0.1558  0.1207  0.1375
 4292W        W 7811   2.884   0.807  10.644 -0.0050 -0.1818  0.0861
 4293W        W 7812   6.736   4.519  11.396  0.0936  0.0189 -0.0752
 4294W        W 7813   1.448   8.575  10.018 -0.0596  0.2697 -0.1532
 4295W        W 7814   3.510   1.632   8.520 -0.0879  0.0998 -0.1507
 4296W        W 7815   3.348   5.246   4.263 -0.0058 -0.1791  0.0498
 4297W        W 7816   0.707   2.971   8.845 -0.2011  0.2334  0.0520
 4298W        W 7817   5.692   5.194  12.502 -0.0303  0.1107  0.1016
 4299W        W 7818   5.005   6.147   0.682 -0.0453 -0.1063  0.1881
 4300W        W 7819   2.313   5.153  12.020 -0.1597 -0.1179  0.1168
 4301W        W 7820   0.427   6.989   2.039 -0.2572  0.1057 -0.0294
 4302W        W 7821   2.247   1.386  10.332  0.0815  0.1210  0.0482
 4303W        W 7822   8.327   5.149   9.800 -0.0031 -0.1810  0.0063
 4304W        W 7823   0.601   8.840   3.047  0.0659  0.0003 -0.2188
 4305W        W 7824   5.305   2.675   9.253  0.0995  0.1112 -0.0102
 4306W        W 7825   7.699   5.016   2.693  0.0656  0.0745  0.2692
 4307W        W 7826   1.192   1.005   2.105 -0.0230  0.0795 -0.3330
 4308W        W 7827   9.026   0.496   1.218 -0.0537  0.2013 -0.4090
 4309W        W 7828   9.154   7.514   8.530 -0.0426 -0.0876  0.1084
 4310W        W 7829   5.444   7.043   9.196 -0.1723 -0.2054 -0.1992
 4311W        W 7830   0.560   5.798   9.955  0.0688  0.0763 -0.0917
 4312W        W 7831   1.681   5.913  11.320  0.2752  0.0631 -0.1821
 4313W        W 7832   7.495   9.569  10.659  0.0167 -0.0356 -0.1047
 4314W        W 7833   9.371   4.530   3.834 -0.0166  0.0923  0.0879
 4315W        W 7834   2.911   2.282   1.865  0.2244  0.0884  0.0552
 4316W        W 7835   8.020   1.673   0.331  0.2735  0.0559 -0.1221
 4317W        W 7836   5.233   3.388  12.212  0.0963  0.2461  0.3245
 4318W        W 7837   5.239   7.822  10.929 -0.0898  0.1664  0.0535
 4319W        W 7838   5.379   8.962   9.365 -0.1724  0.1199 -0.0009
 4320W        W 7839   3.365   5.235   8.801  0.1323  0.1190 -0.0604
 4321W        W 7840   5.088   1.546   1.843 -0.1574  0.0372 -0.2829
 4322W        W 7841   3.930   7.880   2.792  0.2158 -0.0863 -0.0494
 4323W        W 7842   6.262   5.777   0.718 -0.0122  0.2740  0.2026
 4324W        W 7843   0.998   3.237   1.896 -0.2179 -0.0064 -0.1091
 4325W        W 7844   9.334   6.630  10.605 -0.2806  0.0247  0.3154
 4326W        W 7845   2.621   1.006   2.430 -0.1598 -0.0776 -0.0770
 4327W        W 7846   0.497   4.111   4.477  0.0526 -0.2372  0.1337
 4328W        W 7847   0.366   1.582  10.841 -0.0210  0.0720  0.0763
 4329W        W 7848   7.427   0.092   3.386 -0.0344 -0.0675  0.0034
 4330W        W 7849   1.626   3.416  12.347 -0.0676  0.0341 -0.3807
 4331W        W 7850   3.351   0.333   9.476 -0.0787 -0.1089  0.0355
 4332W        W 7851   6.089   6.641   2.964 -0.0090  0.1676  0.3161
 4333W        W 7852   8.671   7.675   0.978  0.1590  0.0060 -0.0781
 4334W        W 7853   3.516   3.389  10.405 -0.0441 -0.1483  0.3809
 4335W        W 7854   4.602   6.706  10.278  0.0387  0.2805  0.0130
 4336W        W 7855   6.385   7.380  12.398  0.0402 -0.2385 -0.4951
 4337W        W 7856   4.426   8.747   1.635 -0.1955  0.2304  0.3603
 4338W        W 7857   2.219   7.918   9.823 -0.0515  0.1507 -0.0276
 4339W        W 7858   1.804   7.697   9.913  0.0309 -0.4117 -0.0644
 4340W        W 7859   3.597   0.477   1.533 -0.1548 -0.0144  0.1414
 4341W        W 7860   3.155   7.481   9.799  0.3569  0.0955  0.0188
 4342W        W 7861   9.627   3.223   4.347 -0.0170  0.0593 -0.2645
 4343W        W 7862   6.124   5.968  12.458 -0.0821 -0.3043 -0.0184
 4344W        W 7863   6.018   1.782  11.177  0.1294 -0.0812 -0.0095
 4345W        W 7864   0.998   6.014  10.945 -0.3216 -0.1026 -0.3159
 4346W        W 7865   7.476   7.495   3.952 -0.1193  0.0580 -0.2520
 4347W        W 7866   3.967   6.184   0.965 -0.0836 -0.0158  0.3711
 4348W        W 7867   7.837   6.201  11.628  0.0490  0.0652  0.0237
 4349W        W 7868   6.077   4.267   0.781 -0.0788 -0.1025  0.1483
 4350W        W 7869   4.550   3.344   9.427 -0.1208 -0.0234  0.0650
 4351W        W 7870   3.520   9.611   9.138  0.4934  0.1563  0.0402
 4352W        W 7871   4.763   1.602   9.825  0.0366 -0.0517 -0.1237
 4353W        W 7872   4.419   3.250  12.360 -0.0977  0.1362 -0.1375
 4354W        W 7873   6.983   4.989  11.340 -0.1646 -0.1279  0.0110
 4355W        W 7874   1.310   2.914   3.113 -0.0411  0.0902  0.3328
 4356W        W 7875   8.458   8.642  10.779  0.1380  0.2285 -0.0108
 4357W        W 7876   0.154   3.056   0.659 -0.1665 -0.0790  0.1239
 4358W        W 7877   1.115   2.890   4.343 -0.1155  0.0486  0.1712
 4359W        W 7878   1.155   6.832  12.530  0.3947  0.3140  0.1151
 4360W        W 7879   4.808   0.118   2.992  0.2104  0.0160 -0.3125
 4361W        W 7880   6.717   5.665   2.087  0.1772  0.3498  0.3865
 4362W        W 7881   4.501   6.063   3.475 -0.0726 -0.2606 -0.1212
 4363W        W 7882   8.870   8.165   3.293  0.1887 -0.0463  0.0677
 4364W        W 7883   3.516   3.485  12.172  0.4499  0.0945  0.0948
 4365W        W 7884   8.052   0.096   1.694 -0.2223  0.1291 -0.4008
 4366W        W 7885   1.447   4.957   8.185 -0.1746 -0.0955  0.1047
 4367W        W 7886   8.624   1.615   2.546  0.0519  0.1438  0.2539
 4368W        W 7887   1.241   9.648   9.106  0.1304 -0.0293  0.0709
 4369W        W 7888   8.446   7.833   3.207 -0.0487  0.0863 -0.2870
 4370W        W 7889   1.445   9.591   0.445  0.3404 -0.0239 -0.0742
 4371W        W 7890   5.173   5.134   4.160 -0.1749  0.0533  0.0685
 4372W        W 7891   1.879   1.502   0.151  0.0312 -0.0475 -0.1467
 4373W        W 7892   9.235   3.206  10.602  0.2341 -0.0423 -0.2566
 4374W        W 7893   3.527   2.611   5.193 -0.2742 -0.2107 -0.0070
 4375W        W 7894   8.584   6.942   3.206  0.2890  0.2208 -0.0548
 4376W        W 7895   1.248   4.985   1.111 -0.0085  0.3649  0.1757
 4377W        W 7896   7.359   1.374  10.871 -0.4162 -0.2177  0.0537
 4378W        W 7897   2.674   2.613   9.308  0.0404 -0.0993 -0.1178
 4379W        W 7898   6.727   3.902   0.243 -0.0247  0.1417 -0.1464
 4380W        W 7899   2.972   4.723  10.329 -0.1030 -0.0366  0.1783
 4381W        W 7900   8.037   9.669   3.931 -0.0344  0.0132 -0.1573
 4382W        W 7901   9.193   9.624   9.010 -0.0968 -0.0284 -0.1395
 4383W        W 7902   1.725   5.304   1.600  0.0836 -0.4337  0.0718
 4384W        W 7903   7.676   5.149   8.594  0.0149  0.4652 -0.0559
 4385W        W 7904   1.938   7.587  12.420 -0.2643  0.1475 -0.0595
 4386W        W 7905   1.703   3.428  11.846  0.2737 -0.1105 -0.1333
 4387W        W 7906   3.576   7.796  10.709  0.1596  0.2549  0.0151
 4388W        W 7907   3.633   4.893   3.903 -0.0173  0.0410  0.1421
 4389W        W 7908   7.934   7.013  10.867 -0.3652 -0.2429 -0.3255
 4390W        W 7909   8.397   7.918  12.060 -0.0265  0.1615 -0.0526
 4391W        W 7910   0.312   6.137   3.843  0.3563  0.0849  0.2212
 4392W        W 7911   4.593   7.368   1.073 -0.2382 -0.3729  0.1440
 4393W        W 7912   9.529   3.699  11.746  0.1990 -0.0768  0.1958
 4394W        W 7913   8.526   0.642   8.695 -0.0264  0.1483  0.0620
 4395W        W 7914   8.061   8.967  10.976 -0.2707 -0.0184 -0.0513
 4396W        W 7915   4.190   1.879   1.806 -0.0800 -0.0838  0.1723
 4397W        W 7916   2.531   3.594   8.867  0.2546 -0.1614  0.0299
 4398W        W 7917   5.682   9.427   2.045 -0.0774  0.2259  0.3943
 4399W        W 7918   3.262   2.610   1.576 -0.1835  0.0338  0.3126
 4400W        W 7919   3.168   6.798   8.908  0.1254  0.0623 -0.0056
 4401W        W 7920   8.866   3.873  10.986 -0.2413 -0.1616 -0.0097
 4402W        W 7921   7.359   5.768   2.643 -0.1645  0.0461  0.2246
 4403W        W 7922   2.019   8.568  12.245 -0.2222 -0.0326  0.2837
 4404W        W 7923   6.075   1.511   1.731  0.1670 -0.0602 -0.3808
 4405W        W 7924   4.004   3.635  11.553 -0.1062 -0.3468  0.1685
 4406W        W 7925   0.280   1.607  11.366  0.2061  0.0848 -0.1166
 4407W        W 7926   0.820   3.045   2.518 -0.3152  0.0321 -0.1671
 4408W        W 7927   5.631   8.914   3.934 -0.2028  0.0854 -0.1749
 4409W        W 7928   1.689   5.147   1.123 -0.1980  0.1196  0.0926
 4410W        W 7929   5.613   2.314   2.598  0.0832 -0.0704 -0.1708
 4411W        W 7930   3.611   3.662   0.035  0.2074 -0.1113  0.1912
 4412W        W 7931   0.148   7.822   5.063  0.0248  0.1032  0.1313
 4413W        W 7932   8.072   6.557  11.900 -0.3572  0.1549  0.1554
 4414W        W 7933   6.703   6.443  10.413  0.0935  0.0722 -0.2150
 4415W        W 7934   9.010   2.023   0.937 -0.5738 -0.0864  0.0157
 4416W        W 7935   8.379   0.136   8.854 -0.0287  0.0973  0.0253
 4417W        W 7936   5.584   8.528   8.474  0.1745  0.1636  0.0339
 4418W        W 7937   3.413   7.357   2.111 -0.1230  0.2213 -0.2451
 4419W        W 7938   8.178   0.776  10.221 -0.1543  0.1334 -0.2637
 4420W        W 7939   5.200   1.967  10.965  0.1060  0.0845  0.1268
 4421W        W 7940   4.404   4.832  10.810  0.1272  0.3946 -0.2065
 4422W        W 7941   3.471   9.600   1.866 -0.0513  0.2008  0.1358
 4423W        W 7942   2.459   6.761  12.013 -0.1302  0.1497  0.0972
 4424W        W 7943   4.232   1.199   0.383  0.1220 -0.0281 -0.0709
 4425W        W 7944   8.081   1.945   0.745 -0.1850  0.0811 -0.0855
 4426W        W 7945   2.279   0.795   2.838 -0.2275 -0.3341 -0.0605
 4427W        W 7946   5.015   0.723  12.473 -0.2977  0.2200  0.0477
 4428W        W 7947   8.663   3.504  10.326  0.0432  0.0769  0.0778
 4429W        W 7948   9.528   6.716   4.452 -0.0893 -0.2286  0.3015
 4430W        W 7949   0.422   9.472   0.702  0.1665  0.0128  0.1811
 4431W        W 7950   1.037   2.423   4.047  0.1259  0.3246  0.0513
 4432W        W 7951   4.676   0.943   2.571 -0.0401 -0.2112 -0.1258
 4433W        W 7952   6.484   0.227   2.145 -0.3717  0.4018  0.3048
 4434W        W 7953   2.099   6.271   9.948  0.2930 -0.1887  0.1641
 4435W        W 7954   3.682   0.995   2.529  0.0306 -0.2213 -0.3243
 4436W        W 7955   3.452   9.402  10.201  0.0769 -0.1100  0.0437
 4437W        W 7956   9.268   2.511   1.233  0.2880 -0.1512  0.0398
 4438W        W 7957   4.154   0.520   1.742  0.0513  0.1445  0.1690
 4439W        W 7958   3.492   9.233   2.314 -0.0655 -0.0875  0.1108
 4440W        W 7959   3.729   4.477   2.423 -0.2345  0.1647  0.0382
 4441W        W 7960   3.829   8.539   7.982  0.0904 -0.1682  0.2154
 4442W        W 7961   0.072   0.477  12.461 -0.1503 -0.2492  0.2139
 4443W        W 7962   3.228   4.282  10.287  0.2281  0.1873 -0.0134
 4444W        W 7963   0.410   6.060  10.371  0.2153 -0.0894  0.0594
 4445W        W 7964   5.026   3.298  10.155 -0.4330  0.2451  0.2779
 4446W        W 7965   6.693   0.508   0.676  0.1424  0.1776  0.1748
 4447W        W 7966   7.755   5.076   3.620  0.0224 -0.0100 -0.1605
 4448W        W 7967   2.114   1.157  11.909 -0.0242  0.0656  0.1799
 4449W        W 7968   3.420   4.639   8.501 -0.1897  0.1126  0.2234
 4450W        W 7969   5.883   4.382   9.687 -0.2253  0.0150 -0.1019
 4451W        W 7970   0.955   9.444  10.367 -0.1858 -0.1754  0.2448
 4452W        W 7971   2.491   9.474   9.014  0.1659 -0.2356 -0.0343
 4453W        W 7972   3.660   0.430   2.553  0.5750 -0.0926  0.0499
 4454W        W 7973   3.609   0.082   1.247  0.0423  0.1055 -0.3549
 4455W        W 7974   9.567   4.366   2.700  0.3900 -0.0134  0.2248
 4456W        W 7975   1.079   7.980   2.792  0.4194  0.0161  0.0428
 4457W        W 7976   6.120   7.690   2.691  0.2312  0.0028 -0.0324
 4458W        W 7977   4.176   2.876   9.644 -0.1615  0.1494  0.1118
 4459W        W 7978   2.043   0.780  11.033 -0.2640 -0.5276  0.1930
 4460W        W 7979   2.035   7.458   1.516  0.1760 -0.2882  0.0655
 4461W        W 7980   5.365   8.798   3.472  0.1083 -0.3357 -0.1364
 4462W        W 7981   9.222   1.508   9.199 -0.2817 -0.0948 -0.0003
 4463W        W 7982   0.292   8.848  11.482 -0.0012 -0.0013 -0.2712
 4464W        W 7983   4.075   0.193   4.001 -0.2619  0.0160  0.0566
 4465W        W 7984   7.598   1.248  12.232  0.1815 -0.1098  0.1628
 4466W        W 7985   2.646   6.012  10.834 -0.0898  0.0285  0.0295
 4467W        W 7986   3.068   5.555   2.478  0.0888  0.0181 -0.2582
 4468W        W 7987   3.558   5.005  11.750 -0.0642 -0.0871 -0.0069
 4469W        W 7988   7.384   4.775   9.630 -0.2429 -0.1019 -0.0029
 4470W        W 7989   2.234   5.648  11.647  0.3566  0.0176 -0.1132
 4471W        W 7990   6.193   3.792   2.905  0.2457 -0.0584 -0.0499
 4472W        W 7991   4.158   9.437  12.487 -0.0989  0.1496 -0.2287
 4473W        W 7992   6.641   6.599  12.317  0.1141 -0.1872  0.1934
 4474W        W 7993   1.275   9.513   2.723 -0.5599 -0.1655 -0.0913
 4475W        W 7994   1.889   8.719  10.236 -0.0890 -0.1391  0.0981
 4476W        W 7995   2.576   1.228   8.789 -0.2789 -0.3236  0.2712
 4477W        W 7996   1.475   3.124  10.501 -0.1243  0.1229  0.2073
 4478W        W 7997   3.252   7.685   4.663 -0.0306  0.1385  0.0656
 4479W        W 7998   7.680   4.577   1.770  0.2206 -0.0146  0.1217
 4480W        W 7999   9.516   3.334   8.586  0.2245  0.1938 -0.0150
 4481W        W 8000   5.861   8.594   3.532  0.1769  0.2767  0.1115
 4482W        W 8001   0.204   1.310   3.701  0.3878  0.0256  0.3199
 4483W        W 8002   2.805   4.831   2.948  0.0355  0.1063 -0.2785
 4484W        W 8003   2.652   3.544  12.271  0.0425 -0.3759  0.0300
 4485W        W 8004   4.696   1.682   8.637  0.1155 -0.0733 -0.3427
 4486W        W 8005   8.090   7.792  10.391  0.0101  0.0651  0.0778
 4487W        W 8006   0.169   8.658   1.832  0.0543 -0.2948 -0.0577
 4488W        W 8007   4.282   7.426   9.646  0.0336  0.0798 -0.0316
 4489W        W 8008   4.860   6.254   4.344  0.1686  0.2829 -0.0428
 4490W        W 8009   6.731   9.336   0.814  0.1256  0.1947  0.2743
 4491W        W 8010   5.822   1.955   9.782 -0.2748  0.0717  0.0150
 4492W        W 8011   6.766   7.874   9.850 -0.0829  0.2185  0.2749
 4493W        W 8012   0.871   5.400   9.489 -0.3926  0.3101  0.3016
 4494W        W 8013   4.314   2.748   9.199 -0.3308  0.0160  0.2100
 4495W        W 8014   3.426   3.452   4.089 -0.1582 -0.0898 -0.0749
 4496W        W 8015   1.615   4.735  11.408  0.3362 -0.1389 -0.1367
 4497W        W 8016   9.297   8.045  11.790  0.0472  0.0516 -0.2377
 4498W        W 8017   7.157   9.640   1.986 -0.1821  0.0028 -0.2335
 4499W        W 8018   3.176   4.324   4.535  0.0649 -0.1695  0.2141
 4500W        W 8019   2.625   2.076  12.340 -0.1824  0.0703 -0.0518
 4501W        W 8020   9.117   5.839   0.228  0.1822 -0.0183 -0.0240
 4502W        W 8021   9.499   5.610  11.162 -0.1557  0.0997  0.2016
 4503W        W 8022   2.733   0.800   1.058  0.3193  0.3228  0.2163
 4504W        W 8023   0.691   2.151   9.877 -0.4786 -0.0919 -0.0410
 4505W        W 8024   6.909   4.034   1.580  0.3701 -0.1126 -0.2294
 4506W        W 8025   2.219   3.074   3.380 -0.1572 -0.0734  0.1885
 4507W        W 8026   4.578   8.335   0.560 -0.1386 -0.1769 -0.0605
 4508W        W 8027   7.482   2.558   0.518 -0.3665  0.1113 -0.0839
 4509W        W 8028   3.381   3.113   1.722 -0.0290 -0.0690 -0.0158
 4510W        W 8029   5.999   3.272   1.956  0.0155  0.1034 -0.3050
 4511W        W 8030   5.416   8.929   2.676 -0.2558 -0.1355 -0.0378
 4512W        W 8031   6.025   0.330   3.646 -0.2741 -0.1598  0.3637
 4513W        W 8032   5.505   6.878   0.914 -0.2588 -0.1026 -0.0602
 4514W        W 8033   9.628   0.733   4.263  0.0914  0.4906 -0.1491
 4515W        W 8034   2.447   2.482   3.190  0.2641 -0.2919 -0.1610
 4516W        W 8035   8.510   4.720   8.875  0.0374  0.1745 -0.2634
 4517W        W 8036   2.261   6.971  11.551 -0.1690  0.0345  0.1701
 4518W        W 8037   3.779   2.739   9.231  0.2142 -0.3492  0.4360
 4519W        W 8038   6.482   4.961   8.579 -0.2276  0.0170  0.0485
 4520W        W 8039   5.370   4.646   3.958  0.0848  0.0620  0.0497
 4521W        W 8040   2.306   0.570   8.136 -0.1398 -0.1187  0.0217
 4522W        W 8041   6.822   9.219   8.664  0.1681 -0.2472 -0.0953
 4523W        W 8042   8.319   7.149   2.134  0.0724 -0.0261  0.0770
 4524W        W 8043   6.776   1.401   9.051  0.4159 -0.0969 -0.1691
 4525W        W 8044   3.780   9.610   2.778  0.0407  0.0834 -0.2743
 4526W        W 8045   2.632   1.478   1.320 -0.0269 -0.0251 -0.0974
 4527W        W 8046   7.301   8.692   9.283  0.1043  0.2017 -0.1489
 4528W        W 8047   7.364   1.962   2.996 -0.2090 -0.0423 -0.1364
 4529W        W 8048   4.842   8.022   8.411  0.3590  0.1187  0.0018
 4530W        W 8049   0.486   7.524   2.108  0.1392  0.3121 -0.1617
 4531W        W 8050   2.762   1.390  10.619 -0.0833  0.1175  0.0311
 4532W        W 8051   6.548   0.409   9.851 -0.0403  0.0194 -0.1604
 4533W        W 8052   8.553   5.662   0.110  0.0368  0.1028  0.0990
 4534W        W 8053   3.521   7.045   3.119 -0.0006 -0.1632 -0.0225
 4535W        W 8054   2.832   9.449   1.279 -0.0849 -0.0920 -0.0322
 4536W        W 8055   2.458   6.118  11.804  0.2871  0.0690 -0.0013
 4537W        W 8056   4.002   8.575   2.324  0.2310 -0.1638 -0.0359
 4538W        W 8057   6.527   0.598   1.243  0.2272 -0.0496  0.2403
 4539W        W 8058   1.603   7.121   9.680  0.0179  0.1683  0.2081
 4540W        W 8059   3.483   1.644   1.663 -0.1515  0.3064  0.1115
 4541W        W 8060   1.607   1.814   4.167 -0.2611 -0.1632 -0.0122
 4542W        W 8061   5.839   4.844   2.915 -0.1301  0.2074 -0.1405
 4543W        W 8062   9.615   4.724  11.564  0.0450  0.3023  0.1741
 4544W        W 8063   5.154   0.917   8.594  0.0530  0.0334 -0.1285
 4545W        W 8064   6.523   2.466   9.920  0.1056 -0.0517  0.0057
 4546W        W 8065   2.369   3.759   2.311 -0.0755  0.0246  0.2085
 4547W        W 8066   6.822   7.107   3.603  0.3010  0.1890 -0.1181
 4548W        W 8067   6.547   7.680   4.297  0.1548 -0.1045 -0.1954
 4549W        W 8068   1.293   6.301  11.157 -0.0016  0.1109 -0.0172
 4550W        W 8069   8.501   0.637  11.471  0.0036 -0.0735 -0.0140
 4551W        W 8070   4.523   7.377   4.527  0.3466  0.2690  0.1033
 4552W        W 8071   3.704   8.248   1.532  0.0576 -0.0065  0.1691
 4553W        W 8072   2.210   2.378  10.928  0.0115 -0.2137 -0.0415
 4554W        W 8073   3.398   7.405   0.586 -0.2192  0.0619  0.4220
 4555W        W 8074   0.475   1.156   9.066 -0.1629  0.2079 -0.0750
 4556W        W 8075   6.090   7.586  10.694  0.1066 -0.3244  0.0210
 4557W        W 8076   4.677   4.314   0.441 -0.3152 -0.1927 -0.2685
 4558W        W 8077   8.232   9.355   2.088  0.1141  0.0074  0.0946
 4559W        W 8078   9.204   7.747   0.052 -0.3617  0.1478  0.4536
 4560W        W 8079   1.378   4.217  10.154  0.3045 -0.1912 -0.0740
 4561W        W 8080   8.420   9.610   2.946 -0.0122  0.1115  0.0903
 4562W        W 8081   7.322   5.419   8.859  0.2463 -0.0149 -0.0224
 4563W        W 8082   0.495   2.939   1.005 -0.0810  0.2928  0.2611
 4564W        W 8083   5.643   5.970   3.231 -0.0655  0.1524 -0.0290
 4565W        W 8084   8.397   2.976  12.573 -0.1656 -0.0214 -0.2218
 4566W        W 8085   6.663   5.916  11.656  0.0988  0.1181  0.1019
 4567W        W 8086   3.875   6.916  11.622 -0.0803 -0.3936 -0.0340
 4568W        W 8087   5.942   8.223   0.253  0.2612 -0.0325 -0.2273
 4569W        W 8088   7.864   7.173   0.775 -0.1727 -0.0766  0.0106
 4570W        W 8089   7.435   8.546   2.781  0.0986 -0.2169 -0.1924
 4571W        W 8090   1.683   1.176   4.609 -0.2985 -0.4069 -0.0452
 4572W        W 8091   0.509   2.013   2.059 -0.0573  0.3517  0.3171
 4573W        W 8092   9.542   7.896   1.540  0.0392  0.0376 -0.1798
 4574W        W 8093   4.031   4.511   1.186 -0.1478  0.1092  0.0690
 4575W        W 8094   1.832   3.731   0.248  0.1307  0.1779  0.0508
 4576W        W 8095   7.314   3.907   1.885 -0.4032  0.0882  0.0697
 4577W        W 8096   8.630   7.318   1.408  0.1825  0.1889 -0.1369
 4578W        W 8097   2.194   9.009   1.767  0.1226 -0.0078  0.1579
 4579W        W 8098   3.177   4.441  11.320  0.2103 -0.1540 -0.2633
 4580W        W 8099   3.670   3.575   1.537 -0.2383  0.0433  0.0117
 4581W        W 8100   4.809   7.440   1.900  0.2442 -0.0326  0.5015
 4582W        W 8101   2.166   3.714   1.856  0.0429  0.0213  0.2620
 4583W        W 8102   3.591   2.213   9.162  0.2505 -0.0743  0.0827
 4584W        W 8103   0.762   9.188   0.463 -0.0943 -0.3480  0.0581
 4585W        W 8104   3.077   7.497   3.812  0.1593 -0.0593 -0.0390
 4586W        W 8105   3.234   9.195  12.564 -0.1224  0.2694 -0.1456
 4587W        W 8106   3.377   3.136   0.037  0.2459  0.3493 -0.3651
 4588W        W 8107   7.200   0.680  11.699 -0.1736 -0.0122 -0.0605
 4589W        W 8108   1.936   8.506   1.699 -0.1158 -0.1161 -0.0778
 4590W        W 8109   6.787   3.139   1.804  0.1851 -0.2405 -0.3478
 4591W        W 8110   4.386   3.410   3.890  0.2328 -0.1368  0.0620
 4592W        W 8111   4.767   2.468   3.029 -0.1611  0.1057 -0.0198
 4593W        W 8112   5.172   2.894  12.493  0.1199  0.2736  0.1327
 4594W        W 8113   0.558   0.195   2.310  0.0782 -0.1325  0.1619
 4595W        W 8114   8.345   7.550   8.600  0.0052 -0.2630 -0.0750
 4596W        W 8115   6.473   8.457  12.337  0.1058 -0.0731  0.0867
 4597W        W 8116   0.099   7.359   3.458 -0.4967 -0.0260  0.0420
 4598W        W 8117   5.832   7.116  10.725  0.1309  0.1474 -0.1216
 4599W        W 8118   8.594   6.733   8.904  0.0030 -0.0613 -0.0088
 4600W        W 8119   9.659   2.476   9.153  0.1754  0.3121 -0.0483
 4601W        W 8120   2.768   8.450  10.191  0.2093  0.1746 -0.2442
 4602W        W 8121   5.695   3.074  12.359  0.1187  0.0968  0.0030
 4603W        W 8122   1.855   8.785  10.892  0.0471  0.0996  0.0846
 4604W        W 8123   7.434   7.125  10.262 -0.1806  0.1095  0.2179
 4605W        W 8124   9.631   0.304   9.615 -0.2527 -0.0074 -0.1642
 4606W        W 8125   3.850   1.446   3.159 -0.1720  0.2726  0.0130
 4607W        W 8126   0.283   6.612   9.664 -0.2831  0.1613  0.1677
 4608W        W 8127   8.636   3.581   8.955 -0.0451 -0.1606 -0.0285
 4609W        W 8128   7.432   6.941   0.661 -0.1475  0.1324 -0.2588
 4610W        W 8129   6.328   5.614  11.971 -0.0524 -0.5667  0.1974
 4611W        W 8130   5.925   4.931   3.521  0.1631 -0.1423 -0.0872
 4612W        W 8131   2.068   5.936  10.917  0.2598  0.3800 -0.3528
 4613W        W 8132   9.456   1.900   9.952  0.2703 -0.1515  0.1580
 4614W        W 8133   9.174   4.359   9.060  0.1363  0.0708  0.0725
 4615W        W 8134   7.184   6.125   2.393 -0.0549  0.1792  0.0421
 4616W        W 8135   3.008   2.255   2.558  0.2380 -0.2261 -0.2865
 4617W        W 8136   7.175   5.248   0.851  0.1633 -0.0509 -0.1162
 4618W        W 8137   8.773   6.548   9.385 -0.2281  0.3097  0.2705
 4619W        W 8138   1.298   8.947  11.797 -0.0966  0.0053 -0.0004
 4620W        W 8139   4.712   5.184   9.033  0.1104 -0.0533  0.0981
 4621W        W 8140   9.364   3.469   0.702 -0.0821 -0.1410  0.2423
 4622W        W 8141   1.349   9.167   1.231 -0.2220 -0.0225 -0.1172
 4623W        W 8142   8.408   7.751   1.439 -0.0460 -0.2226  0.0077
 4624W        W 8143   8.678   9.480   9.101  0.0014 -0.0486  0.2372
 4625W        W 8144   8.380   6.496   0.198  0.1682 -0.1096 -0.2294
 4626W        W 8145   7.533   6.996  11.839  0.0770  0.2267 -0.2318
 4627W        W 8146   5.370   5.997  10.723 -0.1010 -0.0177  0.0386
 4628W        W 8147   6.238   6.835  11.393  0.3961  0.1612 -0.0869
 4629W        W 8148   3.867   9.188  11.145 -0.1065 -0.0048 -0.0320
 4630W        W 8149   7.474   1.245   9.713 -0.0028  0.0769  0.4595
 4631W        W 8150   3.890   1.017   2.955 -0.0532 -0.0754  0.3161
 4632W        W 8151   8.185   8.997   9.596  0.4820  0.0537  0.0136
 4633W        W 8152   8.533   0.088   2.006 -0.1235 -0.2835 -0.0305
 4634W        W 8153   4.283   0.690   0.448 -0.1392  0.1182 -0.4141
 4635W        W 8154   2.858   7.798   4.293  0.3522 -0.0274 -0.1765
 4636W        W 8155   8.878   0.214   4.257 -0.1011 -0.2955 -0.1551
 4637W        W 8156   3.551   4.409   2.905 -0.1504 -0.1439 -0.0312
 4638W        W 8157   9.500   8.224   0.037  0.2930 -0.2962  0.2980
 4639W        W 8158   4.499   9.563   3.861 -0.2704 -0.1330 -0.0377
 4640W        W 8159   8.563   5.678   1.457  0.1768 -0.0387 -0.0309
 4641W        W 8160   8.550   4.211   8.850 -0.0827 -0.2948  0.1431
 4642W        W 8161   7.849   1.977   1.196  0.3922  0.0999  0.1726
 4643W        W 8162   2.395   3.710   9.370 -0.1635  0.0884 -0.2215
 4644W        W 8163   5.148   3.646   1.753  0.2638 -0.0595 -0.2390
 4645W        W 8164   0.034   8.687   0.059 -0.2550 -0.1103  0.1601
 4646W        W 8165   0.193   6.097   0.949 -0.2113 -0.2625  0.0231
 4647W        W 8166   8.192   1.130   1.510  0.1286  0.0171  0.1737
 4648W        W 8167   2.610   4.068   3.904  0.1523  0.0431 -0.2760
 4649W        W 8168   8.073   4.211  10.645 -0.0124 -0.2269 -0.1949
 4650W        W 8169   6.409   1.061   9.015 -0.0235 -0.3863  0.2017
 4651W        W 8170   2.134   4.700  11.907 -0.1562  0.0928 -0.0261
 4652W        W 8171   2.683   3.674  10.955 -0.2093  0.0038  0.1715
 4653W        W 8172   2.024   1.408   9.596  0.3632  0.2294  0.1029
 4654W        W 8173   9.601   1.214   9.198  0.0802 -0.0292  0.1734
 4655W        W 8174   3.570   7.250   2.570 -0.1321  0.2145 -0.0110
 4656W        W 8175   4.046   1.711  10.436 -0.3198 -0.1225  0.2422
 4657W        W 8176   4.660   4.208   4.330 -0.1030  0.0283  0.0783
 4658W        W 8177   5.258   7.163   9.777  0.5296 -0.1551 -0.1478
 4659W        W 8178   9.262   5.255   1.791 -0.1062  0.0327 -0.0853
 4660W        W 8179   7.231   0.964   1.605 -0.1502 -0.2714  0.0143
 4661W        W 8180   8.208   5.722   0.513 -0.0345 -0.1909  0.0277
 4662W        W 8181   5.988   3.763   2.058 -0.3150  0.1929  0.1329
 4663W        W 8182   3.645   8.687   0.594  0.0549  0.1675  0.0148
 4664W        W 8183   0.013   0.052   4.116 -0.4169  0.3106 -0.0764
 4665W        W 8184   1.207   9.631  12.217 -0.0741  0.2193 -0.2332
 4666W        W 8185   4.857   3.947   1.352  0.0051  0.0050  0.0406
 4667W        W 8186   3.664   5.195   8.332 -0.1774 -0.1128 -0.4443
 4668W        W 8187   6.010   1.468  10.033  0.2113 -0.0023  0.0849
 4669W        W 8188   1.790   5.629   3.669 -0.2476 -0.3174 -0.0087
 4670W        W 8189   5.495   9.391  12.151  0.0922 -0.3691 -0.0373
 4671W        W 8190   2.774   1.668   0.006  0.4201  0.0265 -0.1578
 4672W        W 8191   8.745   7.911   7.755  0.0728 -0.1894  0.1202
 4673W        W 8192   6.723   4.518  11.973  0.2716  0.5006 -0.0062
 4674W        W 8193   7.502   7.869  11.807 -0.1906  0.4813 -0.0639
 4675W        W 8194   8.217   2.989  11.630  0.2167  0.2913  0.0246
 4676W        W 8195   6.715   9.484  10.346 -0.1222 -0.0692 -0.3186
 4677W        W 8196   5.779   3.874  12.398 -0.2183  0.1572  0.3017
 4678W        W 8197   5.987   6.281   9.524  0.0931 -0.2228 -0.1469
 4679W        W 8198   2.956   9.625   9.216 -0.2514 -0.0012 -0.0864
 4680W        W 8199   6.144   5.453  12.543 -0.3988 -0.1072  0.0777
 4681W        W 8200   2.343   0.429   0.929  0.1516  0.0598 -0.0257
 4682W        W 8201   2.833   0.171   4.699  0.1038  0.0083 -0.1844
 4683W        W 8202   9.125   6.760   0.766  0.0228 -0.1287 -0.2531
 4684W        W 8203   3.339   3.079  10.945 -0.0116  0.0247  0.0597
 4685W        W 8204   4.975   9.354   1.741  0.3393 -0.1291 -0.1676
 4686W        W 8205   2.720   9.136   2.949  0.1240  0.2565 -0.2737
 4687W        W 8206   1.974   1.566   3.994 -0.1372 -0.0165 -0.0062
 4688W        W 8207   5.149   1.441   2.392  0.1344 -0.1442 -0.0120
 4689W        W 8208   4.355   1.023   1.695  0.1102  0.1962 -0.0058
 4690W        W 8209   8.933   5.315   1.330 -0.0106  0.0733 -0.2170
 4691W        W 8210   5.631   4.850   1.443  0.2381  0.1091 -0.0963
 4692W        W 8211   3.892   7.994   1.116  0.2592 -0.1035  0.5206
 4693W        W 8212   2.449   1.715   2.921  0.0023  0.3963  0.3364
 4694W        W 8213   8.052   1.380  11.172 -0.0334 -0.0420 -0.1524
 4695W        W 8214   3.070   4.490   4.061 -0.1109  0.0101 -0.0417
 4696W        W 8215   1.847   4.224   2.396 -0.0286 -0.0916  0.2922
 4697W        W 8216   1.003   5.475  11.830 -0.1736  0.1474 -0.0505
 4698W        W 8217   9.355   1.294   0.402  0.0575 -0.0876  0.0136
 4699W        W 8218   2.688   5.490  10.512  0.1866 -0.1429  0.1990
 4700W        W 8219   8.516   2.021   0.927  0.2402 -0.0311 -0.3026
 4701W        W 8220   4.640   9.076   2.012 -0.3022  0.1520 -0.1935
 4702W        W 8221   2.536   0.768   3.395 -0.2531  0.0194 -0.0217
 4703W        W 8222   4.537   1.802  11.940  0.0966 -0.1313  0.0044
 4704W        W 8223   5.966   0.438   9.961  0.2485  0.0048  0.2247
 4705W        W 8224   0.252   3.784   1.511  0.2825 -0.0503  0.0733
 4706W        W 8225   8.553   2.231   3.002 -0.1385  0.1570 -0.0185
 4707W        W 8226   4.106   7.865   3.284  0.0890 -0.0305  0.1802
 4708W        W 8227   3.288   1.178  10.410  0.1624  0.1566 -0.1371
 4709W        W 8228   1.220   8.433   8.782  0.4125  0.3325  0.1132
 4710W        W 8229   9.559   5.100  12.116 -0.0056 -0.0573 -0.0079
 4711W        W 8230   1.059   7.550  11.677 -0.1370 -0.0875  0.1254
 4712W        W 8231   1.443   6.970  10.172  0.1784  0.1556  0.1129
 4713W        W 8232   8.905   2.269  10.584  0.0675  0.0426  0.0661
 4714W        W 8233   5.335   6.489  11.594  0.0364 -0.0432 -0.0358
 4715W        W 8234   8.392   2.863   9.700  0.0856  0.0118  0.0387
 4716W        W 8235   8.050   8.840   2.160  0.0212 -0.0707  0.0743
 4717W        W 8236   4.721   8.411   9.256  0.2274 -0.2384 -0.3540
 4718W        W 8237   2.837   9.575  12.544 -0.0699  0.0432  0.1377
 4719W        W 8238   0.349   9.455   1.445  0.1497  0.0831 -0.0230
 4720W        W 8239   4.636   8.605  11.458  0.0586  0.0237 -0.2717
 4721W        W 8240   0.410   4.303   1.391  0.0453  0.2197  0.1346
 4722W        W 8241   1.959   9.665   9.037  0.0385 -0.0397  0.3169
 4723W        W 8242   1.113   6.645  11.565 -0.0331  0.2326 -0.4102
 4724W        W 8243   1.433   0.809   8.013 -0.1434 -0.1870  0.1099
 4725W        W 8244   5.797   6.559   1.147  0.2215 -0.0610 -0.1237
 4726W        W 8245   0.073   8.929   4.398  0.5255 -0.0621  0.2220
 4727W        W 8246   5.725   7.253   2.024  0.0944  0.2287 -0.0909
 4728W        W 8247   1.196   5.944  11.579  0.2324  0.1326 -0.3744
 4729W        W 8248   1.728   7.098   0.675  0.2580  0.0258  0.2328
 4730W        W 8249   4.985   2.372   0.732  0.1055 -0.4945  0.1159
 4731W        W 8250   1.139   1.477  11.567  0.0626 -0.1410  0.3396
 4732W        W 8251   0.201   4.973   3.217  0.1214  0.1931 -0.0288
 4733W        W 8252   4.509   0.897   9.278 -0.2699  0.2024 -0.1885
 4734W        W 8253   4.071   2.543   9.977 -0.1331  0.1821 -0.1891
 4735W        W 8254   0.005   2.621   0.464 -0.0341  0.1239 -0.1993
 4736W        W 8255   6.111   8.864  12.524 -0.2738  0.0510  0.2188
 4737W        W 8256   4.895   2.089   8.997  0.3009 -0.0025 -0.0674
 4738W        W 8257   4.063   1.742   4.166  0.0096  0.0677 -0.2884
 4739W        W 8258   4.945   4.754  10.769  0.1140 -0.0278 -0.2590
 4740W        W 8259   5.122   2.090  11.402  0.1000  0.0761 -0.2151
 4741W        W 8260   9.255   6.664   9.306  0.1161  0.2752 -0.3083
 4742W        W 8261   4.014   5.265   9.664  0.1685  0.2047  0.2285
 4743W        W 8262   7.886   9.185   4.834 -0.0331  0.2228  0.0010
 4744W        W 8263   7.490   3.416   0.390  0.1690  0.1651  0.1438
 4745W        W 8264   3.318   8.729   0.165  0.3144  0.1217 -0.0454
 4746W        W 8265   5.879   5.870   8.724  0.0200 -0.2291 -0.0756
 4747W        W 8266   6.320   4.002   9.783  0.1568  0.0360 -0.1005
 4748W        W 8267   3.684   8.856   9.610 -0.0810 -0.1347  0.0272
 4749W        W 8268   2.148   4.683   9.912 -0.0165 -0.0559 -0.0382
 4750W        W 8269   2.287   6.860   2.204 -0.1324  0.1099 -0.1945
 4751W        W 8270   5.250   0.275   0.981  0.3946 -0.2875 -0.0585
 4752W        W 8271   9.304   4.283   3.220  0.2659 -0.0193 -0.1353
 4753W        W 8272   5.160   3.371   9.428 -0.1512 -0.4271 -0.1372
 4754W        W 8273   0.633   5.158  10.961  0.0214  0.1102  0.0001
 4755W        W 8274   8.825   7.325   3.510 -0.0959 -0.1127 -0.1808
 4756W        W 8275   2.467   0.550  11.232  0.2000 -0.2664  0.1232
 4757W        W 8276   3.559   1.761   4.850 -0.0088 -0.4324  0.1428
 4758W        W 8277   1.626   0.334   9.169  0.2506 -0.2091 -0.2653
 4759W        W 8278   4.766   5.631  10.180 -0.2335  0.3248 -0.0467
 4760W        W 8279   6.626   5.441   0.832 -0.0139  0.0001 -0.0119
 4761W        W 8280   9.513   9.330   1.409 -0.2285 -0.1774 -0.3214
 4762W        W 8281   2.527   2.297   4.015 -0.0721 -0.1857 -0.1333
 4763W        W 8282   2.634   8.516   4.219 -0.1641 -0.2040  0.0833
 4764W        W 8283   1.487   6.461   1.477 -0.2183 -0.2562  0.1678
 4765W        W 8284   7.622   5.337   2.166  0.0584  0.2551 -0.0607
 4766W        W 8285   2.955   7.961   1.353  0.2238  0.0655 -0.3130
 4767W        W 8286   6.155   3.478   2.544  0.1827  0.3741  0.0124
 4768W        W 8287   0.475   6.426   2.429  0.0491  0.1651 -0.1193
 4769W        W 8288   9.527   9.147   3.966  0.0741  0.0046 -0.1200
 4770W        W 8289   4.075   5.248   3.468 -0.0091  0.3690  0.1579
 4771W        W 8290   7.463   3.352  12.447  0.1768  0.0554 -0.1596
 4772W        W 8291   1.729   7.181   4.348  0.0635  0.5087  0.0492
 4773W        W 8292   7.055   9.518   0.070  0.3004 -0.1504 -0.0610
 4774W        W 8293   5.830   5.895   3.793  0.0026  0.0659  0.0615
 4775W        W 8294   2.390   7.157   3.188  0.0470  0.1503  0.2498
 4776W        W 8295   1.054   0.653   3.242 -0.1093 -0.0793  0.0834
 4777W        W 8296   1.432   7.592   9.531 -0.1304  0.2738 -0.5679
 4778W        W 8297   0.378   3.859  11.678  0.1004  0.1816  0.0675
 4779W        W 8298   3.731   1.842  11.358 -0.0549 -0.3462  0.1604
 4780W        W 8299   0.828   3.290   9.290 -0.1681 -0.3579 -0.1772
 4781W        W 8300   6.891   4.508   0.322  0.0608 -0.1498 -0.1935
 4782W        W 8301   3.618   0.966  10.164  0.0133  0.0242  0.1814
 4783W        W 8302   6.091   3.665   9.458  0.2051  0.1871  0.0109
 4784W        W 8303   9.040   9.291  11.710 -0.1881 -0.0376  0.0831
 4785W        W 8304   5.901   5.610   0.370  0.0845  0.0391  0.0579
 4786W        W 8305   5.046   4.781  10.223  0.0764  0.0166  0.0064
 4787W        W 8306   1.162   2.342   0.192 -0.3107  0.0128 -0.0174
 4788W        W 8307   7.764   1.204   2.597 -0.1898  0.2726  0.1110
 4789W        W 8308   4.747   5.885  11.608 -0.1173  0.1823  0.2406
 4790W        W 8309   3.439   3.856  10.661 -0.1382  0.3823 -0.3105
 4791W        W 8310   4.293   2.915  10.266  0.0898 -0.0127  0.4143
 4792W        W 8311   4.151   8.731   9.327  0.0624  0.2076 -0.0687
 4793W        W 8312   3.578   9.442  12.357  0.1420  0.0574 -0.0219
 4794W        W 8313   1.529   6.375   9.816  0.2651 -0.2427  0.1863
 4795W        W 8314   0.606   6.294   9.979  0.1210  0.0062  0.2039
 4796W        W 8315   3.805   3.908  12.188 -0.3078  0.0658 -0.1570
 4797W        W 8316   8.655   2.489   9.456 -0.2450  0.3932  0.3056
 4798W        W 8317   2.521   8.938   3.340  0.0082 -0.3185 -0.3377
 4799W        W 8318   1.185   8.710   1.049  0.2425 -0.3191 -0.1197
 4800W        W 8319   8.061   4.743   2.975  0.0953  0.3436  0.1422
 4801W        W 8320   5.221   1.812  11.968  0.0686  0.0213 -0.1282
 4802W        W 8321   9.015   6.332  11.597  0.2276  0.0923 -0.3027
 4803W        W 8322   0.667   3.613   8.888 -0.0181  0.0131 -0.2326
 4804W        W 8323   0.531   7.571   8.302 -0.0221  0.1767 -0.1269
 4805W        W 8324   9.302   3.434  10.085  0.1025 -0.2151  0.2008
 4806W        W 8325   4.008   1.647   9.576  0.1110  0.1899 -0.1870
 4807W        W 8326   3.113   1.070   0.824  0.0402 -0.0782  0.0128
 4808W        W 8327   4.529   3.359  10.931  0.2126  0.0175  0.1262
 4809W        W 8328   8.602   0.774  10.468 -0.1041 -0.2270 -0.3283
 4810W        W 8329   6.228   7.251   2.324  0.1412 -0.0918  0.3688
 4811W        W 8330   8.258   9.572  12.384 -0.0861  0.3025  0.0822
 4812W        W 8331   7.006   9.122  10.122 -0.1876 -0.2733  0.2482
 4813W        W 8332   1.783   4.612   1.919 -0.4855 -0.0799  0.0512
 4814W        W 8333   6.082   8.098   2.014 -0.0277  0.1821 -0.2528
 4815W        W 8334   9.437   6.320   9.591 -0.6659  0.2176 -0.0233
 4816W        W 8335   1.364   5.995  12.055 -0.0682 -0.1771 -0.1778
 4817W        W 8336   5.448   2.187   1.070  0.2200 -0.1658 -0.1603
 4818W        W 8337   7.393   6.823   2.937  0.0646 -0.1610  0.1131
 4819W        W 8338   0.562   3.345   1.312 -0.1451 -0.0470 -0.1851
 4820W        W 8339   2.961   5.915  12.164  0.0534 -0.2937  0.0630
 4821W        W 8340   7.629   7.338   1.333  0.3334 -0.1668  0.0383
 4822W        W 8341   1.009   0.769   2.717  0.2570  0.3024 -0.1099
 4823W        W 8342   4.423   3.866   3.948 -0.0640 -0.3979 -0.1720
 4824W        W 8343   6.901   0.847   2.807 -0.3825 -0.0419  0.1104
 4825W        W 8344   8.286   2.850   2.148  0.2205 -0.3188 -0.1169
 4826W        W 8345   8.144   9.610   0.332  0.0176  0.0417 -0.2135
 4827W        W 8346   2.245   4.781   0.775  0.0735 -0.0328  0.2225
 4828W        W 8347   1.472   1.129  10.583  0.2276  0.2438 -0.0143
 4829W        W 8348   6.712   2.059   2.962 -0.0713 -0.1166 -0.0484
 4830W        W 8349   8.801   0.279   9.111 -0.2192 -0.0795 -0.3431
 4831W        W 8350   9.233   6.275   3.239 -0.1181 -0.2492 -0.0997
 4832W        W 8351   2.649   8.862   1.830 -0.0474 -0.2297  0.0456
 4833W        W 8352   1.680   9.077  12.145 -0.3456 -0.0879 -0.1873
 4834W        W 8353   8.223   1.257  10.167  0.0988 -0.0942 -0.0609
 4835W        W 8354   6.326   5.059   0.785  0.0708 -0.1877 -0.0412
 4836W        W 8355   8.744   9.422   1.072  0.3012 -0.0293  0.2744
 4837W        W 8356   5.975   7.708  11.631  0.0980 -0.0530  0.2894
 4838W        W 8357   2.102   9.107   0.840 -0.0476  0.1933 -0.1468
 4839W        W 8358   2.157   1.461   8.603  0.2406 -0.4340  0.1044
 4840W        W 8359   3.685   8.186  11.509  0.1285  0.3016  0.2771
 4841W        W 8360   0.528   2.018   3.922 -0.0149  0.3055 -0.1026
 4842W        W 8361   0.068   6.053   9.863  0.0799  0.1336  0.0699
 4843W        W 8362   2.514   1.825  11.153  0.2133 -0.0379 -0.2956
 4844W        W 8363   5.393   8.587  10.440  0.1524 -0.1513  0.1603
 4845W        W 8364   3.536   0.761   1.112  0.1503 -0.0115 -0.0152
 4846W        W 8365   1.498   7.779   0.113  0.1198 -0.0892  0.0664
 4847W        W 8366   8.999   9.242  12.297  0.0082  0.2308 -0.0176
 4848W        W 8367   9.654   0.913   0.194  0.3614  0.0694  0.0493
 4849W        W 8368   1.412   1.805   0.135 -0.1377  0.0234 -0.2143
 4850W        W 8369   2.302   4.206   4.470 -0.2197  0.1533 -0.2012
 4851W        W 8370   3.414   4.308  10.877 -0.4095 -0.2992 -0.2228
 4852W        W 8371   1.331   1.318   1.565 -0.3076 -0.1104 -0.0716
 4853W        W 8372   7.664   2.302  10.968 -0.2712 -0.3094  0.1788
 4854W        W 8373   2.891   2.725  10.166  0.1814  0.1092  0.2264
 4855W        W 8374   8.438   4.452   0.271 -0.3620 -0.1811 -0.1313
 4856W        W 8375   4.613   1.237   1.088  0.5479 -0.1281 -0.3672
 4857W        W 8376   7.820   3.085  10.242 -0.1867 -0.1285  0.0215
 4858W        W 8377   8.565   6.580  11.798 -0.1280  0.1688 -0.0985
 4859W        W 8378   5.476   7.854   0.858  0.0446  0.0898  0.0289
 4860W        W 8379   4.708   1.861   0.848 -0.4040  0.1341 -0.2474
 4861W        W 8380   1.020   0.195  10.034  0.1008  0.0832  0.4400
 4862W        W 8381   9.020   5.352   0.182 -0.0834 -0.1068 -0.1411
 4863W        W 8382   9.143   2.173  12.370  0.1877  0.0288  0.0058
 4864W        W 8383   4.293   8.897   3.306 -0.1071  0.0524  0.0838
 4865W        W 8384   6.565   4.592   0.676  0.1492  0.1771 -0.0530
 4866W        W 8385   1.188   4.627   1.876  0.0137 -0.0711  0.1985
 4867W        W 8386   3.688   1.344   3.664  0.2752  0.0308  0.3916
 4868W        W 8387   7.668   8.854   3.601  0.1579  0.0975 -0.0984
 4869W        W 8388   3.317   6.234   2.572 -0.3366  0.5173  0.0599
 4870W        W 8389   9.198   1.723   3.938 -0.0466 -0.1119  0.2140
 4871W        W 8390   1.028   8.918   2.436  0.2148  0.1724  0.1626
 4872W        W 8391   8.839   8.396   2.109  0.2940 -0.0894 -0.0651
 4873W        W 8392   4.239   8.284   2.764  0.4052 -0.1101  0.0903
 4874W        W 8393   7.942   8.991   1.234 -0.2273  0.1516  0.2989
 4875W        W 8394   7.182   4.622  11.669  0.1396  0.1358 -0.0296
 4876W        W 8395   1.412   9.482   1.656  0.2452  0.2153  0.0841
 4877W        W 8396   4.138   5.703   2.260 -0.4023  0.2081 -0.2657
 4878W        W 8397   7.844   6.370   3.028  0.1603 -0.4146 -0.3031
 4879W        W 8398   5.969   5.148  11.200 -0.1322 -0.2274 -0.1614
 4880W        W 8399   0.799   0.108  11.466  0.2307  0.0574  0.1217
 4881W        W 8400   6.332   0.294   3.146  0.0149  0.2878 -0.1333
 4882W        W 8401   9.067   0.576  10.378  0.2049 -0.1248  0.0119
 4883W        W 8402   9.121   0.042  11.307  0.2114  0.1697 -0.0731
 4884W        W 8403   3.324   0.603  10.375 -0.3488 -0.1725  0.1702
 4885W        W 8404   3.335   7.121   1.676 -0.0798 -0.1957 -0.0002
 4886W        W 8405   0.904   3.556  12.359 -0.4009 -0.4957 -0.1767
 4887W        W 8406   4.432   5.769  10.686 -0.1674 -0.2508  0.0469
 4888W        W 8407   6.957   3.287  11.969 -0.1032  0.0284  0.3410
 4889W        W 8408   3.999   6.565   2.111  0.3306 -0.4022 -0.1207
 4890W        W 8409   2.543   8.247  11.494  0.0675 -0.3048  0.0276
 4891W        W 8410   5.727   2.806  10.324 -0.1724  0.0084  0.1345
 4892W        W 8411   2.779   4.028  12.360 -0.3289 -0.2770  0.2404
 4893W        W 8412   1.404   6.482   2.789 -0.0638 -0.1405  0.1619
 4894W        W 8413   0.242   2.820   1.564  0.2387  0.1441  0.0103
 4895W        W 8414   5.476   3.324  11.655  0.1989 -0.2038  0.1129
 4896W        W 8415   8.620   6.325   9.853 -0.2947 -0.1174 -0.0208
 4897W        W 8416   6.469   5.339  10.522 -0.2004  0.1081  0.1398
 4898W        W 8417   2.294   0.476   2.005 -0.0889  0.4730  0.4697
 4899W        W 8418   5.609   0.846   1.502 -0.2434  0.1138 -0.0964
 4900W        W 8419   9.289   8.981  10.740 -0.0542  0.0625 -0.3240
 4901W        W 8420   9.042   3.722  10.533  0.2218  0.0222 -0.0855
 4902W        W 8421   4.526   5.031   3.514  0.3650  0.0711 -0.0169
 4903W        W 8422   1.002   7.446   1.720  0.0452  0.1006 -0.1209
 4904W        W 8423   8.267   7.186   9.096  0.0123 -0.0746 -0.4135
 4905W        W 8424   0.320   0.434   1.905 -0.1304  0.1657  0.2487
 4906W        W 8425   5.818   8.696   0.441 -0.0500 -0.2017 -0.2206
 4907W        W 8426   0.005   9.302   2.667  0.1148 -0.0038 -0.0647
 4908W        W 8427   3.110   2.101   3.369  0.1848  0.2185  0.2139
 4909W        W 8428   3.034   7.563   1.675 -0.2447 -0.2387 -0.1380
 4910W        W 8429   7.129   8.964   3.716 -0.0253 -0.0709  0.1610
 4911W        W 8430   0.741   5.790   0.528  0.2454 -0.4735 -0.1790
 4912W        W 8431   4.841   3.704   9.250  0.2524  0.1360  0.0894
 4913W        W 8432   0.694   1.411  11.842 -0.1294  0.3593 -0.0936
 4914W        W 8433   4.427   0.791   1.286 -0.2152  0.0848  0.2462
 4915W        W 8434   2.930   1.110   3.189  0.2611 -0.0487  0.1128
 4916W        W 8435   7.577   4.909   3.188  0.0548 -0.0092  0.2401
 4917W        W 8436   2.575   6.411   8.377  0.0617 -0.0672  0.1516
 4918W        W 8437   0.982   2.281   0.837 -0.0058 -0.1192  0.3233
 4919W        W 8438   9.147   9.615  12.588 -0.0990 -0.0508  0.0375
 4920W        W 8439   2.268   1.620  10.772 -0.0606  0.1593 -0.0367
 4921W        W 8440   9.566   4.878  10.710 -0.4378  0.0439  0.0444
 4922W        W 8441   4.167   2.745   1.914 -0.1018  0.0409  0.0085
 4923W        W 8442   6.604   1.844   0.718 -0.1234 -0.0214  0.2772
 4924W        W 8443   6.926   0.026   9.445  0.0989  0.0928  0.0948
 4925W        W 8444   4.153   4.235  12.323  0.1138  0.0415  0.2902
 4926W        W 8445   0.418   9.626   3.735 -0.0740 -0.1239  0.1651
 4927W        W 8446   4.830   6.792   1.307 -0.3806 -0.0597 -0.1458
 4928W        W 8447   5.344   6.922   2.077  0.0761 -0.2415 -0.0812
 4929W        W 8448   2.333   2.715   3.725  0.0742 -0.1043 -0.0848
 4930W        W 8449   1.296   0.872  12.255 -0.0124 -0.2853 -0.2874
 4931W        W 8450   4.081   2.617   0.975 -0.0947 -0.0307  0.2325
 4932W        W 8451   7.247   4.654   9.183  0.0693  0.0104  0.0165
 4933W        W 8452   3.406   2.267   2.834  0.1834  0.0369 -0.0160
 4934W        W 8453   2.517   5.186   9.170 -0.0552  0.3602 -0.1645
 4935W        W 8454   1.628   2.138   3.178  0.1704 -0.3305 -0.3324
 4936W        W 8455   5.330   6.961  11.834  0.0010  0.1132 -0.3407
 4937W        W 8456   4.060   6.311   1.650  0.3250 -0.0009 -0.3534
 4938W        W 8457   1.877   3.889  11.875 -0.1057 -0.1501 -0.1764
 4939W        W 8458   6.763   9.220   0.326 -0.3280 -0.0366 -0.5517
 4940W        W 8459   1.762   5.116   9.763  0.0561 -0.2034  0.1843
 4941W        W 8460   4.851   7.050   9.223 -0.2264 -0.0068 -0.0243
 4942W        W 8461   2.669   2.329   0.306  0.2035  0.4998 -0.0376
 4943W        W 8462   7.248   3.648   2.615  0.0489 -0.1508  0.0541
 4944W        W 8463   8.867   3.663   9.691 -0.3543 -0.1181  0.2558
 4945W        W 8464   4.836   3.696   0.627  0.2659  0.0516  0.1430
 4946W        W 8465   1.360   3.409   3.202 -0.0570 -0.1136  0.1176
 4947W        W 8466   5.664   6.377  10.648  0.2896 -0.1187  0.0965
 4948W        W 8467   9.397   7.433   0.444  0.1821 -0.0325 -0.3553
 4949W        W 8468   8.639   7.419   3.030  0.1325  0.0951  0.3598
 4950W        W 8469   5.350   0.606  12.011 -0.0749  0.0896 -0.3808
 4951W        W 8470   5.409   6.562  12.140  0.2538  0.1931  0.2348
 4952W        W 8471   6.930   0.544   9.543 -0.0376 -0.1876  0.0880
 4953W        W 8472   8.918   1.894  11.978  0.0533 -0.3510  0.1283
 4954W        W 8473   4.155   8.329   1.841  0.0826 -0.2856 -0.4409
 4955W        W 8474   9.414   6.581   1.644 -0.0097  0.0825  0.0479
 4956W        W 8475   4.809   9.179  11.126  0.1766  0.0674 -0.3419
 4957W        W 8476   5.024   8.178   0.712 -0.1099  0.3415 -0.1426
 4958W        W 8477   4.371   9.324   4.334  0.0142  0.0784  0.2035
 4959W        W 8478   0.571   3.372   2.205 -0.1241 -0.0297 -0.0332
 4960W        W 8479   3.136   9.519   8.750  0.3220  0.0728 -0.3883
 4961W        W 8480   1.091   5.382  10.777 -0.4590  0.0065  0.2286
 4962W        W 8481   5.725   4.024  11.827 -0.5273 -0.0779  0.4069
 4963W        W 8482   7.924   2.818   3.502  0.0922 -0.0321  0.0390
 4964W        W 8483   4.590   1.446   2.502 -0.2881 -0.1573  0.0304
 4965W        W 8484   2.522   5.613  11.213  0.2676 -0.1887  0.0986
 4966W        W 8485   7.738   2.920   2.614  0.1586 -0.0783 -0.0477
 4967W        W 8486   2.328   6.071   9.350  0.1816  0.1782 -0.0310
 4968W        W 8487   2.890   2.515   5.241 -0.1714  0.0559  0.0471
 4969W        W 8488   6.719   2.173   9.586  0.0524  0.0118 -0.0566
 4970W        W 8489   1.520   6.315  11.704 -0.1309  0.0533  0.0306
 4971W        W 8490   5.235   0.458  10.731  0.0639  0.0141 -0.2132
 4972W        W 8491   2.906   4.171   9.249  0.1316  0.0226 -0.0751
 4973W        W 8492   3.433   5.477   9.763 -0.1383  0.1786  0.0510
 4974W        W 8493   9.283   0.840   2.796  0.0360 -0.1350  0.0839
 4975W        W 8494   1.483   8.506  10.505 -0.0316  0.1213  0.0854
 4976W        W 8495   7.741   4.836  11.846 -0.0017 -0.2828  0.1257
 4977W        W 8496   1.700   4.658  10.040 -0.1265 -0.3057 -0.1025
 4978W        W 8497   4.033   6.013  11.509  0.3064 -0.0048 -0.2343
 4979W        W 8498   3.431   3.193   4.589  0.1259  0.0453 -0.0626
 4980W        W 8499   8.879   8.585   1.066 -0.2383  0.4128  0.0026
 4981W        W 8500   2.047   4.494   1.456  0.1672  0.1009  0.0553
 4982W        W 8501   7.776   9.499   3.089 -0.2146 -0.0672  0.0368
 4983W        W 8502   7.500   2.689  10.066 -0.1895  0.1902  0.2917
 4984W        W 8503   1.539   0.657   1.467 -0.0107  0.0359  0.0514
 4985W        W 8504   4.672   3.022  11.558 -0.3588 -0.3116 -0.2670
 4986W        W 8505   8.179   0.978  10.757  0.1121 -0.0174 -0.1244
 4987W        W 8506   8.114   9.455   1.259 -0.0526 -0.2289  0.1696
 4988W        W 8507   2.010   5.720   0.058 -0.1774 -0.0795  0.0374
 4989W        W 8508   2.729   6.676   1.707  0.0282 -0.0476 -0.2071
 4990W        W 8509   0.994   8.466  10.783 -0.1032 -0.3427 -0.1320
 4991W        W 8510   8.696   9.050   3.598  0.0623  0.0311  0.1765
 4992W        W 8511   1.719   8.163  12.287  0.1916 -0.1780  0.1388
 4993W        W 8512   7.028   5.773   0.721 -0.1259 -0.0314  0.1393
 4994W        W 8513   0.959   0.407  11.971 -0.0760 -0.2383 -0.3649
 4995W        W 8514   1.806   4.688   1.051  0.2897 -0.0903 -0.0009
 4996W        W 8515   7.497   2.055   1.505 -0.0272  0.0664 -0.0794
 4997W        W 8516   8.203   7.217   1.147 -0.1101  0.0998  0.2768
 4998W        W 8517   4.464   9.287  12.055  0.5165  0.1787  0.0674
 4999W        W 8518   0.290   6.326  11.501 -0.1087  0.1121 -0.1802
 5000W        W 8519   3.744   2.659   1.353  0.1313  0.3582 -0.2503
 5001W        W 8520   5.523   2.328   3.534 -0.0663  0.0528 -0.2218
 5002W        W 8521   1.369   8.971   2.907  0.0853  0.0071  0.2498
 5003W        W 8522   1.142   8.271   0.522  0.2040  0.1099  0.0656
 5004W        W 8523   9.254   9.620   2.715 -0.2379  0.1544  0.3450
 5005W        W 8524   6.208   3.911   3.760  0.3206 -0.0057 -0.0138
 5006W        W 8525   4.014   8.802   1.337  0.0702 -0.0902 -0.0900
 5007W        W 8526   0.966   0.738   0.723 -0.2029  0.1188  0.1530
 5008W        W 8527   6.744   0.959   0.884  0.2714 -0.1966 -0.2064
 5009W        W 8528   4.947   9.258   0.616  0.0127 -0.1045  0.1315
 5010W        W 8529   1.793   0.752  11.930 -0.2158 -0.2697 -0.1019
 5011W        W 8530   0.547   4.875  11.458  0.4081 -0.1154  0.3687
 5012W        W 8531   3.583   0.129   3.733  0.0591  0.2466 -0.0725
 5013W        W 8532   8.640   1.889   3.371  0.0247  0.1444 -0.0622
 5014W        W 8533   0.767   0.603   8.715  0.0523 -0.1550  0.0774
 5015W        W 8534   8.308   9.530   9.835 -0.0192  0.2794  0.2247
 5016W        W 8535   4.326   5.849  10.194  0.0511 -0.0103  0.0814
 5017W        W 8536   5.308   7.015   1.359 -0.3251 -0.0287  0.0905
 5018W        W 8537   9.460   0.411  10.580 -0.2170  0.0146  0.0722
 5019W        W 8538   2.776   8.312   8.813 -0.3105  0.1019 -0.0648
 5020W        W 8539   2.513   2.769   0.553 -0.2586  0.1346  0.3920
 5021W        W 8540   2.902   9.296   8.326 -0.0157  0.0340  0.1575
 5022W        W 8541   4.247   3.812   2.767 -0.0501  0.0743 -0.4608
 5023W        W 8542   9.255   6.535  11.996 -0.2624 -0.0409 -0.0012
 5024W        W 8543   1.355   3.845   0.012  0.0749 -0.0079 -0.0524
 5025W        W 8544   3.802   8.352   9.427 -0.4863 -0.2089  0.2321
 5026W        W 8545   5.295   4.808   3.004 -0.0171 -0.1175  0.0218
 5027W        W 8546   6.466   6.822   7.933  0.2581 -0.2944  0.0390
 5028W        W 8547   6.969   2.853  10.278 -0.0281 -0.0438  0.3232
 5029W        W 8548   9.330   6.243   4.345 -0.4320  0.0635  0.0754
 5030W        W 8549   0.017   3.648   9.044 -0.3664  0.0986 -0.0200
 5031W        W 8550   7.294   5.965   0.363 -0.1603  0.0111  0.5959
 5032W        W 8551   0.135   4.734   2.452  0.0297  0.1131  0.1724
 5033W        W 8552   2.771   1.909  11.733 -0.1908  0.3783  0.2500
 5034W        W 8553   3.708   6.116   8.573 -0.1436 -0.4931  0.0966
 5035W        W 8554   0.792   6.127   3.692 -0.0791  0.0839  0.0940
 5036W        W 8555   0.728   1.469   3.494 -0.5714 -0.2753 -0.1056
 5037W        W 8556   3.114   2.914   9.670 -0.1621  0.0332  0.0383
 5038W        W 8557   0.374   1.535   1.936 -0.1489 -0.0649  0.1347
 5039W        W 8558   7.949   9.087  10.091  0.0391 -0.2115  0.1885
 5040W        W 8559   7.664   8.214  10.468 -0.0189  0.3907 -0.1890
 5041W        W 8560   3.088   7.836   0.369 -0.0686  0.1694 -0.2751
 5042W        W 8561   6.590   3.223   2.652 -0.2461 -0.0350 -0.2179
 5043W        W 8562   5.884   0.678   8.150  0.4849 -0.1854 -0.3527
 5044W        W 8563   5.008   5.436   8.665  0.0438 -0.0509  0.0481
 5045W        W 8564   3.177   3.950  11.105  0.0607  0.1327 -0.1025
 5046W        W 8565   2.013   9.313  12.458  0.1098  0.3943  0.1056
 5047W        W 8566   8.490   8.415   4.280 -0.1146 -0.2657  0.2645
 5048W        W 8567   0.947   0.069   0.294  0.2921  0.1311  0.1797
 5049W        W 8568   6.560   2.353   0.802  0.3406  0.0285 -0.2919
 5050W        W 8569   1.232   3.631  10.626 -0.0764 -0.0483  0.1091
 5051W        W 8570   1.933   0.386   9.615  0.1975  0.0286  0.3180
 5052W        W 8571   2.430   7.662   4.451  0.2352  0.0283 -0.1672
 5053W        W 8572   4.993   1.734  10.264  0.1492  0.1259  0.0336
 5054W        W 8573   0.295   9.168   9.121 -0.0228 -0.1253  0.4658
 5055W        W 8574   9.409   7.638  11.453  0.2370  0.0692 -0.1217
 5056W        W 8575   2.888   7.391   9.301 -0.0549 -0.0073 -0.0719
 5057W        W 8576   5.024   1.449   2.842 -0.2800 -0.1338  0.0532
 5058W        W 8577   7.099   3.490  11.522  0.0497  0.1215  0.2016
 5059W        W 8578   8.753   4.066   3.223  0.1589 -0.3340 -0.1668
 5060W        W 8579   8.632   0.778   3.506  0.1810  0.1167 -0.0389
 5061W        W 8580   1.102   1.841  11.169 -0.2557  0.0710  0.0423
 5062W        W 8581   4.692   8.062  10.141 -0.4095 -0.2133  0.1925
 5063W        W 8582   3.490   1.748   1.076 -0.0730 -0.2762 -0.2051
 5064W        W 8583   8.831   7.033  11.056  0.0250 -0.3670 -0.0356
 5065W        W 8584   2.236   6.533   1.792 -0.1791  0.0579 -0.2147
 5066W        W 8585   7.642   4.992   0.927 -0.3002 -0.2346 -0.1999
 5067W        W 8586   6.343   7.327   3.232  0.0329 -0.0087 -0.0095
 5068W        W 8587   3.883   4.234   9.479  0.0073  0.2753  0.4016
 5069W        W 8588   2.976   4.493   8.812 -0.1286 -0.0717 -0.5085
 5070W        W 8589   1.710   6.099   2.594 -0.0210  0.2703 -0.0067
 5071W        W 8590   1.489   2.369  11.473 -0.0822 -0.1329  0.0407
 5072W        W 8591   4.530   3.890  10.685 -0.0515  0.0570  0.2064
 5073W        W 8592   4.001   6.191   3.329 -0.1848  0.0570 -0.0661
 5074W        W 8593   0.793   6.224  11.393  0.0779 -0.1099  0.0764
 5075W        W 8594   9.550   6.511  10.081 -0.0659 -0.0414 -0.0079
 5076W        W 8595   3.192   3.547   0.386 -0.3620  0.0366 -0.0758
 5077W        W 8596   7.459   4.427  10.584 -0.1722 -0.1689  0.4008
 5078W        W 8597   3.930   3.746   9.305  0.1312  0.0615 -0.1024
 5079W        W 8598   9.362   7.081   2.603  0.0418 -0.2020 -0.0131
 5080W        W 8599   3.416   0.737   2.194 -0.2488  0.0891  0.1132
 5081W        W 8600   5.466   6.311   8.014 -0.0571 -0.0053 -0.0478
 5082W        W 8601   3.970   9.414   1.193  0.0545 -0.1348  0.0175
 5083W        W 8602   6.415   3.940  10.797 -0.2207 -0.0741 -0.0500
 5084W        W 8603   2.501   4.691   1.658  0.0297 -0.1068 -0.2853
 5085W        W 8604   4.390   8.987  12.536 -0.1230 -0.2001 -0.0282
 5086W        W 8605   0.824   0.254   0.760  0.0824 -0.1666 -0.0963
 5087W        W 8606   0.652   5.667  10.702  0.1102  0.1841  0.0202
 5088W        W 8607   2.430   1.208   3.140  0.2862  0.1376 -0.3583
 5089W        W 8608   0.893   6.925   0.403  0.2308  0.0807  0.2324
 5090W        W 8609   0.818   4.301   0.877  0.3784 -0.7591  0.0877
 5091W        W 8610   2.541   5.022  10.204 -0.2455  0.0191 -0.1860
 5092W        W 8611   0.440   0.616   2.596 -0.1604 -0.0481  0.2639
 5093W        W 8612   1.736   1.594   2.479 -0.1077 -0.0743  0.1419
 5094W        W 8613   3.930   1.008  11.725  0.2276 -0.1375 -0.1273
 5095W        W 8614   6.059   8.429   8.184 -0.0203  0.0966  0.1016
 5096W        W 8615   7.811   9.441   9.753 -0.0295 -0.1001  0.2524
 5097W        W 8616   1.560   6.065   4.082 -0.1327  0.0598 -0.0927
 5098W        W 8617   4.234   0.854   3.801  0.1635 -0.1185 -0.0719
 5099W        W 8618   7.642   7.756   9.088 -0.2032  0.1947  0.1293
 5100W        W 8619   2.818   4.010   0.292 -0.3277 -0.1300  0.0234
 5101W        W 8620   8.324   3.454   1.232 -0.2910  0.1739 -0.2611
 5102W        W 8621   5.461   0.622  11.220  0.0275  0.1570 -0.0209
 5103W        W 8622   8.452   1.395   2.135  0.1873  0.1646  0.2325
 5104W        W 8623   1.567   1.817  11.468 -0.0466  0.0352 -0.0224
 5105W        W 8624   9.619   5.951   3.412 -0.0710  0.0182 -0.0848
 5106W        W 8625   2.758   5.444   3.583  0.1500 -0.1289 -0.1507
 5107W        W 8626   7.605   7.253   2.977 -0.1159  0.1753  0.1228
 5108W        W 8627   9.048   0.111   2.124  0.1192  0.2953 -0.3174
 5109W        W 8628   3.075   0.129   1.574  0.1353 -0.1687  0.1779
 5110W        W 8629   7.994   7.077   5.221 -0.1091 -0.0760 -0.2277
 5111W        W 8630   6.697   2.563  10.900 -0.1672  0.0095 -0.0607
 5112W        W 8631   8.823   1.251   3.496 -0.0607  0.1870 -0.0091
 5113W        W 8632   6.363   3.518   9.877  0.3520  0.0346 -0.1248
 5114W        W 8633   3.357   1.661   0.169  0.0744 -0.1607 -0.1748
 5115W        W 8634   2.362   1.320  12.492 -0.0279  0.1735 -0.2289
 5116W        W 8635   9.200   9.590   0.976  0.1246  0.2245  0.0710
 5117W        W 8636   3.822   7.817  11.243  0.2359 -0.0707  0.0393
 5118W        W 8637   3.146   5.932   1.401 -0.3178 -0.1826  0.1265
 5119W        W 8638   0.846   1.049  12.351 -0.0513 -0.2843 -0.1941
 5120W        W 8639   2.761   7.818   8.094 -0.0820  0.5211 -0.1799
 5121W        W 8640   8.678   3.075   2.822  0.2189  0.3079  0.1706
 5122W        W 8641   1.215   5.696   2.351 -0.1825  0.0432  0.0774
 5123W        W 8642   9.273   4.052  12.478 -0.2221 -0.1010 -0.1327
 5124W        W 8643   8.749   7.861   2.810 -0.1978  0.1253  0.0415
 5125W        W 8644   1.284   5.775   8.646 -0.0748 -0.0833 -0.0235
 5126W        W 8645   4.213   6.785   1.634 -0.1308 -0.2656 -0.0410
 5127W        W 8646   1.045   3.306  11.791  0.2376 -0.0659  0.0351
 5128W        W 8647   4.790   1.139  11.511  0.0503  0.0325  0.1197
 5129W        W 8648   5.475   9.220   9.826  0.0476 -0.1258 -0.0404
 5130W        W 8649   6.214   3.184  10.316  0.0397  0.1520  0.0248
 5131W        W 8650   2.428   8.065  10.283 -0.0067 -0.4140  0.1681
 5132W        W 8651   5.452   4.818  12.187 -0.0694 -0.0640 -0.3072
 5133W        W 8652   2.267   2.246   1.124 -0.1558 -0.0947  0.0235
 5134W        W 8653   0.047   9.585   1.046  0.1008 -0.0871 -0.1435
 5135W        W 8654   7.889   6.453  10.043 -0.1333  0.2460 -0.1059
 5136W        W 8655   7.586   5.433  12.563  0.0752  0.2153  0.0188
 5137W        W 8656   0.696   8.625   9.704  0.2986 -0.2026  0.2027
 5138W        W 8657   3.719   3.961   3.383  0.2590 -0.0768  0.0045
 5139W        W 8658   4.276   5.055   9.315 -0.1291 -0.0316 -0.0279
 5140W        W 8659   6.407   6.913   9.169  0.0456  0.0477 -0.0321
 5141W        W 8660   5.777   0.672  11.736  0.0659  0.2412  0.1874
 5142W        W 8661   0.110   6.911  10.688  0.1561  0.0602  0.0586
 5143W        W 8662   7.732   3.887   0.596 -0.2504 -0.0132  0.2363
 5144W        W 8663   8.559   2.640   2.614 -0.2269  0.0081 -0.4099
 5145W        W 8664   3.703   6.855   0.270 -0.2936 -0.3135 -0.1763
 5146W        W 8665   9.583   5.264   2.414 -0.1242  0.1616  0.0577
 5147W        W 8666   3.960   8.758   2.800  0.0618  0.3590  0.1538
 5148W        W 8667   1.903   8.247   3.190  0.0399 -0.1901  0.1856
 5149W        W 8668   4.501   8.767   9.812  0.0475 -0.0973  0.0061
 5150W        W 8669   4.892   3.203   3.558  0.3226 -0.1980  0.1118
 5151W        W 8670   4.428   4.846   0.319 -0.0138  0.1429 -0.0994
 5152W        W 8671   5.273   6.528   3.302  0.1145 -0.0441  0.0383
 5153W        W 8672   1.534   5.902  12.567 -0.3213 -0.0952 -0.0592
 5154W        W 8673   5.623   4.661   0.131  0.1205  0.0833  0.0912
 5155W        W 8674   9.287   2.091   1.513  0.0524  0.0191 -0.2945
 5156W        W 8675   4.736   9.066  11.679  0.1142  0.2151 -0.0078
 5157W        W 8676   1.741   5.817  10.516 -0.1108  0.0896 -0.3875
 5158W        W 8677   6.203   8.193   9.637 -0.1776 -0.0901 -0.0998
 5159W        W 8678   6.824   5.339   3.613  0.0833 -0.0839  0.3079
 5160W        W 8679   3.983   2.923   3.168  0.1009  0.0717 -0.0134
 5161W        W 8680   0.441   8.097  12.259 -0.1972  0.0105 -0.1350
 5162W        W 8681   8.531   0.924   1.845 -0.2847  0.1338  0.2121
 5163W        W 8682   4.867   0.533   9.297 -0.0408  0.0647  0.2428
 5164W        W 8683   5.497   1.817   1.942  0.0504 -0.0165  0.1509
 5165W        W 8684   8.641   6.939   0.388  0.3083 -0.0370 -0.2324
 5166W        W 8685   0.853   0.138   3.845  0.0962  0.2066 -0.0470
 5167W        W 8686   2.640   5.145   9.660  0.2229 -0.0985 -0.1785
 5168W        W 8687   8.296   8.288  10.424  0.2670 -0.1138  0.0476
 5169W        W 8688   5.873   0.033   1.592  0.0069 -0.0936  0.2315
 5170W        W 8689   5.964   0.808  11.218 -0.2769  0.0939 -0.0776
 5171W        W 8690   8.967   7.832  12.140 -0.1135 -0.3751  0.5581
 5172W        W 8691   6.283   7.593   0.323 -0.4108  0.1608  0.1160
 5173W        W 8692   1.956   6.350   2.976 -0.0157  0.2083 -0.4380
 5174W        W 8693   3.732   3.884   2.919  0.0274 -0.0773  0.0095
 5175W        W 8694   1.098   4.556  11.439  0.0242  0.4341  0.4556
 5176W        W 8695   0.311   2.633   3.250 -0.0088  0.1746 -0.5164
 5177W        W 8696   0.340   8.130   0.171  0.0727 -0.1739 -0.0164
 5178W        W 8697   1.875   6.889   3.881 -0.2333 -0.0959 -0.0731
 5179W        W 8698   8.255   6.003  10.042 -0.1165 -0.0152  0.0274
 5180W        W 8699   1.405   7.851  11.981  0.0562 -0.2734 -0.0146
 5181W        W 8700   3.897   6.978  11.079 -0.0069  0.2006 -0.3338
 5182W        W 8701   2.125   2.487   9.397 -0.2846 -0.2983 -0.0855
 5183W        W 8702   1.169   0.273   1.490 -0.0649 -0.0905  0.1510
 5184W        W 8703   4.106   0.943   0.853  0.1812  0.1710 -0.0827
 5185W        W 8704   4.941   6.722  11.674 -0.2370  0.0233 -0.0886
 5186W        W 8705   0.283   1.208   1.533 -0.1746  0.2895 -0.0136
 5187W        W 8706   4.521   6.713   5.082 -0.2180 -0.4001  0.1794
 5188W        W 8707   1.714   2.081  10.294  0.1516  0.1266  0.1062
 5189W        W 8708   4.947   4.378  11.107  0.3258  0.0298  0.1445
 5190W        W 8709   4.674   6.709   2.733 -0.2069  0.3581  0.1570
 5191W        W 8710   1.128   6.215   0.423 -0.1991  0.1010  0.0402
 5192W        W 8711   4.648   4.956  11.679  0.1637 -0.0833 -0.2158
 5193W        W 8712   5.358   8.457  12.154 -0.0338  0.1363  0.1405
 5194W        W 8713   6.561   6.848   0.148  0.2055 -0.0532  0.0346
 5195W        W 8714   2.499   1.856   0.486  0.0510  0.1713  0.1081
 5196W        W 8715   9.593   5.246  11.581 -0.0287  0.1920 -0.0782
 5197W        W 8716   5.397   2.237  10.498  0.0085 -0.2741  0.1530
 5198W        W 8717   1.150   9.182   4.707  0.1382 -0.0064 -0.1662
 5199W        W 8718   6.492   0.794   9.491 -0.0053 -0.0333 -0.0598
 5200W        W 8719   4.091   6.767   0.795  0.0907 -0.1239  0.4333
 5201W        W 8720   2.161   9.135   2.278  0.0756 -0.3586 -0.2943
 5202W        W 8721   6.772   3.778   9.990 -0.2493 -0.0956  0.0483
 5203W        W 8722   6.009   5.435   9.416  0.0214  0.1597 -0.0577
 5204W        W 8723   0.865   0.529   1.206  0.0568 -0.0623 -0.0964
 5205W        W 8724   3.646   6.757   3.543 -0.2736  0.2659 -0.3287
 5206W        W 8725   2.483   7.791  11.960  0.2713 -0.0391  0.1132
 5207W        W 8726   6.907   5.876   9.630  0.1939  0.4176 -0.1271
 5208W        W 8727   8.072   7.767   1.823 -0.0878 -0.0462 -0.0913
 5209W        W 8728   0.540   5.358   3.143 -0.1826 -0.3402  0.0468
 5210W        W 8729   5.003   7.507   8.841 -0.1792  0.2385 -0.3604
 5211W        W 8730   8.858   2.645   3.012  0.0946  0.1912  0.1043
 5212W        W 8731   5.702   1.118  11.808 -0.0806 -0.2558 -0.1126
 5213W        W 8732   4.216   7.906  10.963  0.2450  0.0049 -0.0763
 5214W        W 8733   6.837   6.688   9.352  0.2554  0.0322 -0.0015
 5215W        W 8734   1.386   3.205  11.412 -0.0650 -0.0355 -0.1549
 5216W        W 8735   9.071   6.061   2.013  0.1841  0.3668 -0.0615
 5217W        W 8736   6.964   6.175   1.425  0.0683  0.4372  0.2433
 5218W        W 8737   2.131   6.060  11.391  0.0623  0.0724 -0.1232
 5219W        W 8738   8.567   5.948   3.575 -0.2605 -0.2391 -0.0027
 5220W        W 8739   4.061   9.482   3.633 -0.1271 -0.2188 -0.0922
 5221W        W 8740   5.220   5.762   9.478 -0.4345  0.3462  0.3190
 5222W        W 8741   7.521   5.438   2.994 -0.1180 -0.2110 -0.0513
 5223W        W 8742   3.219   1.724   2.616  0.1686 -0.2248  0.1347
 5224W        W 8743   0.431   7.431   4.700  0.0740  0.3411  0.1111
 5225W        W 8744   9.083   6.757   3.305  0.0634 -0.0275 -0.2970
 5226W        W 8745   5.947   1.344   0.799 -0.1290  0.1614 -0.1018
 5227W        W 8746   4.378   7.483   3.089 -0.0466 -0.2978 -0.1443
 5228W        W 8747   4.513   5.158   0.679  0.0661  0.0036  0.1234
 5229W        W 8748   4.070   2.424   8.961  0.0242  0.1592  0.0248
 5230W        W 8749   8.941   1.426  12.130  0.0815  0.0002  0.0386
 5231W        W 8750   8.659   1.546  10.370 -0.1514  0.1436  0.4825
 5232W        W 8751   1.060   5.095   1.624  0.0877 -0.2451 -0.1113
 5233W        W 8752   2.114   5.793   2.775  0.1576  0.2615 -0.0330
 5234W        W 8753   0.560   6.974   2.539  0.1713  0.0324  0.3152
 5235W        W 8754   8.570   1.096  11.220  0.0579 -0.0465 -0.0143
 5236W        W 8755   3.950   9.488  12.035  0.3384 -0.1849  0.1958
 5237W        W 8756   7.745   1.143   1.637 -0.0366  0.2922  0.0663
 5238W        W 8757   9.142   6.878   0.279 -0.2155 -0.0769  0.0691
 5239W        W 8758   0.149   7.797   0.553  0.0162  0.1362  0.0094
 5240W        W 8759   7.343   0.858   9.406 -0.2013 -0.2133 -0.0510
 5241W        W 8760   2.443   1.363   9.836 -0.0436  0.1691 -0.0782
 5242W        W 8761   8.432   0.877   3.032  0.0607 -0.0221  0.1508
 5243W        W 8762   5.328   0.106  11.867  0.0279 -0.2960  0.3772
 5244W        W 8763   0.971   8.552   2.770 -0.1950  0.1662  0.0660
 5245W        W 8764   3.238   9.417   3.771 -0.0177  0.1198 -0.4032
 5246W        W 8765   7.995   0.977   9.627  0.0615  0.0874  0.1547
 5247W        W 8766   2.513   4.547   5.235 -0.1651  0.0439  0.1660
 5248W        W 8767   0.549   8.509  10.540 -0.2652 -0.3372  0.0876
 5249W        W 8768   3.064   5.170   0.859  0.2591  0.0501  0.0883
 5250W        W 8769   5.871   7.252   0.655 -0.1048  0.3281  0.0707
 5251W        W 8770   5.062   5.792   1.075 -0.0812 -0.0819 -0.3018
 5252W        W 8771   3.573   8.305   4.007 -0.0896 -0.0015  0.1162
 5253W        W 8772   4.480   3.051   1.544 -0.0280 -0.0610 -0.0797
 5254W        W 8773   4.691   3.870  11.833  0.1631  0.1028  0.0502
 5255W        W 8774   2.120   8.173   8.779 -0.1971 -0.4904  0.2293
 5256W        W 8775   4.987   8.634  11.842  0.1395 -0.0244 -0.2280
 5257W        W 8776   0.572   3.044  10.128  0.1149  0.1309 -0.0505
 5258W        W 8777   9.335   8.649   9.679  0.0024 -0.2376 -0.0353
 5259W        W 8778   8.810   8.669   3.183 -0.1221  0.1709 -0.1003
 5260W        W 8779   9.119   3.967   0.927  0.0462  0.0679  0.0058
 5261W        W 8780   5.926   3.907  11.045 -0.2664  0.2997  0.0038
 5262W        W 8781   4.606   9.637   9.398 -0.2283 -0.1259  0.3078
 5263W        W 8782   7.748   2.457   1.326  0.0668 -0.1593 -0.2338
 5264W        W 8783   9.240   4.044   4.008  0.0060  0.0956 -0.1274
 5265W        W 8784   3.480   3.452   9.308  0.1250 -0.0295  0.1454
 5266W        W 8785   7.790   0.133   2.181  0.1744  0.1029  0.2822
 5267W        W 8786   2.155   2.382  10.445 -0.2578  0.0131  0.1573
 5268W        W 8787   7.389   1.674  11.968 -0.1324  0.1418  0.1890
 5269W        W 8788   1.318   0.390   0.473 -0.1418 -0.1038 -0.0869
 5270W        W 8789   1.887   3.143  10.954 -0.2963 -0.0318  0.1609
 5271W        W 8790   3.408   7.036   9.688 -0.2281 -0.0003  0.1816
 5272W        W 8791   0.295   0.304   9.094 -0.2628 -0.0648  0.0852
 5273W        W 8792   7.690   6.494   0.789 -0.4324  0.1949 -0.2729
 5274W        W 8793   8.714   4.136  10.500  0.0372 -0.1355 -0.0058
 5275W        W 8794   0.919   3.115  12.245 -0.0006  0.1409  0.0116
 5276W        W 8795   0.385   5.121   8.220  0.1013 -0.1195 -0.0853
 5277W        W 8796   2.288   8.543   3.068  0.2963 -0.2009 -0.0652
 5278W        W 8797   4.196   8.074  10.043 -0.3352  0.1419 -0.4451
 5279W        W 8798   4.707   6.873   0.049 -0.2098 -0.0196 -0.0145
 5280W        W 8799   8.469   6.321  10.354 -0.3233  0.0695 -0.1795
 5281W        W 8800   5.412   1.629  10.663 -0.4132 -0.0062  0.2008
 5282W        W 8801   7.948   5.226   3.106  0.1624  0.1280  0.4747
 5283W        W 8802   2.162   4.232  12.090 -0.2167  0.1709  0.0420
 5284W        W 8803   4.951   1.977   8.350  0.0185  0.0055  0.2524
 5285W        W 8804   2.511   9.507   4.927 -0.2638  0.0920 -0.0697
 5286W        W 8805   1.681   2.083   2.677  0.1286  0.0415 -0.1953
 5287W        W 8806   1.556   4.197  12.258  0.0469 -0.1073 -0.0955
 5288W        W 8807   8.599   8.207   1.280  0.0746  0.2217 -0.1595
 5289W        W 8808   6.229   2.980  11.512  0.1760 -0.0260  0.0360
 5290W        W 8809   2.745   2.467   1.249 -0.0996 -0.1903 -0.1446
 5291W        W 8810   2.208   6.194   0.525 -0.1658  0.3649  0.1411
 5292W        W 8811   0.591   9.304  11.418  0.1209  0.2781 -0.1284
 5293W        W 8812   3.026   5.914  10.498  0.0070  0.2665  0.2173
 5294W        W 8813   4.389   2.074   2.231 -0.0871  0.1888 -0.3881
 5295W        W 8814   2.867   7.370  11.043  0.2337 -0.1497 -0.1982
 5296W        W 8815   0.134   5.657  10.205 -0.2531 -0.3337  0.0033
 5297W        W 8816   4.967   3.433  11.709 -0.2203  0.4854 -0.3449
 5298W        W 8817   6.352   4.268   0.337 -0.2748 -0.0708 -0.1558
 5299W        W 8818   0.295   4.357   8.755 -0.2323 -0.0429  0.0010
 5300W        W 8819   5.095   7.743   9.700  0.0246 -0.3383  0.1194
 5301W        W 8820   2.466   5.586   9.486  0.3151  0.1483  0.4074
 5302W        W 8821   5.608   0.271   9.051  0.0690 -0.3070  0.1555
 5303W        W 8822   5.723   6.336   4.171 -0.0010 -0.2033  0.2321
 5304W        W 8823   4.879   3.825  11.066  0.1792 -0.2842  0.3663
 5305W        W 8824   7.157   9.599  10.273  0.0087 -0.2410 -0.0089
 5306W        W 8825   8.124   2.661  10.187 -0.0923 -0.0968 -0.0008
 5307W        W 8826   8.451   2.457   4.102  0.3371  0.0555  0.1095
 5308W        W 8827   1.954   8.659   8.726  0.0908  0.1302  0.1223
 5309W        W 8828   1.678   2.536  10.100  0.0772 -0.2069 -0.3051
 5310W        W 8829   1.813   7.400   9.113 -0.1883 -0.0076 -0.0204
 5311W        W 8830   7.789   2.261   2.129 -0.1075  0.0035 -0.0023
 5312W        W 8831   6.452   0.980   0.467  0.0809  0.0862  0.1008
 5313W        W 8832   2.190   0.546   4.302 -0.1841  0.1395 -0.1076
 5314W        W 8833   5.320   1.931   2.485 -0.2284  0.0235  0.0523
 5315W        W 8834   3.530   3.513  11.025  0.0052 -0.5072 -0.1115
 5316W        W 8835   1.726   2.960   3.643  0.0680 -0.1196  0.2304
 5317W        W 8836   2.349   8.886  12.570  0.3173  0.1873 -0.1678
 5318W        W 8837   1.819   6.547   4.307 -0.0041  0.0043 -0.0401
 5319W        W 8838   2.959   0.888   8.876  0.4514  0.1184  0.2197
 5320W        W 8839   5.138   9.194   2.189 -0.3394  0.2632  0.0117
 5321W        W 8840   4.924   2.487   8.442  0.2475 -0.0001 -0.1241
 5322W        W 8841   7.392   4.486   2.571  0.1594  0.1161  0.0900
 5323W        W 8842   0.409   2.048   3.413  0.3920  0.1427 -0.0684
 5324W        W 8843   4.374   2.085   1.316 -0.1918  0.1047 -0.2079
 5325W        W 8844   2.110   2.625   1.398  0.1484 -0.3112 -0.0858
 5326W        W 8845   3.528   7.810   2.412 -0.1249  0.0150 -0.1429
 5327W        W 8846   5.406   3.697   2.151 -0.0697 -0.1183 -0.0592
 5328W        W 8847   1.166   0.665  10.693 -0.1514  0.1072  0.2149
 5329W        W 8848   8.152   5.356   2.092 -0.0695  0.3521  0.1445
 5330W        W 8849   8.716   4.375  11.968 -0.1139 -0.0650 -0.3532
 5331W        W 8850   9.587   7.788   2.365  0.1105 -0.5706  0.0714
 5332W        W 8851   2.874   6.328   3.211  0.1930  0.1211  0.2071
 5333W        W 8852   5.114   6.980  11.174  0.2681  0.0166 -0.1448
 5334W        W 8853   9.017   8.463   0.562  0.1959 -0.2886 -0.2803
 5335W        W 8854   1.094   1.788   9.282 -0.5387 -0.1515  0.0260
 5336W        W 8855   4.181   1.241  10.323  0.0883  0.2430  0.0202
 5337W        W 8856   4.066   9.097   8.754  0.0738 -0.3043  0.1285
 5338W        W 8857   2.208   1.066   3.644 -0.0113 -0.3861 -0.2855
 5339W        W 8858   2.691   1.826   2.531  0.1425  0.1790  0.0445
 5340W        W 8859   3.732   8.609  11.824 -0.1465  0.0166 -0.0494
 5341W        W 8860   0.446   3.683   0.012 -0.0047  0.2428  0.1839
 5342W        W 8861   3.014   5.948   2.914  0.2843 -0.0191 -0.0667
 5343W        W 8862   8.676   1.445  11.617 -0.2784 -0.2402 -0.2993
 5344W        W 8863   6.831   2.170   2.104 -0.0239 -0.2191  0.0647
 5345W        W 8864   0.062   2.790   9.561  0.0948  0.0733  0.1206
 5346W        W 8865   9.140   4.307   1.372  0.0299  0.4114 -0.0179
 5347W        W 8866   1.461   3.272   2.158 -0.1633 -0.2217  0.1055
 5348W        W 8867   1.275   3.210  10.924 -0.0425  0.2962 -0.1476
 5349W        W 8868   8.843   6.244  12.080 -0.0808 -0.1022  0.3561
 5350W        W 8869   0.840   1.408   2.732 -0.1044  0.1165  0.1063
 5351W        W 8870   8.669   2.257  12.562  0.2142  0.2159  0.1068
 5352W        W 8871   9.274   5.149   9.984  0.1814 -0.0160 -0.1194
 5353W        W 8872   0.611   6.270  12.296 -0.2183 -0.0319 -0.4291
 5354W        W 8873   4.882   0.897  11.943  0.1528  0.2298 -0.2582
 5355W        W 8874   3.821   5.208  11.066 -0.4062  0.0934  0.1841
 5356W        W 8875   4.777   9.626   1.086  0.1528 -0.1845  0.0746
 5357W        W 8876   6.864   9.476   3.288  0.2105  0.1656  0.3212
 5358W        W 8877   1.581   0.119   1.201 -0.1161  0.3947  0.0056
 5359W        W 8878   4.725   6.640  11.218  0.1664  0.1492  0.1527
 5360W        W 8879   2.691   5.757   3.225  0.0946  0.0575 -0.4040
 5361W        W 8880   2.761   8.155   2.807 -0.3255 -0.2239 -0.1454
 5362W        W 8881   8.036   8.272   0.445 -0.0198  0.1995 -0.1643
 5363W        W 8882   6.637   8.846   4.118  0.1191 -0.0748  0.4649
 5364W        W 8883   8.854   4.557   1.001  0.1612  0.0292 -0.0153
 5365W        W 8884   8.325   2.769   3.099 -0.2267  0.1262  0.0273
 5366W        W 8885   0.065   1.602  12.368 -0.7166  0.0976 -0.0056
 5367W        W 8886   2.715   6.664   3.546 -0.1223 -0.3217 -0.2852
 5368W        W 8887   6.585   6.382   9.752 -0.2106 -0.4829 -0.0022
 5369W        W 8888   1.909   0.980   8.717  0.1665  0.0179 -0.0575
 5370W        W 8889   6.848   3.775  10.544  0.2090  0.2260  0.2981
 5371W        W 8890   6.960   0.584  11.197  0.0322 -0.3834  0.2786
 5372W        W 8891   7.308   5.495  12.167  0.1099  0.1092 -0.0184
 5373W        W 8892   5.125   8.715   8.970 -0.3767 -0.2111 -0.1003
 5374W        W 8893   6.383   7.841   2.271  0.3165  0.1396  0.0955
 5375W        W 8894   6.112   7.221   9.499 -0.0138 -0.0744 -0.0742
 5376W        W 8895   0.987   4.098  12.456 -0.0784 -0.0010 -0.1713
 5377W        W 8896   0.523   3.820   3.772 -0.2481  0.2488 -0.1423
 5378W        W 8897   1.984   7.843   0.313  0.1214 -0.1231 -0.1023
 5379W        W 8898   7.946   1.671   1.641  0.0827  0.0478  0.2668
 5380W        W 8899   4.240   5.175   2.756 -0.0484  0.2325 -0.3080
 5381W        W 8900   5.225   5.657  11.776  0.0669  0.1038  0.1365
 5382W        W 8901   1.237   5.214   2.518 -0.0944 -0.1958  0.0553
 5383W        W 8902   9.427   4.446   0.229 -0.0108  0.0812 -0.0940
 5384W        W 8903   0.066   2.870  11.294 -0.1590  0.1232  0.1805
 5385W        W 8904   8.922   8.105   9.161  0.4879  0.1068  0.1490
 5386W        W 8905   8.102   4.873   9.393 -0.0076 -0.3161 -0.1076
 5387W        W 8906   8.511   0.040   3.422  0.1500  0.2059 -0.0045
 5388W        W 8907   2.430   9.491   3.284  0.1130 -0.1494 -0.0450
 5389W        W 8908   4.212   6.391   0.172 -0.0329 -0.0167  0.1883
 5390W        W 8909   7.467   8.707  10.156 -0.0354  0.1056  0.1956
 5391W        W 8910   4.399   8.021   0.933 -0.0178 -0.3637  0.0532
 5392W        W 8911   2.218   5.443  10.682 -0.1095 -0.1148 -0.1244
 5393W        W 8912   3.104   9.142   2.681  0.0749  0.2333 -0.0855
 5394W        W 8913   3.374   9.294  11.318  0.1416 -0.0641 -0.2753
 5395W        W 8914   0.537   6.574   4.219  0.3042 -0.3105 -0.1903
 5396W        W 8915   3.939   7.262   1.722 -0.0658 -0.0271 -0.0418
 5397W        W 8916   6.746   3.663   2.455 -0.3394  0.2733  0.1359
 5398W        W 8917   1.624   7.400  10.518 -0.1281  0.0293 -0.1036
 5399W        W 8918   8.636   9.342   0.488  0.2363 -0.3191  0.0015
 5400W        W 8919   2.371   7.382   9.217  0.0151  0.1305 -0.0076
 5401W        W 8920   9.505   6.900   1.135 -0.2047 -0.1545  0.0991
 5402W        W 8921   4.461   7.847   4.415  0.0035 -0.0292 -0.0210
 5403W        W 8922   5.305   1.926   8.767 -0.2257 -0.0653 -0.2805
 5404W        W 8923   3.396   7.945   3.753  0.0708  0.0219  0.2376
 5405W        W 8924   4.519   5.605   2.662  0.2433  0.1384  0.0292
 5406W        W 8925   5.256   5.036  11.774  0.1317  0.4430 -0.1174
 5407W        W 8926   9.662   1.403   2.655 -0.1112  0.2359 -0.1894
 5408W        W 8927   5.525   8.547   0.037 -0.1657  0.0140  0.0269
 5409W        W 8928   6.153   8.165   1.490  0.1766  0.0681 -0.1814
 5410W        W 8929   3.527   5.579   0.253  0.1864 -0.0309 -0.5312
 5411W        W 8930   1.360   6.059   3.626  0.4630 -0.0336  0.1470
 5412W        W 8931   2.041   2.353   2.854  0.3170 -0.0685 -0.2425
 5413W        W 8932   4.108   1.967   9.189 -0.0129  0.4534 -0.1037
 5414W        W 8933   7.842   0.403  12.221  0.0969 -0.2144  0.0523
 5415W        W 8934   5.012   5.456  10.977 -0.2243  0.0558 -0.1353
 5416W        W 8935   0.113   8.039   1.947 -0.1770 -0.0935 -0.1269
 5417W        W 8936   3.539   4.392   3.914 -0.1755  0.2641  0.3364
 5418W        W 8937   3.905   7.909   4.163 -0.0953  0.0466  0.0230
 5419W        W 8938   2.209   1.916   2.526  0.0064 -0.1001  0.1255
 5420W        W 8939   0.127   1.697  10.332 -0.1614 -0.1172 -0.0185
 5421W        W 8940   6.955   8.069   3.463  0.2018 -0.2809 -0.0105
 5422W        W 8941   1.053   2.591  12.288  0.0691 -0.2475 -0.0947
 5423W        W 8942   0.101   5.441   1.774 -0.1747  0.1923 -0.2989
 5424W        W 8943   5.791   8.616   1.702  0.2969  0.1424 -0.1655
 5425W        W 8944   2.549   3.862   9.837 -0.0119 -0.0179  0.1741
 5426W        W 8945   4.585   3.153   0.730 -0.0118  0.0329  0.3175
 5427W        W 8946   3.217   1.882  11.509 -0.1931  0.0000 -0.2536
 5428W        W 8947   0.878   6.899   1.836  0.0247 -0.0624 -0.0582
 5429W        W 8948   0.697   3.874   2.186 -0.0145  0.0984  0.2494
 5430W        W 8949   8.958   5.004   2.644  0.0922 -0.0272  0.1736
 5431W        W 8950   8.478   8.674  10.192 -0.1239 -0.1464 -0.4715
 5432W        W 8951   0.247   2.307   2.403  0.4698  0.1889  0.0205
 5433W        W 8952   0.087   5.643   4.696  0.3092  0.0925 -0.3036
 5434W        W 8953   4.551   3.194   2.406  0.0501 -0.0022  0.1210
 5435W        W 8954   8.797   7.796  11.662  0.1650 -0.0879 -0.1792
 5436W        W 8955   8.757   6.937   9.747 -0.2896  0.3362 -0.0693
 5437W        W 8956   3.598   9.528   0.786  0.0979 -0.0471  0.1028
 5438W        W 8957   7.733   8.757   0.273 -0.1731 -0.1248  0.2318
 5439W        W 8958   5.148   0.780   0.723 -0.1411  0.0728  0.1258
 5440W        W 8959   0.896   4.405   9.284 -0.0908 -0.1266 -0.2962
 5441W        W 8960   1.704   1.384  12.240  0.2883  0.1177 -0.1918
 5442W        W 8961   1.053   1.365   0.735  0.3134  0.0142 -0.1059
 5443W        W 8962   2.727   3.429   0.243  0.1824  0.1418  0.1176
 5444W        W 8963   3.692   7.154   1.319  0.2389 -0.0713 -0.2221
 5445W        W 8964   3.018   4.311   1.378 -0.0761 -0.1320  0.2173
 5446W        W 8965   4.077   0.513  11.458  0.0546 -0.1013  0.0848
 5447W        W 8966   6.855   9.311  11.422  0.3153  0.2300  0.1804
 5448W        W 8967   0.131   6.453   1.308  0.0995  0.1884  0.0821
 5449W        W 8968   3.468   5.848  12.429  0.0907 -0.2742 -0.2094
 5450W        W 8969   2.563   6.244   0.151 -0.0885 -0.0170  0.2446
 5451W        W 8970   5.123   0.122   9.422  0.2783  0.1294  0.3305
 5452W        W 8971   5.469   1.969  12.415 -0.0150  0.3307 -0.1067
 5453W        W 8972   5.983   5.863   9.803  0.1797  0.4695 -0.0908
 5454W        W 8973   1.064   5.701   9.083 -0.1614 -0.1318 -0.0136
 5455W        W 8974   6.050   9.360   2.389  0.0597 -0.0898  0.2398
 5456W        W 8975   3.809   8.298   8.483  0.2457 -0.1779  0.1227
 5457W        W 8976   3.916   8.149   3.705 -0.1840 -0.0434 -0.1473
 5458W        W 8977   3.912   9.235   1.678 -0.3202  0.2497  0.1610
 5459W        W 8978   5.114   6.365  10.629  0.0638 -0.1439  0.0147
 5460W        W 8979   6.367   4.786  12.191 -0.2190  0.3292  0.3147
 5461W        W 8980   6.283   6.928  12.271  0.4781 -0.1464  0.1955
 5462W        W 8981   6.937   1.076   2.153 -0.0713  0.0444  0.3808
 5463W        W 8982   4.569   2.658   2.236  0.2805  0.2167  0.0617
 5464W        W 8983   0.050   5.262  10.955 -0.1254  0.0935 -0.0089
 5465W        W 8984   0.942   6.828   3.991 -0.1821 -0.0907  0.0060
 5466W        W 8985   2.646   5.392   0.359 -0.0806 -0.2930  0.1845
 5467W        W 8986   7.388   0.444   2.185 -0.1087  0.2812  0.0629
 5468W        W 8987   5.279   8.308  10.860 -0.0123  0.0098 -0.0830
 5469W        W 8988   4.252   5.773   9.724  0.0435  0.2135 -0.2541
 5470W        W 8989   5.077   5.994   8.149 -0.0983  0.1890 -0.1496
 5471W        W 8990   4.575   5.671   8.734  0.2216 -0.3311 -0.0724
 5472W        W 8991   2.789   5.680   1.960  0.0494  0.0029  0.0735
 5473W        W 8992   0.461   7.526   0.859 -0.0948 -0.1035 -0.5075
 5474W        W 8993   3.358   8.606  11.519 -0.0886  0.1150 -0.3033
 5475W        W 8994   7.526   9.289  12.480  0.1285  0.2315 -0.3027
 5476W        W 8995   6.791   8.847   2.659  0.4253 -0.1598 -0.1506
 5477W        W 8996   6.346   7.515   9.872 -0.0181  0.3083  0.0810
 5478W        W 8997   1.638   9.039   3.438  0.2086  0.0840 -0.1123
 5479W        W 8998   7.026   7.583   3.641  0.4063 -0.0201  0.1391
 5480W        W 8999   3.575   6.131   1.540  0.3376  0.1560  0.2915
 5481W        W 9000   3.890   0.054   3.315  0.2756 -0.0115  0.0165
 5482W        W 9001   0.948   3.068   3.350  0.2620 -0.2266 -0.1465
 5483W        W 9002   2.933   7.933  11.937  0.0559  0.2752 -0.1749
 5484W        W 9003   8.735   4.655  10.592  0.0027  0.3027  0.1095
 5485W        W 9004   7.273   8.173   2.544  0.1266 -0.1211 -0.2114
 5486W        W 9005   8.581   5.368  12.286 -0.2547  0.3207 -0.3030
 5487W        W 9006   7.645   2.896   1.589 -0.1256  0.0669  0.2661
 5488W        W 9007   3.235   2.814   1.109  0.0547 -0.0752 -0.3226
 5489W        W 9008   5.594   0.108  10.776 -0.2336  0.0735 -0.1802
 5490W        W 9009   2.540   5.238   3.135  0.3105  0.0931 -0.3819
 5491W        W 9010   2.845   3.835   1.503 -0.2297 -0.1476 -0.3174
 5492W        W 9011   8.321   4.436   1.093 -0.2081 -0.1103 -0.0124
 5493W        W 9012   0.957   2.560   1.210 -0.4981  0.0326 -0.1558
 5494W        W 9013   6.960   7.137   9.119  0.2484  0.1138 -0.1620
 5495W        W 9014   2.667   2.226   0.808  0.1356 -0.0535 -0.4433
 5496W        W 9015   7.400   4.461  12.110  0.1084  0.0049  0.1355
 5497W        W 9016   0.625   1.008   2.902 -0.2838  0.0399  0.1979
 5498W        W 9017   2.912   8.368   0.345 -0.3456  0.2377  0.0692
 5499W        W 9018   9.448   9.465   3.120 -0.1093  0.2950  0.1507
 5500W        W 9019   2.401   6.012   1.881  0.0682 -0.3351  0.0106
 5501W        W 9020   5.888   8.281  10.126 -0.1814 -0.2936 -0.1251
 5502W        W 9021   3.727   0.366   1.988 -0.0460 -0.1206  0.0375
 5503W        W 9022   7.295   1.411   3.614  0.2018 -0.3531  0.1943
 5504W        W 9023   9.389   5.894   2.944 -0.1694 -0.2748 -0.4112
 5505W        W 9024   1.120   8.912   9.737  0.3156  0.0015 -0.1047
 5506W        W 9025   5.831   5.204  10.433  0.1559 -0.0796  0.3622
 5507W        W 9026   7.145   4.679   1.705 -0.0303 -0.1056  0.2477
 5508W        W 9027   2.594   0.443   2.548  0.0495  0.2379  0.0058
 5509W        W 9028   9.483   2.471   9.823 -0.2384 -0.1896  0.0368
 5510W        W 9029   5.816   0.520   1.949 -0.1416 -0.1746  0.5198
 5511W        W 9030   2.483   6.535  11.528 -0.3314  0.0299 -0.3872
 5512W        W 9031   8.324   8.616  11.265 -0.0107  0.0363 -0.1053
 5513W        W 9032   6.164   0.406   9.499  0.0445  0.1328 -0.5278
 5514W        W 9033   7.272   3.799   3.659 -0.1655  0.1929  0.1485
 5515W        W 9034   1.624   2.595   1.376  0.0788  0.0873 -0.1618
 5516W        W 9035   0.786   5.903   9.485 -0.3097 -0.2408 -0.0613
 5517W        W 9036   5.319   1.389  11.690  0.2380  0.0024 -0.0489
 5518W        W 9037   7.285   6.932   3.738 -0.0510  0.1571  0.1915
 5519W        W 9038   1.663   4.952   2.694 -0.1812 -0.0804 -0.0214
 5520W        W 9039   1.299   3.282   3.752 -0.0876 -0.0228  0.1178
 5521W        W 9040   0.380   6.042   4.673 -0.0919 -0.1277  0.1613
 5522W        W 9041   0.201   4.321   0.435 -0.2521 -0.0073 -0.0329
 5523W        W 9042   6.759   0.125   1.028  0.0614  0.1004 -0.0544
 5524W        W 9043   8.562   7.376   9.551 -0.1602 -0.0089  0.1673
 5525W        W 9044   8.578   8.257   9.944 -0.2024  0.1859 -0.0903
 5526W        W 9045   3.858   0.193  12.426  0.1244 -0.3870 -0.2371
 5527W        W 9046   0.924   1.020  10.382 -0.1284 -0.0021 -0.0942
 5528W        W 9047   0.648   2.224   0.390  0.0827 -0.2897 -0.2443
 5529W        W 9048   7.771   9.360   3.643  0.0886  0.3585 -0.0175
 5530W        W 9049   9.637   9.176  10.192  0.0475  0.3051 -0.0055
 5531W        W 9050   1.437   6.745  11.966 -0.2077 -0.0251 -0.2387
 5532W        W 9051   6.374   9.001   2.239  0.1488  0.1910 -0.3748
 5533W        W 9052   1.692   2.321   0.018 -0.2235 -0.0683 -0.0857
 5534W        W 9053   1.032   3.562   0.866 -0.0607 -0.3490 -0.0492
 5535W        W 9054   4.384   7.147  10.025  0.0640 -0.0262 -0.1082
 5536W        W 9055   8.527   3.987   0.192 -0.1498 -0.2364 -0.0354
 5537W        W 9056   6.881   7.697   2.276 -0.0721 -0.1153  0.3311
 5538W        W 9057   1.899   6.699   9.920  0.0792  0.2187  0.1869
 5539W        W 9058   5.015   7.009   8.764 -0.0527  0.0408  0.1036
 5540W        W 9059   8.826   2.239   1.785  0.2838  0.1283  0.0527
 5541W        W 9060   1.733   8.687  11.819 -0.1057  0.1970  0.1383
 5542W        W 9061   5.895   6.456  11.493 -0.0993 -0.2406 -0.0577
 5543W        W 9062   2.728   7.994  11.105  0.1110 -0.0538 -0.1407
 5544W        W 9063   9.663   3.669  11.273  0.1449 -0.0702  0.1024
 5545W        W 9064   1.022   4.010   1.607 -0.2011 -0.0844 -0.1793
 5546W        W 9065   2.358   4.169   0.468 -0.1879 -0.0095  0.0761
 5547W        W 9066   7.103   0.496   3.142 -0.0503 -0.0306  0.1003
 5548W        W 9067   4.408   4.065   0.126  0.1936 -0.0435  0.0694
 5549W        W 9068   2.792   7.742  11.537 -0.2620 -0.0009  0.1234
 5550W        W 9069   1.726   2.087   4.700 -0.2396 -0.0013 -0.0762
 5551W        W 9070   7.035   2.415   9.908 -0.0210 -0.1022 -0.0634
 5552W        W 9071   7.849   1.435   2.128 -0.2593  0.0206  0.0393
 5553W        W 9072   4.504   3.373  11.845 -0.0692 -0.3356  0.0930
 5554W        W 9073   2.595   8.803  11.545  0.0060 -0.0392  0.0096
 5555W        W 9074   0.578   3.721   3.070  0.1621 -0.2842 -0.0207
 5556W        W 9075   3.245   5.154   0.375 -0.0775  0.1406  0.0013
 5557W        W 9076   5.742   5.867   4.305  0.1562 -0.1974  0.0795
 5558W        W 9077   7.224   0.826  10.812  0.0381 -0.1784  0.1228
 5559W        W 9078   3.073   2.950   4.401  0.0321 -0.0690  0.3414
 5560W        W 9079   6.013   2.387   0.658 -0.0654  0.1342 -0.0139
 5561W        W 9080   0.836   5.331  10.301 -0.1533 -0.0562 -0.3410
 5562W        W 9081   7.138   7.318   0.009 -0.0533 -0.0188  0.0075
 5563W        W 9082   6.513   3.189   0.152 -0.1119  0.0618 -0.1138
 5564W        W 9083   5.332   8.875  10.816 -0.0554  0.3059 -0.0229
 5565W        W 9084   1.558   8.614   1.368  0.2764  0.1663  0.1497
 5566W        W 9085   2.121   8.004   0.747  0.2428 -0.3384 -0.1377
 5567W        W 9086   5.752   8.875   1.238 -0.0735 -0.1685 -0.1971
 5568W        W 9087   5.496   2.654   4.312 -0.1685  0.0591  0.0832
 5569W        W 9088   3.281   7.662  11.185  0.2732 -0.0745  0.0014
 5570W        W 9089   8.598   0.993  10.008  0.2476  0.0690  0.1644
 5571W        W 9090   2.504   0.417   9.681 -0.1472 -0.1271 -0.1442
 5572W        W 9091   4.303   9.365  11.599 -0.1654  0.1228  0.0371
 5573W        W 9092   8.293   7.575  11.727  0.4726  0.1177 -0.0364
 5574W        W 9093   6.561   8.226  11.230 -0.1932  0.2036  0.1538
 5575W        W 9094   0.537   0.862  10.130 -0.2150  0.0161 -0.2893
 5576W        W 9095   5.188   3.537  11.259 -0.0074 -0.1795 -0.1234
 5577W        W 9096   9.510   6.112   3.891 -0.1256  0.1733  0.4535
 5578W        W 9097   7.519   3.760  11.828 -0.2006  0.0721  0.0883
 5579W        W 9098   2.758   4.024   8.802 -0.0632 -0.4414 -0.0127
 5580W        W 9099   4.529   1.785  10.392 -0.1012 -0.0401 -0.0408
 5581W        W 9100   4.067   3.209   9.115 -0.0692 -0.0092  0.1123
 5582W        W 9101   4.850   0.274   9.803 -0.1113  0.1251 -0.0378
 5583W        W 9102   2.187   6.794   4.459 -0.0888 -0.0550 -0.0365
 5584W        W 9103   2.146   1.838  10.339  0.2998 -0.4519  0.0458
 5585W        W 9104   0.267   5.329   4.086  0.0929  0.1215 -0.1914
 5586W        W 9105   0.000   3.404  12.346  0.1704  0.0585 -0.2055
 5587W        W 9106   8.581   8.943   1.380 -0.2566  0.0572 -0.0278
 5588W        W 9107   3.731   8.225  10.105 -0.0395  0.0942 -0.1533
 5589W        W 9108   8.469   4.075   2.768  0.3513 -0.0660 -0.0320
 5590W        W 9109   4.499   0.724  12.431  0.0188  0.0051  0.1185
 5591W        W 9110   0.538   8.589   2.350 -0.0863 -0.1961 -0.5219
 5592W        W 9111   1.550   1.373  11.228  0.2149  0.1003 -0.1475
 5593W        W 9112   7.955   9.571  11.679 -0.3332 -0.0345  0.0219
 5594W        W 9113   2.551   2.714  11.147  0.2564 -0.3202  0.0760
 5595W        W 9114   0.141   8.752  10.600 -0.1725 -0.0198  0.1255
 5596W        W 9115   5.992   3.399  11.583 -0.1461  0.0041 -0.0887
 5597W        W 9116   0.438   7.810   7.850  0.2060  0.1983 -0.0463
 5598W        W 9117   9.469   6.252  11.437  0.0844 -0.2078  0.2551
 5599W        W 9118   2.140   3.383  12.439  0.0004  0.1984  0.0215
 5600W        W 9119   3.442   2.123   2.362  0.1370 -0.1924 -0.0787
 5601W        W 9120   5.855   0.751   3.972 -0.2664  0.0360  0.0955
 5602W        W 9121   4.750   0.714   8.832  0.2142  0.0593  0.1024
 5603W        W 9122   6.846   9.249   1.880 -0.0239 -0.0738 -0.0977
 5604W        W 9123   7.941   4.571   0.735 -0.1267 -0.0606  0.0558
 5605W        W 9124   7.209   4.882   2.849  0.2515  0.2348 -0.1032
 5606W        W 9125   6.851   1.499   0.285  0.1231  0.0812 -0.3405
 5607W        W 9126   9.120   6.878   2.160 -0.0013  0.3576  0.3348
 5608W        W 9127   1.923   2.553   3.306  0.0399 -0.1264 -0.0904
 5609W        W 9128   3.129   1.335   4.056  0.0475  0.0435  0.1664
 5610W        W 9129   1.281   7.654   4.198 -0.2647 -0.2241 -0.2555
 5611W        W 9130   6.631   8.935  11.168  0.1512  0.0228  0.0891
 5612W        W 9131   2.982   2.935   0.253  0.1306  0.2413 -0.0784
 5613W        W 9132   3.546   8.527  12.324  0.1361 -0.2075  0.1414
 5614W        W 9133   7.538   4.260  11.127 -0.0574 -0.0916 -0.0915
 5615W        W 9134   4.642   7.571  12.295 -0.1992 -0.5372  0.3218
 5616W        W 9135   0.156   6.530   1.993  0.0554  0.1799  0.1749
 5617W        W 9136   7.259   2.566   2.944  0.0050  0.0857  0.1155
 5618W        W 9137   3.517   7.851   0.719 -0.2242 -0.0197 -0.4071
 5619W        W 9138   9.419   1.755   1.091  0.1399 -0.1389 -0.3022
 5620W        W 9139   1.042   0.015   1.923  0.0574  0.0788  0.0194
 5621W        W 9140   2.765   8.894  12.102  0.2391  0.1951 -0.1606
 5622W        W 9141   1.640   8.328   3.609  0.1546  0.0882 -0.1319
 5623W        W 9142   3.384   2.952   0.567  0.0374  0.0646  0.1229
 5624W        W 9143   1.815   7.111   2.411  0.0172 -0.1063 -0.3052
 5625W        W 9144   8.310   4.563  11.277  0.1891 -0.1537  0.0170
 5626W        W 9145   3.303   6.369   3.558  0.0032  0.1334  0.2164
 5627W        W 9146   7.962   0.151   3.456 -0.3030 -0.0618  0.0470
 5628W        W 9147   2.428   4.055  10.656 -0.2894  0.2375  0.0198
 5629W        W 9148   4.272   8.563  10.331  0.0420 -0.1689 -0.0299
 5630W        W 9149   2.504   0.948  12.163  0.1550  0.1411  0.2260
 5631W        W 9150   3.162   8.612   4.085  0.1073 -0.2154  0.0159
 5632W        W 9151   5.501   6.106   9.733  0.0843  0.1116  0.0737
 5633W        W 9152   3.726   4.503   9.054  0.0095 -0.1986  0.1359
 5634W        W 9153   8.217   1.527  10.720  0.0040  0.0981  0.1091
 5635W        W 9154   5.842   4.945   9.602  0.0135  0.0450 -0.3106
 5636W        W 9155   9.415   0.408  10.066  0.1463 -0.2992 -0.3512
 5637W        W 9156   4.318   1.613  10.890 -0.2041 -0.1983 -0.0394
 5638W        W 9157   1.752   4.217   9.827  0.1086 -0.2957 -0.0297
 5639W        W 9158   8.492   9.361   8.425 -0.3796 -0.1792 -0.0450
 5640W        W 9159   2.388   2.603  12.098 -0.0692 -0.2242 -0.1727
 5641W        W 9160   2.131   8.958  11.974  0.1302  0.0163 -0.3252
 5642W        W 9161   5.094   4.250  12.022  0.0844  0.0686 -0.0271
 5643W        W 9162   2.816   0.404   0.784  0.1601  0.1725  0.2342
 5644W        W 9163   2.644   9.303   0.845 -0.3202  0.1386 -0.1320
 5645W        W 9164   7.593   2.471   2.578  0.1400  0.1089  0.2146
 5646W        W 9165   0.428   0.717   0.594 -0.1706 -0.1178 -0.4939
 5647W        W 9166   5.450   7.600  12.042 -0.0481  0.1304 -0.2665
 5648W        W 9167   0.480   0.761   1.578 -0.0434 -0.0811 -0.1349
 5649W        W 9168   7.089   0.364  10.726  0.6144 -0.0895  0.2898
 5650W        W 9169   2.380   6.568   3.136 -0.0841  0.0794  0.0737
 5651W        W 9170   0.860   1.720  10.732  0.0443 -0.1559 -0.0762
 5652W        W 9171   1.036   4.645  12.402  0.0941 -0.0903  0.0955
 5653W        W 9172   4.846   1.648  10.775  0.5782 -0.0580  0.1404
 5654W        W 9173   4.920   8.481  10.574 -0.1216  0.3529 -0.0209
 5655W        W 9174   1.426   7.426  10.040 -0.0850 -0.2376  0.1160
 5656W        W 9175   9.588   0.339  12.015 -0.0713  0.4055  0.1245
 5657W        W 9176   4.148   1.599   2.317  0.1052 -0.0642 -0.3389
 5658W        W 9177   4.162   3.499   1.412  0.2595  0.2243  0.2316
 5659W        W 9178   3.844   7.297  12.523 -0.0697  0.2034  0.3639
 5660W        W 9179   1.093   3.333   8.901 -0.1008 -0.0002 -0.1215
 5661W        W 9180   6.674   4.120   8.587  0.1333 -0.0135  0.2953
 5662W        W 9181   4.569   2.110  11.572  0.1155  0.0267  0.1209
 5663W        W 9182   4.936   0.203   1.999 -0.1336  0.1848  0.0449
 5664W        W 9183   6.799   6.773   0.557 -0.4635  0.4038  0.0084
 5665W        W 9184   8.338   7.171  10.162  0.2739 -0.0020  0.1755
 5666W        W 9185   2.142   5.239   0.879 -0.1497  0.0677 -0.0731
 5667W        W 9186   9.371   7.913   8.872  0.1959 -0.2141  0.2108
 5668W        W 9187   0.547   8.964  11.968  0.1662 -0.0021  0.0078
 5669W        W 9188   1.025   0.126   3.335  0.2412 -0.0144 -0.3489
 5670W        W 9189   2.414   2.405   2.124  0.0809  0.1630 -0.2501
 5671W        W 9190   6.329   4.939   2.751  0.0752 -0.2824  0.1676
 5672W        W 9191   6.891   4.400   1.247 -0.1408  0.2199 -0.2178
 5673W        W 9192   0.095   4.946  10.144  0.0447 -0.0771 -0.4579
 5674W        W 9193   4.366   8.956   2.485 -0.0862 -0.3805 -0.2591
 5675W        W 9194   7.258   5.202   2.458  0.1137 -0.0945  0.0575
 5676W        W 9195   7.056   3.500   1.430 -0.1603  0.2341  0.1006
 5677W        W 9196   3.369   6.191   1.046 -0.0894 -0.0417  0.2748
 5678W        W 9197   7.593   6.510  11.985 -0.1885 -0.1830  0.4764
 5679W        W 9198   0.037   8.129   2.854  0.0329 -0.2107 -0.1281
 5680W        W 9199   9.281   4.784   2.362 -0.1874  0.0690 -0.1437
 5681W        W 9200   2.827   1.207  11.857 -0.1144 -0.2127  0.3234
 5682W        W 9201   3.537   1.940   3.509 -0.1108  0.1644  0.1073
 5683W        W 9202   1.990   5.822   9.720  0.0538 -0.0129  0.1231
 5684W        W 9203   7.992   0.955  12.072 -0.0757  0.0328 -0.0805
 5685W        W 9204   1.380   2.285  10.987 -0.0714 -0.1516  0.2850
 5686W        W 9205   7.552   4.895  11.365  0.1122 -0.2307  0.0869
 5687W        W 9206   6.349   4.935  10.290  0.1101 -0.4684  0.2073
 5688W        W 9207   5.648   8.433   8.981  0.1151  0.2430  0.2208
 5689W        W 9208   1.426   3.226   9.728  0.0364  0.0922  0.1513
 5690W        W 9209   5.858   7.193   3.204 -0.2144  0.1565 -0.1842
 5691W        W 9210   1.539   7.596  11.536  0.1401  0.0685 -0.0688
 5692W        W 9211   4.825   0.795  10.647  0.1005 -0.1644  0.1811
 5693W        W 9212   4.845   2.234   1.210 -0.0370  0.0348  0.1609
 5694W        W 9213   4.562   4.431   3.033  0.0621  0.1249 -0.0193
 5695W        W 9214   4.132   7.356  10.951  0.1659 -0.3231  0.2222
 5696W        W 9215   1.672   6.103   4.891 -0.1088 -0.1653  0.2729
 5697W        W 9216   0.512   8.922   0.808  0.2389  0.3240 -0.0114
 5698W        W 9217   9.130   5.922  11.260  0.1781 -0.2619 -0.0517
 5699W        W 9218   1.490   4.274   9.314  0.1385  0.0931  0.0139
 5700W        W 9219   4.079   0.429   3.570  0.0933  0.1333 -0.0728
 5701W        W 9220   2.017   8.979   1.323  0.2432  0.0003  0.2008
 5702W        W 9221   4.783   9.653   8.449 -0.0758  0.0636 -0.1265
 5703W        W 9222   4.719   1.901   1.734  0.1083 -0.2134  0.2641
 5704W        W 9223   0.537   3.294  11.660 -0.1246 -0.1947  0.2637
 5705W        W 9224   0.705   6.390  11.822  0.1104  0.2877 -0.2537
 5706W        W 9225   0.414   5.358   0.809  0.1385 -0.1009 -0.2086
 5707W        W 9226   8.624   6.017   9.420  0.2387 -0.0144 -0.4171
 5708W        W 9227   2.851   4.659   0.716 -0.0484  0.1076  0.1846
 5709W        W 9228   5.442   9.059   1.674 -0.0517  0.3139  0.3165
 5710W        W 9229   3.627   3.175   8.915  0.1269 -0.3232 -0.3535
 5711W        W 9230   4.068   8.487   4.032  0.4164  0.1577  0.4211
 5712W        W 9231   7.121   1.299   2.697 -0.3838  0.1978  0.0811
 5713W        W 9232   6.316   8.047   0.550  0.3094  0.0564 -0.1709
 5714W        W 9233   9.204   7.932   3.692 -0.2248  0.0968  0.0647
 5715W        W 9234   8.219   8.808   3.467  0.1867 -0.2369  0.2058
 5716W        W 9235   5.327   0.034   2.328 -0.0561  0.4355 -0.2899
 5717W        W 9236   1.648   9.390   3.084 -0.1693  0.0645 -0.4499
 5718W        W 9237   4.618   5.992   2.978 -0.3452  0.0771  0.2996
 5719W        W 9238   5.521   1.594   3.596  0.0229  0.0072  0.1872
 5720W        W 9239   2.503   5.786   0.018 -0.2851 -0.0018  0.0912
 5721W        W 9240   2.824   6.901  11.586 -0.3271 -0.0021 -0.4096
 5722W        W 9241   6.040   9.253   1.494 -0.1360 -0.2304  0.1671
 5723W        W 9242   1.369   0.988   0.572  0.1978 -0.0706 -0.0338
 5724W        W 9243   3.653   5.692  11.735  0.1520  0.0888  0.2899
 5725W        W 9244   4.460   8.647   1.044  0.3877  0.2233  0.0136
 5726W        W 9245   8.426   5.934   0.923 -0.0317  0.0927 -0.2228
 5727W        W 9246   0.715   6.724   8.197  0.0350  0.0589  0.0043
 5728W        W 9247   3.684   8.795   4.041 -0.0778 -0.2410 -0.1556
 5729W        W 9248   7.616   8.977   9.714  0.1044  0.1512 -0.0408
 5730W        W 9249   5.890   2.597   0.190  0.1450  0.0198  0.0470
 5731W        W 9250   7.274   6.406  12.346  0.0991 -0.0708  0.0432
 5732W        W 9251   0.097   3.886   9.616  0.3212 -0.3476  0.2505
 5733W        W 9252   0.625   1.994  10.433  0.1623  0.0512 -0.1660
 5734W        W 9253   2.080   4.689   0.193  0.1968 -0.1820  0.0118
 5735W        W 9254   5.468   1.023   2.176 -0.0582  0.1598  0.2265
 5736W        W 9255   8.824   5.803   2.398 -0.0361 -0.0327 -0.0303
 5737W        W 9256   9.245   4.911   0.428  0.1822  0.0284  0.0917
 5738W        W 9257   2.973   3.260   2.060 -0.1783  0.2570  0.0817
 5739W        W 9258   6.585   7.902   8.880  0.3528 -0.1373  0.1526
 5740W        W 9259   7.089   7.109   9.724 -0.1767  0.1984 -0.1903
 5741W        W 9260   2.055   5.147  10.311 -0.0975 -0.2764  0.1354
 5742W        W 9261   1.614   1.912   9.064 -0.0072 -0.1848  0.2664
 5743W        W 9262   2.650   6.976   0.292  0.0977  0.2745 -0.2693
 5744W        W 9263   5.289   0.800   4.459  0.0782 -0.0379  0.2681
 5745W        W 9264   4.739   2.081  10.026  0.1133  0.1054 -0.1443
 5746W        W 9265   3.455   8.846   3.589  0.1546 -0.3341 -0.2513
 5747W        W 9266   8.533   5.857   8.607  0.1287  0.1698  0.1979
 5748W        W 9267   8.035   5.536   9.956 -0.2448 -0.2856  0.3278
 5749W        W 9268   5.558   0.383  10.327 -0.1653 -0.0530  0.0963
 5750W        W 9269   2.330   0.260   9.189 -0.0782 -0.0729  0.0145
 5751W        W 9270   5.317   1.790   3.078 -0.2858  0.0878  0.0830
 5752W        W 9271   1.308   4.639   9.658  0.0940  0.1546 -0.1215
 5753W        W 9272   9.196   4.489  11.595 -0.3264 -0.1256  0.1310
 5754W        W 9273   9.567   2.630   2.279  0.1481  0.2105  0.2463
 5755W        W 9274   4.154   5.865   8.926 -0.1690 -0.0777  0.0493
 5756W        W 9275   6.190   0.288  11.750 -0.1952 -0.0569  0.1338
 5757W        W 9276   4.804   7.816   3.961 -0.0024  0.0529  0.0355
 5758W        W 9277   9.072   1.420  10.833 -0.2227  0.0077 -0.3832
 5759W        W 9278   2.168   9.607   1.012 -0.0220  0.2631  0.2888
 5760W        W 9279   8.695   7.652  10.852  0.0825  0.4849 -0.0130
 5761W        W 9280   2.612   9.091   9.296 -0.3072 -0.4585  0.0122
 5762W        W 9281   9.601   3.262  10.972 -0.0249 -0.0454  0.1229
 5763W        W 9282   5.437   5.446   2.566 -0.1514  0.0867 -0.0218
 5764W        W 9283   4.490   2.039   0.361 -0.2065 -0.2574 -0.1160
 5765W        W 9284   0.593   1.582  12.315  0.1932 -0.2292 -0.1103
 5766W        W 9285   0.188   9.067   3.046 -0.2238  0.0615 -0.1347
 5767W        W 9286   2.261   7.501   3.676 -0.0077 -0.0115 -0.2799
 5768W        W 9287   1.339   2.506  10.491 -0.0686  0.2188  0.1867
 5769W        W 9288   7.074   6.182  11.622  0.0355  0.0087 -0.1154
 5770W        W 9289   2.084   5.138  11.553  0.1425  0.1286 -0.0372
 5771W        W 9290   8.100   5.088   8.946 -0.0490  0.0055 -0.3453
 5772W        W 9291   1.124   1.592   1.205  0.2291 -0.5164 -0.0997
 5773W        W 9292   1.731   5.386  10.788 -0.2186 -0.1346  0.1686
 5774W        W 9293   6.021   2.430   2.278  0.2855 -0.0851 -0.0785
 5775W        W 9294   9.162   4.438   4.284 -0.1936  0.5164  0.3394
 5776W        W 9295   5.889   1.004   9.443 -0.3304 -0.1526 -0.0491
 5777W        W 9296   6.948   2.319  12.215 -0.1530  0.0505  0.4645
 5778W        W 9297   3.045   3.615  12.016 -0.1725 -0.2763  0.0028
 5779W        W 9298   1.970   3.158  11.505 -0.1870 -0.3004 -0.1223
 5780W        W 9299   7.203   6.677  10.956 -0.0420 -0.2378  0.0764
 5781W        W 9300   0.909   3.089  10.561 -0.0881 -0.0630 -0.1149
 5782W        W 9301   4.313   0.244   3.029 -0.0180  0.0252 -0.0958
 5783W        W 9302   9.141   6.825  11.487  0.2434 -0.0201  0.0994
 5784W        W 9303   8.343   3.597  12.517 -0.1625  0.2148  0.0233
 5785W        W 9304   5.819   5.561   2.941 -0.1525  0.2004  0.3082
 5786W        W 9305   9.663   7.601   9.209  0.1482 -0.1302 -0.3789
 5787W        W 9306   4.143   7.411  11.540 -0.1018 -0.3999  0.0725
 5788W        W 9307   0.551   0.939   9.636 -0.0832 -0.0141  0.0210
 5789W        W 9308   2.869   0.320   8.873  0.0919 -0.1329  0.0160
 5790W        W 9309   6.419   9.475  12.567  0.1253 -0.1820 -0.1504
 5791W        W 9310   7.303   8.244  12.519  0.5208 -0.0543  0.0010
 5792W        W 9311   3.646   0.727   4.401 -0.1939 -0.0077 -0.0602
 5793W        W 9312   3.390   4.562  11.765 -0.1795  0.1795  0.0670
 5794W        W 9313   0.511   8.064   4.310 -0.2273  0.1634  0.0313
 5795W        W 9314   4.926   1.268   9.509  0.0121 -0.3718  0.0866
 5796W        W 9315   9.187   4.787   9.316  0.1837  0.1045  0.0521
 5797W        W 9316   1.467   7.177   3.283 -0.2083 -0.1505 -0.1501
 5798W        W 9317   1.988   3.767   2.708  0.0738 -0.0485 -0.0787
 5799W        W 9318   5.992   3.140   0.224 -0.0340 -0.3098  0.1170
 5800W        W 9319   1.680   5.009   8.927  0.2679  0.0830 -0.1133
 5801W        W 9320   7.522   0.494   0.046  0.1392  0.1336  0.1263
 5802W        W 9321   3.481   4.699   4.344 -0.0088 -0.1507  0.2001
 5803W        W 9322   5.627   0.591   3.535 -0.0759  0.1640 -0.0689
 5804W        W 9323   5.518   2.326   2.084 -0.4206  0.0598  0.3921
 5805W        W 9324   2.022   7.287   2.000  0.0796 -0.0252  0.0125
 5806W        W 9325   2.722   2.854   2.253 -0.2206  0.0281  0.0011
 5807W        W 9326   9.542   5.176   0.027 -0.0333  0.1128 -0.1850
 5808W        W 9327   9.008   7.350  11.570  0.0102 -0.1087 -0.1330
 5809W        W 9328   8.053   4.832   0.247  0.1504  0.0948  0.3083
 5810W        W 9329   4.831   1.201  12.434 -0.1981  0.4272  0.2200
 5811W        W 9330   1.289   1.007   1.105  0.1203 -0.0350 -0.2941
 5812W        W 9331   7.031   6.229  10.652  0.1674 -0.1084 -0.3062
 5813W        W 9332   5.521   1.648   0.310  0.1981  0.2057 -0.2751
 5814W        W 9333   1.221   0.440   3.641  0.0780 -0.0149 -0.1000
 5815W        W 9334   8.277   0.430  10.659 -0.3766 -0.1510  0.2486
 5816W        W 9335   0.032   6.649  11.174 -0.0246 -0.2239  0.3127
 5817W        W 9336   6.388   6.183  12.089 -0.1107 -0.0281  0.0192
 5818W        W 9337   3.300   2.578   9.324  0.2647 -0.0782 -0.0097
 5819W        W 9338   3.267   5.975   9.537  0.2441  0.1050 -0.1978
 5820W        W 9339   0.249   8.276   3.383 -0.0936  0.0698 -0.0657
 5821W        W 9340   3.991   9.033  12.156 -0.0632 -0.3493 -0.3458
 5822W        W 9341   6.542   1.123   2.442 -0.0018  0.1996 -0.0129
 5823W        W 9342   8.251   6.374  11.377  0.0761 -0.1595  0.0527
 5824W        W 9343   6.973   8.909   0.740  0.1857  0.5357 -0.2064
 5825W        W 9344   0.092   4.486   3.205 -0.0596 -0.0286  0.1591
 5826W        W 9345   8.814   2.940  10.405 -0.0450 -0.0705 -0.1453
 5827W        W 9346   1.760   8.854   0.082  0.3016 -0.1800 -0.3228
 5828W        W 9347   7.403   3.001  10.494 -0.1991  0.1505 -0.0047
 5829W        W 9348   9.030   3.415   3.560  0.0104 -0.1143 -0.1355
 5830W        W 9349   2.999   0.999   1.972  0.1197 -0.3374 -0.1890
 5831W        W 9350   3.330   3.985  12.180  0.0184  0.1780 -0.0607
 5832W        W 9351   6.460   4.975   3.533  0.2973  0.0273  0.2052
 5833W        W 9352   9.534   6.160   8.124 -0.0393  0.0811 -0.1518
 5834W        W 9353   1.159   9.113   0.184 -0.0194  0.2366  0.0533
 5835W        W 9354   5.533   3.260   4.101  0.0594 -0.0351 -0.0332
 5836W        W 9355   0.094   6.535   9.199  0.2200  0.2610  0.0859
 5837W        W 9356   6.927   4.029   9.494  0.1488  0.2688  0.1528
 5838W        W 9357   3.143   4.706  10.915 -0.0890 -0.0725  0.2243
 5839W        W 9358   1.283   9.666   4.013  0.3173 -0.1830 -0.1756
 5840W        W 9359   1.806   7.638   2.301  0.0549 -0.2788  0.1572
 5841W        W 9360   1.970   9.570   3.513 -0.0687  0.1092 -0.0095
 5842W        W 9361   6.481   5.044   4.002 -0.2621 -0.0577  0.1289
 5843W        W 9362   1.178   2.179   2.825  0.1292  0.0785  0.1300
 5844W        W 9363   7.712   5.724   0.364  0.1112 -0.1661 -0.1378
 5845W        W 9364   1.154   8.505  11.731 -0.0259 -0.3415 -0.1438
 5846W        W 9365   6.618   5.792  12.429 -0.0533  0.1261  0.0517
 5847W        W 9366   5.016   9.666  10.785  0.1265  0.0706 -0.2710
 5848W        W 9367   7.733   7.814   1.383  0.3060  0.1466 -0.2521
 5849W        W 9368   4.195   1.333   3.976 -0.0813 -0.0536 -0.2598
 5850W        W 9369   8.450   8.957   1.898  0.0625  0.2259 -0.2239
 5851W        W 9370   5.619   4.026   0.817  0.2815 -0.1605  0.4672
 5852W        W 9371   7.821   1.750   3.079 -0.0893  0.2237  0.0962
 5853W        W 9372   7.113   1.818   1.950  0.5341 -0.2620 -0.1687
 5854W        W 9373   3.294   8.016   1.732 -0.4648  0.0634 -0.0160
 5855W        W 9374   8.509   5.408   0.971  0.0467 -0.2631 -0.1128
 5856W        W 9375   4.741   0.662   3.003  0.0265  0.3991  0.1226
 5857W        W 9376   1.777   4.283  10.432 -0.0244 -0.2280 -0.0471
 5858W        W 9377   0.112   2.067  10.672 -0.2319 -0.0602  0.0749
 5859W        W 9378   6.938   2.394  10.532  0.1219 -0.2167  0.3783
 5860W        W 9379   7.728   6.263   0.345 -0.0192  0.0815 -0.0159
 5861W        W 9380   9.123   3.923   2.130  0.0134 -0.1674  0.0870
 5862W        W 9381   4.940   7.235  12.084  0.0546  0.1659 -0.0101
 5863W        W 9382   2.481   3.721   0.639  0.0733  0.0186  0.0874
 5864W        W 9383   0.520   8.138  10.031  0.2888 -0.3689 -0.1182
 5865W        W 9384   9.570   5.762   8.655  0.3638  0.0002 -0.2437
 5866W        W 9385   5.002   8.355   3.337  0.1091  0.1428  0.0230
 5867W        W 9386   7.160   3.701  12.207  0.3849 -0.0512  0.2622
 5868W        W 9387   0.656   9.043   1.633 -0.0026  0.0388 -0.0454
 5869W        W 9388   0.198   2.425   3.738 -0.0482  0.0074  0.0222
 5870W        W 9389   3.654   6.093   9.123  0.2228 -0.3606 -0.1156
 5871W        W 9390   7.185   3.416  10.277  0.5144  0.0725 -0.2283
 5872W        W 9391   1.248   1.426   9.044  0.0706  0.1785  0.3677
 5873W        W 9392   2.003   1.644  11.177  0.0331  0.0218 -0.0445
 5874W        W 9393   1.386   2.020   1.582 -0.1105 -0.0477 -0.1706
 5875W        W 9394   2.644   5.929   0.509 -0.0931 -0.3454  0.0003
 5876W        W 9395   1.755   6.386  12.177 -0.0155 -0.1633 -0.1260
 5877W        W 9396   9.140   4.933  11.850  0.1351 -0.0114  0.0611
 5878W        W 9397   2.519   6.287   1.480 -0.2331 -0.1803  0.3019
 5879W        W 9398   9.645   8.372  12.118  0.0380  0.0823 -0.0420
 5880W        W 9399   4.058   6.909   8.802  0.0503 -0.1087  0.1508
 5881W        W 9400   7.891   2.604  11.681  0.1417  0.3522 -0.3298
 5882W        W 9401   7.233   1.577  10.429  0.0550 -0.0476  0.3017
 5883W        W 9402   1.607   9.581   8.647 -0.1986  0.0895 -0.1714
 5884W        W 9403   0.004   6.874   8.834 -0.0960 -0.0174 -0.0260
 5885W        W 9404   5.738   9.126   3.009 -0.1979 -0.0747 -0.1329
 5886W        W 9405   7.497   5.521   9.309 -0.0543  0.0287 -0.2223
 5887W        W 9406   4.845   3.075   1.966 -0.0882  0.1960 -0.0150
 5888W        W 9407   8.808   5.736   9.093 -0.2470  0.1418 -0.1528
 5889W        W 9408   2.506   5.672  12.091  0.0344  0.4578  0.0156
 5890W        W 9409   7.253   7.675   1.321  0.1521 -0.0213 -0.0889
 5891W        W 9410   6.849   2.088   1.573  0.0919  0.2811 -0.0627
 5892W        W 9411   1.075   6.212   8.809  0.0130  0.1005  0.3075
 5893W        W 9412   1.775   3.765   2.179 -0.1120  0.0395  0.1175
 5894W        W 9413   3.161   1.551  11.899  0.1689  0.1087 -0.0207
 5895W        W 9414   4.624   5.032   1.200 -0.1859  0.4232  0.1305
 5896W        W 9415   4.615   6.375  10.783  0.2175  0.1854  0.0466
 5897W        W 9416   4.942   1.283   4.208  0.2843  0.1094 -0.1701
 5898W        W 9417   8.173   3.754   0.433  0.1225 -0.1404  0.0088
 5899W        W 9418   7.617   9.275  10.994  0.0683  0.1550 -0.2607
 5900W        W 9419   2.996   0.703   0.103  0.0941  0.1043  0.1321
 5901W        W 9420   9.587   2.492   1.614 -0.2839  0.1860 -0.0494
 5902W        W 9421   0.600   7.449   9.674 -0.2477  0.1687 -0.0226
 5903W        W 9422   4.516   2.270   9.270  0.0702 -0.0738  0.0614
 5904W        W 9423   0.216   5.597   0.122 -0.0588  0.2010 -0.3310
 5905W        W 9424   3.624   6.451   0.646 -0.4368  0.1552  0.0805
 5906W        W 9425   4.087   5.685   0.040  0.1507  0.2590  0.1472
 5907W        W 9426   7.782   3.662   2.005  0.1369 -0.1769  0.1189
 5908W        W 9427   2.431   1.959   8.797 -0.1206 -0.0275 -0.1846
 5909W        W 9428   5.024   5.231   9.896  0.2285 -0.0472  0.2885
 5910W        W 9429   4.588   0.095   1.678 -0.1060 -0.2088  0.0981
 5911W        W 9430   4.400   8.436  11.010 -0.0020 -0.1059 -0.1531
 5912W        W 9431   6.617   3.587   1.649  0.1389  0.1965  0.0981
 5913W        W 9432   5.351   5.226   4.688  0.2642 -0.0513  0.1484
 5914W        W 9433   0.580   7.861   1.666  0.1081  0.2136  0.4245
 5915W        W 9434   8.728   7.778   8.273 -0.2094  0.2295  0.0211
 5916W        W 9435   6.430   5.072  11.778 -0.1240  0.2033 -0.1949
 5917W        W 9436   6.898   8.619  10.329 -0.0680  0.0891 -0.1917
 5918W        W 9437   1.224   9.450   9.921 -0.2650 -0.0487  0.2516
 5919W        W 9438   5.903   6.816   9.240  0.1569 -0.1142 -0.3646
 5920W        W 9439   8.764   5.887  10.312 -0.3723  0.2812  0.2167
 5921W        W 9440   8.754   4.682  11.559 -0.3104 -0.0159  0.5048
 5922W        W 9441   0.960   7.450   0.653 -0.0384 -0.1994  0.4073
 5923W        W 9442   2.465   1.465   3.833  0.0894  0.0959 -0.1938
 5924W        W 9443   3.254   1.807   8.031 -0.2181  0.1332 -0.1104
 5925W        W 9444   3.631   2.989   4.182  0.2639 -0.4699  0.1949
 5926W        W 9445   9.362   9.630  10.852 -0.1735 -0.1067  0.0042
 5927W        W 9446   3.934   5.390   1.471 -0.2910 -0.0152  0.0360
 5928W        W 9447   5.675   8.568   9.463 -0.0746 -0.1068  0.2246
 5929W        W 9448   2.974   3.726   2.725 -0.1843 -0.0944 -0.0171
 5930W        W 9449   8.815   8.418  10.519  0.0569  0.1567 -0.0359
 5931W        W 9450   3.114   1.404   1.256 -0.0029  0.0166 -0.1727
 5932W        W 9451   2.010   2.933  11.939  0.2524 -0.0075  0.0365
 5933W        W 9452   3.342   4.830   3.025 -0.1351  0.1309  0.0206
 5934W        W 9453   7.665   4.945   4.479 -0.3608 -0.0509 -0.1460
 5935W        W 9454   9.531   8.138   9.840  0.1666  0.0418 -0.0427
 5936W        W 9455   7.214   9.550   0.885 -0.1108  0.0133 -0.0350
 5937W        W 9456   6.922   0.984   0.351 -0.1056 -0.1496  0.3168
 5938W        W 9457   3.956   3.100   1.612  0.2510  0.0701 -0.0409
 5939W        W 9458   8.692   0.540   2.203 -0.0053  0.0738 -0.3126
 5940W        W 9459   7.823   7.863  10.819  0.0710 -0.2202 -0.1734
 5941W        W 9460   1.230   9.118  11.313  0.1701  0.0612  0.2102
 5942W        W 9461   8.305   7.985  10.803 -0.1896  0.2268 -0.0159
 5943W        W 9462   8.843   6.648  10.733  0.2016 -0.2385 -0.6209
 5944W        W 9463   5.520   3.175   3.564 -0.1686 -0.3042 -0.3441
 5945W        W 9464   2.916   9.500   3.326 -0.0046 -0.0236  0.2445
 5946W        W 9465   3.046   3.097   3.025 -0.3532  0.2038 -0.2426
 5947W        W 9466   5.586   4.357   3.262  0.1822  0.1121 -0.0055
 5948W        W 9467   7.766   9.088   9.249 -0.0895 -0.2173  0.0300
 5949W        W 9468   2.852   0.505   9.373  0.0041  0.2589 -0.1038
 5950W        W 9469   0.866   4.375   2.733 -0.0894 -0.1267 -0.0072
 5951W        W 9470   9.583   8.799  11.101  0.0391  0.1391 -0.2071
 5952W        W 9471   2.734   7.696   2.515 -0.0000  0.0443 -0.0471
 5953W        W 9472   3.921   4.674   1.996  0.2428  0.1514  0.5629
 5954W        W 9473   3.077   0.213   3.671 -0.3217 -0.0416 -0.0077
 5955W        W 9474   1.192   8.115   3.828  0.1488 -0.2637  0.1400
 5956W        W 9475   8.357   6.811   8.161  0.0387  0.0470 -0.0238
 5957W        W 9476   4.085   6.292   4.808 -0.1115 -0.0537  0.2872
 5958W        W 9477   7.509   5.983   3.585 -0.2371 -0.0700  0.1832
 5959W        W 9478   1.187   4.281   8.873 -0.2448 -0.3759 -0.1385
 5960W        W 9479   0.996   2.335  11.357  0.2167  0.0643  0.2409
 5961W        W 9480   5.373   4.769   4.480  0.0981 -0.2620  0.0608
 5962W        W 9481   3.210   4.597   9.916  0.0977  0.1606 -0.3822
 5963W        W 9482   2.718   4.677  11.190 -0.1382 -0.2501  0.0798
 5964W        W 9483   3.564   4.332   1.178  0.0563  0.0595  0.1306
 5965W        W 9484   8.346   5.822  10.656 -0.0445  0.1341 -0.0606
 5966W        W 9485   5.620   9.035  10.248 -0.2252  0.3217  0.2060
 5967W        W 9486   2.836   3.910   7.867  0.0022 -0.1389  0.3128
 5968W        W 9487   8.973   5.810   1.131  0.4410 -0.1747  0.0090
 5969W        W 9488   8.371   1.295   0.324 -0.4867 -0.0099  0.2888
 5970W        W 9489   0.759   2.460   2.294 -0.1608 -0.2834 -0.1622
 5971W        W 9490   1.075   7.110   8.846 -0.0212 -0.3368 -0.0662
 5972W        W 9491   9.046   7.791   9.958  0.1806  0.0192  0.2112
 5973W        W 9492   1.429   2.432   9.175  0.0506  0.2323 -0.2118
 5974W        W 9493   5.063   2.485  10.814  0.0574  0.3728 -0.2302
 5975W        W 9494   9.573   4.341   1.589  0.1020  0.1271  0.0515
 5976W        W 9495   2.607   1.299   1.844  0.0832 -0.1575  0.2130
 5977W        W 9496   7.910   7.671   0.485 -0.0569 -0.0479 -0.2757
 5978W        W 9497   6.540   4.343   1.618 -0.0125  0.0516 -0.0773
 5979W        W 9498   1.851   1.311  10.838  0.0778 -0.0738  0.2230
 5980W        W 9499   7.745   2.979  12.543  0.1101 -0.1829  0.2174
 5981W        W 9500   0.867   7.506  11.177 -0.2111  0.2615 -0.1386
 5982W        W 9501   4.384   7.413   0.087  0.1208 -0.0607 -0.2297
 5983W        W 9502   0.126   9.534   9.773 -0.0127 -0.3308  0.2311
 5984W        W 9503   0.267   8.866   8.632  0.0130  0.3258  0.0118
 5985W        W 9504   9.177   0.424   2.485 -0.1392 -0.0839 -0.2551
 5986W        W 9505   9.456   7.380   4.480  0.2280 -0.1308 -0.1526
 5987W        W 9506   1.403   8.555   9.503 -0.3146 -0.1267 -0.1120
 5988W        W 9507   7.279   4.216   0.427  0.0611 -0.2331 -0.0294
 5989W        W 9508   3.164   7.222  10.641 -0.1218  0.1303  0.2870
 5990W        W 9509   6.342   5.449   3.636  0.0817  0.1449 -0.0276
 5991W        W 9510   9.170   1.724   0.044  0.2881 -0.0855 -0.2682
 5992W        W 9511   2.842   8.691   8.556  0.2554  0.4797  0.3461
 5993W        W 9512   6.944   5.261  10.379 -0.0697 -0.1741 -0.0756
 5994W        W 9513   5.525   0.654   9.895 -0.0126  0.0717  0.1711
 5995W        W 9514   7.774   1.350  10.532 -0.0011 -0.3371 -0.2205
 5996W        W 9515   8.141   5.778   1.806 -0.4186 -0.3378  0.0598
 5997W        W 9516   3.791   2.092   3.937  0.0527  0.0435  0.4091
 5998W        W 9517   1.346   3.800  12.052  0.3041 -0.3076  0.2506
 5999W        W 9518   0.255   2.080   1.544 -0.4227  0.1914 -0.1662
 6000W        W 9519   8.491   6.164   2.463 -0.0187  0.0818 -0.0491
 6001W        W 9520   1.008   2.047   3.488  0.0351  0.3831  0.2687
 6002W        W 9521   8.028   6.209  10.548 -0.1624 -0.0375 -0.0513
 6003W        W 9522   9.619   0.536   2.220  0.0714  0.2026  0.1713
 6004W        W 9523   2.496   9.295  12.316  0.5175  0.3472 -0.0667
 6005W        W 9524   8.476   1.179  12.058  0.1665 -0.0203 -0.0600
 6006W        W 9525   8.262   3.991   1.310 -0.0089 -0.3083 -0.1130
 6007W        W 9526   4.371   7.879  11.800 -0.1581 -0.0232 -0.0204
 6008W        W 9527   4.393   2.632  11.643  0.3686 -0.2119 -0.0354
 6009W        W 9528   2.449   9.360   0.214  0.1433  0.2619  0.0878
 6010W        W 9529   3.558   9.145   2.921  0.2766 -0.0655  0.1269
 6011W        W 9530   4.761   4.667   9.311  0.0328  0.3519  0.2899
 6012W        W 9531   1.460   4.170   2.739 -0.1209 -0.2324 -0.0914
 6013W        W 9532   4.817   3.926   3.558  0.0798 -0.1343 -0.0686
 6014W        W 9533   4.526   4.873  10.293  0.4372  0.2234  0.1505
 6015W        W 9534   2.580   6.175   7.964  0.1274 -0.0828  0.0781
 6016W        W 9535   6.327   6.402   9.196  0.1095  0.0714 -0.4628
 6017W        W 9536   5.258   3.062  10.911 -0.0042  0.0390 -0.3407
 6018W        W 9537   0.118   3.814   4.059  0.0954  0.0261  0.1303
 6019W        W 9538   2.119   4.956   3.052  0.1029 -0.2271  0.2269
 6020W        W 9539   7.113   5.135   9.242  0.1688  0.3820 -0.0774
 6021W        W 9540   7.201   9.635   9.016  0.3309  0.1092 -0.4215
 6022W        W 9541   3.959   9.494  10.608  0.1935 -0.0949 -0.0455
 6023W        W 9542   1.429   2.254   4.249  0.1948  0.1205 -0.1379
 6024W        W 9543   0.407   7.086   8.577 -0.0487 -0.1191 -0.0480
 6025W        W 9544   2.185   1.209  11.282 -0.1294 -0.0663  0.0435
 6026W        W 9545   4.998   6.884   3.079 -0.2087  0.1025  0.3252
 6027W        W 9546   2.359   3.322   4.921  0.1149  0.5026 -0.3095
 6028W        W 9547   0.095   3.990  12.132  0.1059  0.1496 -0.2403
 6029W        W 9548   8.418   5.509  11.202 -0.2916  0.3297 -0.1370
 6030W        W 9549   1.554   8.384   0.180  0.0505 -0.1872 -0.0556
 6031W        W 9550   8.339   8.172   3.929 -0.1951 -0.1306  0.2639
 6032W        W 9551   8.603   8.505   1.672 -0.1673 -0.3497 -0.0006
 6033W        W 9552   4.870   8.921   2.525 -0.0229  0.0079  0.0841
 6034W        W 9553   4.145   1.695   0.517 -0.2852 -0.0732  0.0795
 6035W        W 9554   1.459   8.264  10.997 -0.0944 -0.2539 -0.0528
 6036W        W 9555   3.369   8.357   3.495  0.2474 -0.2885  0.3595
 6037W        W 9556   1.439   0.204   0.018  0.0543  0.1696 -0.0584
 6038W        W 9557   7.078   7.782  10.314 -0.1838 -0.4974  0.3038
 6039W        W 9558   5.734   2.129   3.054  0.1668  0.0205  0.0488
 6040W        W 9559   0.947   3.886   2.624  0.2200  0.0077 -0.0279
 6041W        W 9560   0.699   9.005   9.370  0.0585 -0.0957  0.2445
 6042W        W 9561   7.522   7.052  11.245 -0.3542  0.0135 -0.3181
 6043W        W 9562   6.101   1.145   3.911 -0.0962 -0.0901  0.0527
 6044W        W 9563   9.208   7.006   8.721 -0.2928  0.0313 -0.0743
 6045W        W 9564   0.223   1.247   0.528  0.2128 -0.1075 -0.2855
 6046W        W 9565   4.132   5.378   8.926  0.1995 -0.1380  0.0795
 6047W        W 9566   4.153   3.011   4.022  0.0843 -0.0022 -0.5173
 6048W        W 9567   8.316   9.134   2.560 -0.0936  0.2742  0.0828
 6049W        W 9568   2.077   0.001   1.864  0.1372  0.2158 -0.2705
 6050W        W 9569   2.965   4.949   1.691 -0.2892  0.0323 -0.0944
 6051W        W 9570   1.696   4.425  10.896  0.0374 -0.2240  0.2351
 6052W        W 9571   8.702   7.952  10.354 -0.0869  0.1385  0.1111
 6053W        W 9572   6.894   0.909   9.090 -0.5763 -0.1837  0.1749
 6054W        W 9573   8.947   1.241   9.550 -0.1342 -0.1489 -0.0360
 6055W        W 9574   8.563   6.047   0.427  0.0601 -0.1496  0.3380
 6056W        W 9575   5.396   9.278   8.944 -0.0190 -0.2175  0.0221
 6057W        W 9576   4.935   7.772   1.060  0.2203 -0.1842 -0.2016
 6058W        W 9577   5.014   6.327   5.119  0.1614  0.0916  0.0234
 6059W        W 9578   8.605   3.647   3.582  0.3321  0.1995  0.1087
 6060W        W 9579   6.217   4.958  10.794  0.1091  0.0339  0.2143
 6061W        W 9580   5.478   5.232  11.309 -0.0128  0.1260 -0.0101
 6062W        W 9581   6.853   1.361  11.946  0.0151 -0.2505  0.1288
 6063W        W 9582   2.147   6.860   0.889 -0.1457 -0.0191 -0.0024
 6064W        W 9583   4.834   5.078   4.551  0.1437  0.1320 -0.2484
 6065W        W 9584   8.639   7.707  12.573  0.1918  0.1777  0.2130
 6066W        W 9585   7.310   5.662   9.835  0.1284  0.1380  0.2057
 6067W        W 9586   9.591   0.428   2.721 -0.1960 -0.1666 -0.0168
 6068W        W 9587   7.692   0.965   3.392 -0.2157  0.2177  0.0944
 6069W        W 9588   5.192   2.939   9.626  0.0298  0.2879  0.0313
 6070W        W 9589   4.296   8.290   1.343  0.2792 -0.0655 -0.0648
 6071W        W 9590   1.997   5.515  11.200  0.1850  0.1200  0.1581
 6072W        W 9591   1.485   9.335   4.359  0.1223  0.3813  0.0008
 6073W        W 9592   3.988   5.711   2.762  0.1098  0.1916  0.0754
 6074W        W 9593   3.911   5.618   9.992 -0.1853  0.1118 -0.0611
 6075W        W 9594   0.245   4.492  10.281  0.1282  0.0501  0.0120
 6076W        W 9595   8.889   4.839   3.081  0.1465 -0.0563 -0.0455
 6077W        W 9596   8.390   5.028  11.441 -0.1016  0.0496 -0.1831
 6078W        W 9597   3.700   5.433   3.830 -0.2320 -0.4697 -0.2770
 6079W        W 9598   0.895   3.206  11.253 -0.1696 -0.2763  0.1344
 6080W        W 9599   0.643   7.426   3.663 -0.0272  0.0895 -0.0015
 6081W        W 9600   4.401   9.432  10.382  0.2839 -0.0461  0.2520
 6082W        W 9601   1.186   6.576  10.268 -0.0433 -0.0658  0.0207
 6083W        W 9602   1.121   4.235   2.335  0.2931  0.2727 -0.0086
 6084W        W 9603   5.891   5.385   1.476 -0.1024  0.1616  0.0252
 6085W        W 9604   3.029   5.427   1.576  0.1710 -0.0673  0.1588
 6086W        W 9605   8.719   6.986   1.837  0.1215 -0.0708 -0.1463
 6087W        W 9606   4.197   3.872   8.549 -0.0684 -0.3102  0.1214
 6088W        W 9607   3.042   9.378  12.120 -0.0200  0.0484 -0.2164
 6089W        W 9608   8.121   5.966   3.911  0.2939 -0.0325  0.0876
 6090W        W 9609   5.579   0.747  12.467  0.1974 -0.1472 -0.1675
 6091W        W 9610   3.520   5.835  10.769  0.1685  0.1441 -0.0040
 6092W        W 9611   8.380   5.044   3.716  0.1881 -0.0426 -0.2262
 6093W        W 9612   2.890   0.704   3.729 -0.2050  0.3954  0.3103
 6094W        W 9613   5.292   1.626   9.628  0.1612  0.1211  0.0408
 6095W        W 9614   3.980   9.187   0.345  0.2069 -0.0245  0.3321
 6096W        W 9615   1.550   1.994   2.086 -0.0593 -0.1511  0.1412
 6097W        W 9616   0.088   2.175   1.021  0.0268 -0.1771  0.0574
 6098W        W 9617   7.483   2.451  10.504 -0.0116  0.0608  0.0943
 6099W        W 9618   2.617   1.592  12.107 -0.3078  0.0076  0.0650
 6100W        W 9619   0.056   2.839  10.765  0.1153 -0.0273  0.0139
 6101W        W 9620   6.779   8.876   9.222 -0.0109 -0.0502 -0.0304
 6102W        W 9621   8.483   4.689   1.914  0.3758  0.0917  0.1802
 6103W        W 9622   0.087   6.694   3.962 -0.3155 -0.3200 -0.0573
 6104W        W 9623   9.552   7.119   0.062 -0.1776  0.2682  0.0916
 6105W        W 9624   4.804   8.165  11.004 -0.2576  0.1009 -0.0020
 6106W        W 9625   2.355   9.440   1.471  0.2383 -0.4958  0.1191
 6107W        W 9626   5.539   5.179   3.189 -0.1424 -0.2515 -0.0108
 6108W        W 9627   0.275   7.430  12.346 -0.0419  0.2096 -0.2380
 6109W        W 9628   7.179   8.258  10.565  0.1000  0.2275  0.0272
 6110W        W 9629   0.490   4.023  10.304  0.0422  0.1676 -0.3007
 6111W        W 9630   7.758   5.849   3.106 -0.2052  0.0255  0.4087
 6112W        W 9631   3.136   8.891   3.148  0.2881 -0.0920  0.1980
 6113W        W 9632   5.471   3.986   1.320  0.0137  0.0028  0.2769
 6114W        W 9633   3.277   5.964  11.741  0.2071 -0.2476 -0.1014
 6115W        W 9634   0.585   4.725   3.358 -0.1392  0.1124 -0.0852
 6116W        W 9635   6.864   4.756  10.213 -0.0064  0.1456 -0.2079
 6117W        W 9636   3.308   2.523  11.892  0.0812  0.0230 -0.0553
 6118W        W 9637   1.509   8.621   8.310 -0.5642 -0.0733  0.2224
 6119W        W 9638   0.351   6.033  11.917 -0.3776  0.0294  0.0759
 6120W        W 9639   7.852   6.867  12.244 -0.1902 -0.3184  0.1833
 6121W        W 9640   0.351   5.403  11.366 -0.0317 -0.0922 -0.4183
 6122W        W 9641   6.952   6.491   2.806  0.3010  0.0408 -0.1701
 6123W        W 9642   7.445   3.773   1.398  0.1111 -0.0230  0.0896
 6124W        W 9643   4.676   6.198  12.332 -0.0893 -0.2179 -0.0483
 6125W        W 9644   5.816   3.143  10.840 -0.1533 -0.2204 -0.0711
 6126W        W 9645   8.261   3.209   0.453 -0.0572 -0.1227  0.1637
 6127W        W 9646   3.285   4.977  12.184  0.1617 -0.0194  0.5148
 6128W        W 9647   0.351   6.948  12.556  0.0449  0.3158  0.2258
 6129W        W 9648   9.617   9.209   9.478 -0.2798  0.0007  0.0404
 6130W        W 9649   2.320   9.142   9.720  0.1717  0.1463 -0.0143
 6131W        W 9650   1.059   9.216   1.919 -0.0774 -0.0879 -0.1620
 6132W        W 9651   3.211   6.082   8.854 -0.0807  0.0476  0.1433
 6133W        W 9652   1.298   4.410   4.765  0.2384  0.0897 -0.0093
 6134W        W 9653   5.289   6.163   2.389  0.0800 -0.0237 -0.1011
 6135W        W 9654   1.771   2.523  10.740  0.2970  0.0790  0.0748
 6136W        W 9655   7.129   2.432   0.150 -0.0492 -0.0200  0.0827
 6137W        W 9656   2.483   0.090  10.508 -0.1119 -0.1130  0.4012
 6138W        W 9657   7.412   4.475   8.687 -0.1084 -0.0835 -0.1857
 6139W        W 9658   7.138   8.153  12.034  0.1227  0.0258  0.1295
 6140W        W 9659   7.680   3.978   3.329  0.1650  0.0905 -0.2883
 6141W        W 9660   8.553   7.915   9.536  0.4598 -0.0635 -0.2856
 6142W        W 9661   4.114   4.323  11.354  0.0342  0.1233  0.0398
 6143W        W 9662   7.347   4.507   0.050 -0.0756 -0.0046  0.2471
 6144W        W 9663   0.821   0.613   2.025 -0.0660  0.0487 -0.3243
 6145W        W 9664   1.676   1.762   3.556 -0.0466 -0.0236  0.0300
 6146W        W 9665   2.388   5.449   1.274 -0.2814 -0.2088  0.1152
 6147W        W 9666   9.004   0.940   1.667 -0.0677 -0.0589 -0.0807
 6148W        W 9667   0.024   2.075   1.980 -0.1792 -0.0285  0.1806
 6149W        W 9668   7.222   2.693   2.346 -0.2564 -0.0530  0.1859
 6150W        W 9669   2.918   9.072  11.209  0.2460 -0.1795  0.0098
 6151W        W 9670   3.695   3.931  11.236  0.2556 -0.2218  0.1244
 6152W        W 9671   0.522   7.096  10.438 -0.2128 -0.0235  0.0712
 6153W        W 9672   3.041   1.381   8.082 -0.0832 -0.0154 -0.2479
 6154W        W 9673   4.746   1.126   3.262  0.1065 -0.1895  0.0891
 6155W        W 9674   4.862   7.055   2.339 -0.1503 -0.0525 -0.1153
 6156W        W 9675   6.110   3.262   0.872  0.0099  0.1696  0.1556
 6157W        W 9676   6.052   0.790  12.113 -0.0369  0.1308 -0.0179
 6158W        W 9677   4.622   2.695   0.969 -0.3121  0.0706  0.1192
 6159W        W 9678   8.058   8.400   8.723 -0.2683 -0.0656 -0.0065
 6160W        W 9679   3.836   1.770  10.865 -0.1671 -0.1231  0.1791
 6161W        W 9680   4.473   7.084  11.360 -0.0787  0.1829  0.0200
 6162W        W 9681   7.783   5.621  11.808  0.1237  0.2005 -0.0492
 6163W        W 9682   4.958   4.879   3.797  0.1091 -0.0248 -0.2318
 6164W        W 9683   7.196   8.626  11.865  0.3507  0.3021  0.2512
 6165W        W 9684   5.965   5.840   1.574 -0.0700  0.2128  0.1360
 6166W        W 9685   8.049   7.274   2.575 -0.1609  0.0273  0.0877
 6167W        W 9686   9.008   8.813  10.168 -0.2891 -0.3641 -0.1505
 6168W        W 9687   0.919   1.840   0.042 -0.1344 -0.0585 -0.1874
 6169W        W 9688   2.113   3.501   3.088 -0.0802  0.1192 -0.2267
 6170W        W 9689   3.961   0.624  12.130  0.0196 -0.1756  0.2554
 6171W        W 9690   9.550   2.347   3.313 -0.0997 -0.2106  0.3503
 6172W        W 9691   5.300   6.418   0.364  0.2030 -0.1149 -0.0351
 6173W        W 9692   0.718   6.321   2.007  0.1914  0.2214  0.0225
 6174W        W 9693   7.035   5.725  11.244 -0.0680 -0.2533  0.0842
 6175W        W 9694   4.190   3.822  11.045 -0.2577 -0.0465 -0.0253
 6176W        W 9695   9.396   2.990   1.346  0.6442  0.0207 -0.1089
 6177W        W 9696   5.580   5.441  10.850  0.1450 -0.0187 -0.0958
 6178W        W 9697   5.664   0.744  10.731 -0.0734 -0.0830  0.2827
 6179W        W 9698   6.774   8.769   2.069  0.3255 -0.2529  0.1499
 6180W        W 9699   5.196   9.343  11.615 -0.3300 -0.3321  0.0802
 6181W        W 9700   4.751   8.346   8.774  0.2736 -0.0768 -0.2696
 6182W        W 9701   6.911   2.351   2.581 -0.2856  0.2096 -0.0706
 6183W        W 9702   6.253   0.312  12.442  0.5870 -0.2627  0.0206
 6184W        W 9703   1.231   1.694   2.974  0.1361 -0.0428  0.0622
 6185W        W 9704   0.869   9.148   1.092  0.2559 -0.2770 -0.2156
 6186W        W 9705   8.654   7.180  12.471 -0.0162 -0.1805 -0.0541
 6187W        W 9706   0.097   6.361  10.641  0.4161 -0.1501  0.1255
 6188W        W 9707   7.096   4.613   0.794 -0.0133 -0.2919  0.0298
 6189W        W 9708   4.536   8.674   2.956  0.1888  0.0706  0.1635
 6190W        W 9709   6.201   6.982   3.593 -0.3304  0.1828  0.0768
 6191W        W 9710   3.039   5.758  11.313 -0.1191 -0.4344 -0.2260
 6192W        W 9711   0.406   4.783   0.991 -0.0599  0.1534 -0.0534
 6193W        W 9712   2.387   6.430   0.933  0.1874  0.5728 -0.0000
 6194W        W 9713   7.586   1.833   1.936 -0.2833 -0.1662  0.0193
 6195W        W 9714   2.260   1.787   0.063 -0.0256 -0.2755  0.0027
 6196W        W 9715   3.383   6.740   1.227  0.0267 -0.3567 -0.1992
 6197W        W 9716   5.397   9.507  10.421 -0.3316 -0.0856 -0.2457
 6198W        W 9717   2.460   2.127   9.296 -0.2268 -0.1765  0.0724
 6199W        W 9718   9.060   6.026   9.920  0.1104  0.1238 -0.0807
 6200W        W 9719   7.291   3.703   3.179 -0.0970 -0.1321 -0.1468
 6201W        W 9720   2.369   3.830   1.116  0.1519 -0.1201  0.0724
 6202W        W 9721   3.536   6.334   1.979 -0.2718  0.1285 -0.0784
 6203W        W 9722   6.741   6.036   2.535  0.2343 -0.4299  0.1894
 6204W        W 9723   8.980   6.177   3.773  0.0175 -0.2005 -0.1348
 6205W        W 9724   5.210   1.209  10.713  0.0243  0.3428  0.2421
 6206W        W 9725   0.040   7.370  10.512 -0.1116 -0.3660 -0.0459
 6207W        W 9726   2.985   5.542   9.516  0.1798 -0.0093  0.0321
 6208W        W 9727   8.376   2.000  10.493  0.5115 -0.0242  0.2512
 6209W        W 9728   8.635   1.368   3.029  0.2401  0.4019 -0.3529
 6210W        W 9729   4.690   3.991   1.880 -0.3063  0.1774 -0.2331
 6211W        W 9730   4.899   5.712   3.340  0.1320  0.1325 -0.2742
 6212W        W 9731   1.552   2.548   2.919 -0.0352  0.0742 -0.0016
 6213W        W 9732   5.786   1.546   3.100 -0.1639  0.1920 -0.0062
 6214W        W 9733   1.015   2.681  10.977  0.0172  0.0004  0.1443
 6215W        W 9734   2.254   5.308   9.908  0.0636 -0.0480  0.1967
 6216W        W 9735   0.914   1.773  10.057 -0.2855  0.0895  0.1345
 6217W        W 9736   3.854   6.527  10.362  0.2421 -0.0866 -0.1251
 6218W        W 9737   2.558   4.259   9.563  0.1059  0.0298  0.0128
 6219W        W 9738   5.157   5.036  12.573  0.1988 -0.1159  0.1300
 6220W        W 9739   9.007   6.606   1.293 -0.0301 -0.1038 -0.1336
 6221W        W 9740   5.061   6.616   0.781  0.0847  0.3267  0.1201
 6222W        W 9741   7.254   7.250   0.980 -0.3162  0.1211 -0.0859
 6223W        W 9742   6.173   7.098   8.319  0.0896 -0.2796  0.2460
 6224W        W 9743   2.996   1.978   0.528 -0.0238  0.2409 -0.0611
 6225W        W 9744   0.198   4.829  11.089 -0.0005  0.3846  0.5427
 6226W        W 9745   6.418   7.888  11.588 -0.0302  0.2562 -0.0124
 6227W        W 9746   1.403   3.620   9.259 -0.0970  0.0956 -0.0641
 6228W        W 9747   5.978   5.319   9.957 -0.1157 -0.1640  0.2590
 6229W        W 9748   4.214   4.360   9.862 -0.1181 -0.2578  0.0870
 6230W        W 9749   7.886   0.362  10.399 -0.5354 -0.1188 -0.0832
 6231W        W 9750   1.849   6.535   0.676 -0.0942 -0.0674  0.0396
 6232W        W 9751   4.658   6.422   3.858  0.0398  0.1372  0.2321
 6233W        W 9752   8.174   5.988   0.094  0.3563  0.0437 -0.1003
 6234W        W 9753   6.025   2.294   1.158 -0.1052  0.0551 -0.1306
 6235W        W 9754   5.865   6.293   2.427  0.1286  0.0223 -0.0252
 6236W        W 9755   8.093   6.145   3.405  0.0886 -0.0006  0.1276
 6237W        W 9756   4.487   5.469  11.777 -0.2085 -0.5490 -0.0241
 6238W        W 9757   3.757   1.331  10.585  0.0708 -0.0826  0.0489
 6239W        W 9758   1.629   6.460   3.794 -0.0905  0.0336  0.0469
 6240W        W 9759   1.389   3.182   0.840 -0.3222 -0.2669 -0.1056
 6241W        W 9760   1.828   1.489  11.695  0.0786  0.0648 -0.0733
 6242W        W 9761   3.646   6.137   8.048  0.0291  0.0790 -0.3039
 6243W        W 9762   9.370   6.664  12.483  0.1703 -0.2073  0.2684
 6244W        W 9763   2.982   6.098   8.357 -0.2318 -0.1411  0.0976
 6245W        W 9764   2.207   3.885  11.087 -0.4138  0.2072  0.0197
 6246W        W 9765   1.697   5.449   2.111 -0.1343 -0.0989 -0.1953
 6247W        W 9766   9.412   5.616  12.482  0.0196 -0.0433 -0.0987
 6248W        W 9767   0.587   0.816  11.091  0.2145  0.0465 -0.0501
 6249W        W 9768   2.089   5.947   3.958  0.0613  0.0908  0.0394
 6250W        W 9769   0.216   1.197   3.188 -0.0870 -0.1353 -0.0170
 6251W        W 9770   8.750   1.816  10.837  0.1118  0.1813  0.2361
 6252W        W 9771   5.606   8.342   2.079 -0.0698  0.0034 -0.5194
 6253W        W 9772   3.523   1.143   9.701  0.0247 -0.0403 -0.1593
 6254W        W 9773   1.127   2.689   2.703  0.1617  0.2284 -0.2602
 6255W        W 9774   2.869   2.872  11.934  0.0156 -0.2591 -0.0585
 6256W        W 9775   6.903   6.228   0.687 -0.0703 -0.1148  0.2442
 6257W        W 9776   2.107   6.057  12.269 -0.0207 -0.0967 -0.0535
 6258W        W 9777   3.628   7.850   0.241  0.1881  0.0440 -0.2872
 6259W        W 9778   0.788   0.512   0.322 -0.1647 -0.4382 -0.1127
 6260W        W 9779   0.794   6.664   8.712 -0.4846 -0.0963 -0.0931
 6261W        W 9780   7.127   4.508   3.260  0.1563 -0.0038 -0.0736
 6262W        W 9781   8.137   8.637   3.985  0.2517 -0.0678  0.1622
 6263W        W 9782   4.871   1.986   9.536  0.0902  0.0224  0.0978
 6264W        W 9783   0.153   2.124   0.437  0.0155  0.1471  0.0799
 6265W        W 9784   3.605   6.980   4.471  0.0094 -0.1809  0.0243
 6266W        W 9785   1.195   7.279  10.805 -0.0269  0.5001 -0.0653
 6267W        W 9786   1.792   5.730   8.639 -0.0330 -0.3565  0.0707
 6268W        W 9787   3.905   3.946   2.431  0.0690 -0.1613  0.0454
 6269W        W 9788   4.854   4.384   1.617  0.2877 -0.2937  0.2196
 6270W        W 9789   5.075   6.576   9.081 -0.1650 -0.1334 -0.0981
 6271W        W 9790   8.902   2.759   0.903 -0.0785  0.1599 -0.3512
 6272W        W 9791   6.587   6.984   8.691 -0.1114 -0.0839  0.2702
 6273W        W 9792   3.334   2.032  11.021 -0.0267  0.2039 -0.1116
 6274W        W 9793   7.633   7.466   4.568  0.1466 -0.0729  0.0504
 6275W        W 9794   1.527   3.744   9.735  0.0381 -0.1799 -0.1476
 6276W        W 9795   2.803   4.860  12.095  0.4688 -0.0394  0.0945
 6277W        W 9796   0.639   5.799   1.907 -0.2566 -0.0781  0.0351
 6278W        W 9797   3.461   9.504   3.312 -0.2830  0.0331 -0.2660
 6279W        W 9798   2.575   9.307   3.714  0.2071 -0.0342 -0.2374
 6280W        W 9799   2.278   8.712   9.405 -0.0985  0.0308  0.1150
 6281W        W 9800   7.475   4.220  11.580 -0.1270  0.0669 -0.0089
 6282W        W 9801   1.432   5.609   3.307 -0.1123 -0.1328 -0.1195
 6283W        W 9802   8.278   5.201   0.577  0.1761 -0.0863  0.0699
 6284W        W 9803   6.169   5.626  10.314  0.0953 -0.0620 -0.1094
 6285W        W 9804   4.734   2.614  12.289  0.0950 -0.5909  0.2035
 6286W        W 9805   7.981   6.364   1.317  0.1600  0.2339  0.0217
 6287W        W 9806   7.440   0.374   9.543 -0.1596 -0.0336 -0.1882
 6288W        W 9807   1.768   6.177   9.461 -0.2472 -0.1597 -0.3065
 6289W        W 9808   4.224   0.178  11.832  0.1145  0.1645  0.5719
 6290W        W 9809   4.961   5.711   9.087 -0.1267  0.0347 -0.2296
 6291W        W 9810   2.222   3.274   9.073 -0.2302  0.1527  0.1007
 6292W        W 9811   9.640   1.657   3.300 -0.0902 -0.3230  0.1947
 6293W        W 9812   3.103   3.230   0.820  0.5232 -0.3506  0.0659
 6294W        W 9813   3.711   3.225   1.138  0.1556 -0.3691 -0.3113
 6295W        W 9814   9.442   3.891   1.738  0.1884  0.4474 -0.4015
 6296W        W 9815   1.869   9.475   1.476  0.0306  0.0329  0.1639
 6297W        W 9816   9.587   1.499  10.695 -0.2867 -0.0992 -0.0894
 6298W        W 9817   9.362   0.356  11.581 -0.0139  0.3942 -0.1571
 6299W        W 9818   2.236   9.003   2.793 -0.1268  0.1308  0.2395
 6300W        W 9819   5.719   0.287   3.135  0.0175 -0.2266 -0.0780
 6301W        W 9820   2.656   7.209   2.780  0.0158  0.0212 -0.1124
 6302W        W 9821   0.641   5.811  11.560 -0.2286 -0.0330 -0.2214
 6303W        W 9822   7.356   1.399   0.472 -0.0057  0.2581 -0.0409
 6304W        W 9823   7.804   0.574   9.876  0.2699  0.0348  0.0160
 6305W        W 9824   1.693   6.195   1.993 -0.0841  0.1649  0.0909
 6306W        W 9825   2.960   5.980   3.751 -0.0784  0.1293  0.3668
 6307W        W 9826   3.785   1.410  10.035  0.1552  0.1168  0.5128
 6308W        W 9827   7.088   4.108   2.435  0.1088 -0.1983  0.3538
 6309W        W 9828   4.796   0.390  10.983  0.2581 -0.0501  0.1245
 6310W        W 9829   0.568   2.791  12.452 -0.1956  0.1654  0.0476
 6311W        W 9830   0.285   5.252  12.314 -0.0344 -0.2180  0.1341
 6312W        W 9831   5.120   7.765  11.381 -0.1145  0.2402  0.1252
 6313W        W 9832   3.806   2.496  12.000  0.2258  0.1821 -0.1507
 6314W        W 9833   7.290   5.962   1.779 -0.1802  0.1517  0.0315
 6315W        W 9834   6.522   7.957   2.814 -0.0369 -0.1879 -0.3639
 6316W        W 9835   0.820   4.918  11.864 -0.0583  0.0897 -0.0335
 6317W        W 9836   7.594   4.035  12.263  0.1849  0.1426 -0.2469
 6318W        W 9837   3.841   4.717   9.606 -0.1295  0.2214 -0.0215
 6319W        W 9838   5.587   8.442   2.583 -0.0264 -0.1724  0.0841
 6320W        W 9839   6.579   1.695   1.872 -0.3104  0.1070 -0.1942
 6321W        W 9840   0.455   4.041   9.135 -0.0927  0.1463  0.0069
 6322W        W 9841   4.473   9.280   0.501 -0.1082 -0.1544  0.3087
 6323W        W 9842   3.982   5.605  10.528  0.0573  0.1134  0.2148
 6324W        W 9843   3.562   5.807  10.282 -0.1846 -0.0400 -0.1485
 6325W        W 9844   7.566   4.249   9.110 -0.0879  0.0633 -0.1108
 6326W        W 9845   8.655   4.944   1.205  0.1768  0.0218  0.1616
 6327W        W 9846   1.846   3.394   9.987 -0.1095 -0.1714  0.2674
 6328W        W 9847   5.661   6.753   3.898 -0.0367  0.4209  0.1767
 6329W        W 9848   0.988   8.913   3.384  0.1981  0.1795 -0.0837
 6330W        W 9849   9.180   0.006  12.026  0.1133 -0.3349  0.2892
 6331W        W 9850   2.347   4.774  12.357 -0.3373 -0.1984  0.0585
 6332W        W 9851   0.502   5.478  11.889  0.2558  0.0001 -0.3046
 6333W        W 9852   7.809   0.157   2.666  0.1882 -0.2757  0.0746
 6334W        W 9853   1.275   6.192  10.586 -0.0435 -0.1510  0.1908
 6335W        W 9854   3.283   5.040   9.460  0.0640  0.0931  0.0514
 6336W        W 9855   8.071   5.833  11.415 -0.0973 -0.0446  0.2278
 6337W        W 9856   5.376   5.387   0.303 -0.0693  0.5078 -0.0802
 6338W        W 9857   6.958   5.712  10.615  0.0746  0.1927  0.0335
 6339W        W 9858   3.481   1.847   3.047  0.0748 -0.0105 -0.0991
 6340W        W 9859   2.647   6.714  11.086  0.1255  0.0145 -0.2613
 6341W        W 9860   1.524   0.046   2.161  0.1500 -0.2721 -0.0580
 6342W        W 9861   5.833   4.745  10.493 -0.3281 -0.0648  0.2081
 6343W        W 9862   8.019   4.654   2.232  0.0048 -0.2338  0.0213
 6344W        W 9863   9.520   7.044  12.069 -0.1767  0.2499 -0.0221
 6345W        W 9864   5.803   8.096   9.245  0.0081 -0.2029  0.2375
 6346W        W 9865   8.809   5.144   0.667  0.0079  0.1469  0.0328
 6347W        W 9866   7.580   8.920   2.379 -0.1618  0.1105  0.1787
 6348W        W 9867   2.149   0.880   2.240 -0.1564  0.0051 -0.0256
 6349W        W 9868   4.227   2.002  11.221  0.1342  0.0697 -0.2382
 6350W        W 9869   2.005   8.267   3.992 -0.0299 -0.1288  0.2309
 6351W        W 9870   1.444   5.761   8.149 -0.1531  0.1414 -0.1141
 6352W        W 9871   6.757   0.999   1.458 -0.0080 -0.0289  0.0861
 6353W        W 9872   3.879   5.597   9.318  0.1332 -0.2287  0.2922
 6354W        W 9873   0.398   7.733   2.610  0.1089  0.1902  0.2381
 6355W        W 9874   2.461   0.663  12.581 -0.0938 -0.0568 -0.0670
 6356W        W 9875   8.730   5.117  10.023  0.3142 -0.1187  0.0519
 6357W        W 9876   2.397   3.083   1.356  0.0906  0.0028 -0.1843
 6358W        W 9877   1.873   3.835   8.460  0.1526 -0.0247  0.0172
 6359W        W 9878   4.805   1.171   2.099  0.2378  0.2555 -0.0602
 6360W        W 9879   8.150   7.282  12.273  0.0699  0.2063 -0.1385
 6361W        W 9880   2.117   6.141   8.724  0.2444 -0.0171  0.2844
 6362W        W 9881   3.823   6.016   9.627 -0.1618 -0.1306  0.0409
 6363W        W 9882   7.144   3.011   1.442 -0.3632 -0.0061  0.1018
 6364W        W 9883   0.595   9.552   1.913 -0.0173  0.1612 -0.1985
 6365W        W 9884   6.831   2.504   3.225  0.0291 -0.0911 -0.0390
 6366W        W 9885   3.785   3.123   2.131 -0.4544  0.1957  0.0448
 6367W        W 9886   2.262   5.742  10.198 -0.1096 -0.0810  0.2483
 6368W        W 9887   0.524   3.652   2.581  0.1038 -0.1862  0.1217
 6369W        W 9888   8.710   8.280  11.982 -0.0869 -0.2188  0.0617
 6370W        W 9889   6.458   7.889   3.365 -0.0910  0.0044 -0.1289
 6371W        W 9890   9.607   7.858   3.346  0.0560 -0.0920 -0.2233
 6372W        W 9891   9.572   9.675  10.251  0.0218 -0.0066 -0.0566
 6373W        W 9892   6.775   1.892  11.431 -0.1463 -0.1321 -0.0374
 6374W        W 9893   1.699   2.902   1.875  0.0803  0.0818 -0.3604
 6375W        W 9894   9.455   8.906   1.721 -0.1601 -0.2224  0.4028
 6376W        W 9895   9.083   5.281  12.237 -0.2731  0.0712  0.0242
 6377W        W 9896   2.929   3.154  12.435 -0.0256  0.0298 -0.1371
 6378W        W 9897   8.513   2.152  12.084  0.3829  0.3429 -0.0736
 6379W        W 9898   7.764   5.999  10.132 -0.3815  0.1834 -0.1327
 6380W        W 9899   1.216   6.027   2.767 -0.1207  0.2414 -0.1451
 6381W        W 9900   2.190   0.854   9.901  0.1107 -0.2928  0.2968
 6382W        W 9901   7.673   3.214  11.963  0.0780 -0.0867 -0.0882
 6383W        W 9902   1.593   7.297  11.954 -0.0093 -0.1398  0.1042
 6384W        W 9903   1.002   0.931   8.268 -0.0211  0.3743 -0.0787
 6385W        W 9904   9.462   5.263   1.350  0.4512  0.0265  0.0706
 6386W        W 9905   5.939   0.778  10.288  0.1208  0.1120  0.0049
 6387W        W 9906   1.160   0.540   9.172  0.0249 -0.0040  0.1250
 6388W        W 9907   8.979   4.902   2.013  0.2822 -0.0011  0.0873
 6389W        W 9908   0.541   5.286   9.921 -0.1750 -0.1742  0.1157
 6390W        W 9909   8.391   7.292   0.689  0.0680 -0.0280  0.3463
 6391W        W 9910   4.978   6.249  11.874  0.0521  0.0945 -0.3635
 6392W        W 9911   4.827   4.768   3.266 -0.3234 -0.1241  0.1599
 6393W        W 9912   2.889   6.030   0.950 -0.2081 -0.2310 -0.0893
 6394W        W 9913   2.296   0.131  12.427 -0.0060  0.3373 -0.0834
 6395W        W 9914   8.973   9.150   0.209 -0.2894  0.1765 -0.2266
 6396W        W 9915   5.574   8.476  11.227 -0.0663 -0.1421  0.3921
 6397W        W 9916   3.320   6.521   4.476 -0.0629  0.2993  0.3042
 6398W        W 9917   8.005   0.505  11.649  0.0310  0.0377  0.0307
 6399W        W 9918   6.467   6.552   3.759 -0.0033  0.0311 -0.0365
 6400W        W 9919   0.004   2.611  10.338  0.0846  0.1572  0.3589
 6401W        W 9920   8.652   3.419  11.117  0.0038 -0.1330  0.4102
 6402W        W 9921   0.752   1.930   3.018 -0.0628 -0.1972  0.2029
 6403W        W 9922   2.005   9.444   9.492 -0.0791 -0.1788  0.5013
 6404W        W 9923   8.387   3.112  10.207 -0.1520  0.2434  0.2681
 6405W        W 9924   3.157   3.235  11.708  0.1694  0.4177 -0.1200
 6406W        W 9925   3.252   1.135   0.236  0.2059  0.2822  0.2252
 6407W        W 9926   5.488   7.382   8.764  0.1509  0.0021 -0.4392
 6408W        W 9927   1.699   5.515  11.657 -0.2818 -0.2146 -0.0926
 6409W        W 9928   4.357   3.746   0.541  0.1471 -0.0670 -0.4457
 6410W        W 9929   1.214   7.571   3.602  0.2046 -0.2222  0.2052
 6411W        W 9930   4.605   0.108   0.609  0.1854 -0.1886 -0.1161
 6412W        W 9931   8.132   1.042   9.134 -0.1691  0.1783  0.1989
 6413W        W 9932   0.173   4.577   4.667 -0.1245 -0.4399 -0.0016
 6414W        W 9933   7.353   0.549   4.128  0.3457  0.4390  0.0793
 6415W        W 9934   7.119   9.102  11.041  0.1858  0.1796  0.1930
 6416W        W 9935   9.135   8.663   4.988  0.1925 -0.1398  0.1280
 6417W        W 9936   8.726   5.258  11.795 -0.3044  0.0684 -0.2889
 6418W        W 9937   8.154   8.062   4.961  0.2231  0.0152  0.3132
 6419W        W 9938   4.223   4.500   9.269 -0.0615  0.2021  0.2334
 6420W        W 9939   4.061   2.412   9.481 -0.1041 -0.2240 -0.0202
 6421W        W 9940   6.284   0.008  10.069  0.3617 -0.3245  0.2420
 6422W        W 9941   2.460   9.634  11.185 -0.1670 -0.0707  0.0744
 6423W        W 9942   7.778   0.765  10.638  0.0134 -0.1882 -0.0975
 6424W        W 9943   1.950   6.098   0.951  0.0299  0.0251  0.2488
 6425W        W 9944   4.499   5.451   0.229 -0.0732 -0.0180 -0.1915
 6426W        W 9945   5.840   6.356   1.640  0.1382  0.0136  0.1628
 6427W        W 9946   8.008   2.176   1.665  0.0230  0.3581 -0.1723
 6428W        W 9947   2.404   7.532   4.969 -0.0759 -0.1147  0.0616
 6429W        W 9948   1.291   8.058   9.362 -0.1751 -0.3122 -0.0898
 6430W        W 9949   7.200   7.888   9.645 -0.1675  0.2797  0.1175
 6431W        W 9950   2.604   7.839   0.698  0.1192 -0.1904  0.2401
 6432W        W 9951   3.185   6.872   3.458 -0.0977  0.2136  0.1431
 6433W        W 9952   6.864   1.102   9.552  0.0603 -0.1869 -0.0126
 6434W        W 9953   9.339   1.364   3.597 -0.0127 -0.0337  0.1833
 6435W        W 9954   4.520   0.473   3.914 -0.1089 -0.0637  0.1710
 6436W        W 9955   1.813   2.518   5.162  0.1496 -0.1097  0.1581
 6437W        W 9956   2.440   0.585  10.671  0.0299  0.3039  0.3518
 6438W        W 9957   1.393   9.219   2.320 -0.0583  0.1100 -0.3380
 6439W        W 9958   7.741   0.549   0.847 -0.1711 -0.1571  0.2115
 6440W        W 9959   2.903   6.000   2.328  0.1152  0.0009 -0.0801
 6441W        W 9960   1.704   4.301   3.822 -0.3464  0.2950 -0.1465
 6442W        W 9961   0.369   6.633   2.888  0.1113  0.3956 -0.1347
 6443W        W 9962   5.943   0.817   0.554 -0.1292  0.2296 -0.1348
 6444W        W 9963   7.792   1.841  10.452  0.0013 -0.0098  0.0575
 6445W        W 9964   1.912   8.677   0.572 -0.1762  0.3087 -0.0258
 6446W        W 9965   3.149   3.749  10.212  0.3440 -0.2195  0.0485
 6447W        W 9966   1.490   3.526   8.485  0.0490 -0.3149  0.0412
 6448W        W 9967   3.363   0.523   9.030 -0.0125 -0.1761 -0.3598
 6449W        W 9968   1.186   3.819   2.027  0.0768 -0.1216  0.3500
 6450W        W 9969   5.569   5.950   2.763 -0.0864 -0.0939  0.2068
 6451W        W 9970   5.524   8.564   0.862 -0.0877 -0.0719 -0.2879
 6452W        W 9971   5.561   2.606  10.886  0.0885  0.2498  0.0581
 6453W        W 9972   5.435   0.116  11.313 -0.1474  0.0063 -0.4230
 6454W        W 9973   8.404   8.491   4.765  0.0426 -0.0390 -0.3757
 6455W        W 9974   2.895   4.647   2.115 -0.1197  0.1953  0.0668
 6456W        W 9975   4.414   9.328   8.507  0.2568 -0.2458  0.0635
 6457W        W 9976   1.846   8.714   2.131  0.0675 -0.2732  0.2668
 6458W        W 9977   8.082   7.744   2.352 -0.3004 -0.0741 -0.2042
 6459W        W 9978   2.146   1.172   1.725 -0.0667 -0.0102 -0.1909
 6460W        W 9979   7.916   3.786  10.883 -0.0674 -0.0453 -0.2356
 6461W        W 9980   1.927   7.690  10.957 -0.1924 -0.4356  0.1856
 6462W        W 9981   8.686   1.805   2.015  0.1693 -0.0041  0.2946
 6463W        W 9982   7.462   1.443   3.100  0.1143  0.1030 -0.1018
 6464W        W 9983   9.349   9.174   0.566 -0.2470  0.2880 -0.0375
 6465W        W 9984   5.411   2.888  11.981 -0.2147  0.2006  0.0403
 6466W        W 9985   6.258   3.935   1.640  0.0523  0.3128  0.1604
 6467W        W 9986   4.328   3.955   1.275 -0.2045  0.4064  0.1089
 6468W        W 9987   9.038   2.165   9.892  0.0496 -0.1464  0.1044
 6469W        W 9988   4.564   7.256   8.831 -0.0279  0.0341 -0.0419
 6470W        W 9989   7.471   3.007   3.232 -0.0754 -0.0364 -0.0101
 6471W        W 9990   1.718   1.845  12.359 -0.3390  0.1487 -0.0379
 6472W        W 9991   5.004   9.488   3.460  0.0050 -0.1503 -0.1339
 6473W        W 9992   0.527   9.492   3.279  0.0545 -0.0009 -0.0665
 6474W        W 9993   1.258   5.731   0.396  0.1111 -0.1346 -0.1214
 6475W        W 9994   6.737   0.864   9.982  0.1129  0.1538 -0.0209
 6476W        W 9995   4.477   7.082  12.278 -0.0856 -0.0067 -0.0537
 6477W        W 9996   8.443   3.715   0.829  0.0665  0.0656  0.1821
 6478W        W 9997   9.341   3.468   2.177  0.1577  0.0099 -0.1728
 6479W        W 9998   5.503   6.752   4.437  0.3022 -0.0059  0.2288
 6480W        W 9999   3.426   2.729  11.409  0.2149 -0.1816 -0.2790
 6481W        W10000   3.204   3.712   2.204 -0.2207 -0.1538  0.0294
 6482W        W10001   5.339   0.138  12.459  0.2881 -0.2078  0.0732
 6483W        W10002   9.505   4.786   1.750 -0.1914  0.0557  0.2169
 6484W        W10003   8.158   5.782   2.291  0.4033 -0.0575  0.1364
 6485W        W10004   9.406   0.183   1.383  0.1964 -0.0047  0.2682
 6486W        W10005   6.858   3.540   3.458  0.0832 -0.0951 -0.1909
 6487W        W10006   1.045   2.026   1.959 -0.1241  0.0918  0.0532
 6488W        W10007   1.506   8.025   2.493 -0.2170 -0.4359  0.0565
 6489W        W10008   7.967   0.162   9.091 -0.3107  0.1948  0.1079
 6490W        W10009   3.044   7.378   8.864 -0.0704  0.0330  0.2483
 6491W        W10010   8.033   8.744   0.803 -0.1321  0.1423  0.2756
 6492W        W10011   6.947   2.200  11.040  0.2672  0.1540 -0.1455
 6493W        W10012   6.894   5.557   2.517  0.3182 -0.0398 -0.0133
 6494W        W10013   0.651   0.863   3.433 -0.6080 -0.2637 -0.1749
 6495W        W10014   0.229   9.095   0.393  0.1194 -0.2047  0.3050
 6496W        W10015   7.020   5.418   2.967 -0.3846 -0.2352  0.0473
 6497W        W10016   8.246   6.414   4.182  0.0565 -0.2815 -0.1704
 6498W        W10017   2.742   3.795  11.483 -0.2659  0.2247 -0.0017
 6499W        W10018   4.324   0.249  12.331 -0.1007  0.0077  0.5870
 6500W        W10019   8.830   6.691   3.742  0.0556  0.0230  0.1271
 6501W        W10020   8.751   8.924  11.930  0.0711  0.2557 -0.0911
 6502W        W10021   8.715   4.903  12.156  0.0822 -0.3296  0.3567
 6503W        W10022   7.353   0.451   2.721  0.0040  0.3806  0.2675
 6504W        W10023   3.150   0.267   2.055  0.0644  0.1687 -0.1525
 6505W        W10024   7.563   5.863  11.313  0.1895  0.1310  0.1583
 6506W        W10025   4.129   6.397   8.760  0.0500 -0.1291 -0.1342
 6507W        W10026   2.434   0.393   3.033 -0.0758  0.0135  0.2682
 6508W        W10027   6.077   1.857  10.640  0.0878 -0.3772  0.1839
 6509W        W10028   4.288   8.162   8.516  0.1916 -0.0991  0.3286
 6510W        W10029   8.351   6.380  10.929  0.0214  0.2703  0.2995
 6511W        W10030   7.604   6.406   2.615 -0.0120  0.1573 -0.0244
 6512W        W10031   1.528   1.481   0.561  0.1667 -0.0198  0.2560
 6513W        W10032   7.365   2.087  11.752  0.3308 -0.1328 -0.0961
 6514W        W10033   6.900   9.213   4.144 -0.4187 -0.1298  0.2634
 6515W        W10034   9.364   2.938   0.836  0.1249 -0.2675 -0.2866
 6516W        W10035   1.292   2.332   2.370  0.0571 -0.0432  0.1839
 6517W        W10036   1.973   2.663  11.220  0.2654  0.3106  0.0818
 6518W        W10037   8.969   1.108  10.381 -0.1058  0.1415  0.1195
 6519W        W10038   0.756   5.083   8.588 -0.0340 -0.0297  0.3516
 6520W        W10039   3.352   2.867  10.101  0.1483  0.0620  0.0983
 6521W        W10040   5.290   8.128   1.198  0.2788 -0.0569 -0.1189
 6522W        W10041   2.200   3.216  10.335  0.1221 -0.0461  0.0649
 6523W        W10042   8.711   0.112  12.268  0.0511 -0.4482 -0.2488
 6524W        W10043   6.966   2.004   3.434 -0.4881 -0.0255 -0.0481
 6525W        W10044   0.368   6.637  10.229  0.3171  0.3624 -0.1787
 6526W        W10045   6.158   3.457  12.467 -0.1861  0.1450  0.1188
 6527W        W10046   4.197   7.033   4.247  0.0896  0.0608  0.0200
 6528W        W10047   2.927   7.091   1.994 -0.1845  0.0371 -0.1932
 6529W        W10048   2.542   3.938  11.920  0.3311  0.2115  0.0367
 6530W        W10049   3.224   2.848   3.949 -0.1849  0.0174 -0.1208
 6531W        W10050   2.925   2.686   8.921 -0.0737 -0.1904 -0.0969
 6532W        W10051   0.041   6.023  12.307  0.0086 -0.0946  0.0503
 6533W        W10052   4.458   0.761   2.148 -0.0107  0.3631  0.0930
 6534W        W10053   0.964   4.189   0.407  0.1806  0.0164  0.0698
 6535W        W10054   6.291   7.432  11.366  0.1318  0.1020  0.3759
 6536W        W10055   3.633   2.537  10.260  0.0785 -0.0702  0.1552
 6537W        W10056   3.002   7.778  12.438  0.1343  0.1587 -0.1994
 6538W        W10057   2.018   5.836   2.226  0.0677  0.3373 -0.0892
 6539W        W10058   9.665   4.718   0.639 -0.0424  0.0511  0.0956
 6540W        W10059   9.670   7.319  11.044  0.2421 -0.0079  0.2929
 6541W        W10060   1.274   2.261  10.027  0.0796 -0.2632  0.0137
 6542W        W10061   5.786   4.276  11.389  0.0041  0.1974  0.1891
 6543W        W10062   0.598   1.974  11.128 -0.0538 -0.0771  0.1804
 6544W        W10063   8.919   6.098   0.739 -0.0128  0.2393  0.4506
 6545W        W10064   8.043   9.255   0.798 -0.1674 -0.0811 -0.0782
 6546W        W10065   6.896   5.105  11.938  0.0060  0.1869 -0.2708
 6547W        W10066   0.342   8.772   4.009  0.1381 -0.1578  0.0965
 6548W        W10067   6.433   3.283  12.124 -0.0185 -0.0737 -0.3828
 6549W        W10068   7.585   8.446   1.374  0.1029  0.1289 -0.2572
 6550W        W10069   4.133   1.138  10.855  0.0881  0.1476  0.0927
 6551W        W10070   4.482   5.531   3.647 -0.2237  0.0995  0.2160
 6552W        W10071   2.409   5.950   1.087 -0.2117  0.1448  0.3385
 6553W        W10072   5.841   8.647  12.123  0.0689  0.1766 -0.0439
 6554W        W10073   5.489   4.448  11.788  0.3358 -0.2022 -0.1280
 6555W        W10074   2.401   1.080  10.777 -0.1077 -0.2481  0.2972
 6556W        W10075   7.495   6.465   2.120 -0.1211  0.1536  0.0435
 6557W        W10076   5.505   4.730   8.534 -0.0667  0.1823 -0.0753
 6558W        W10077   3.686   1.313   0.220  0.0955 -0.0021 -0.0769
 6559W        W10078   3.205   2.676   2.096  0.0391  0.0252 -0.0787
 6560W        W10079   4.030   7.485   2.386 -0.3742 -0.0780  0.0921
 6561W        W10080   3.199   6.646   1.687 -0.3630  0.5532 -0.2658
 6562W        W10081   1.301   4.630  10.395 -0.1628  0.1694  0.0954
 6563W        W10082   5.527   4.503   9.390  0.2770  0.0167 -0.1883
 6564W        W10083   5.865   5.648  11.269 -0.0299  0.3260  0.1074
 6565W        W10084   0.092   3.661   4.593  0.0772  0.1528 -0.0504
 6566W        W10085   4.087   4.823  11.255  0.1799 -0.0574 -0.1276
 6567W        W10086   0.906   4.313   3.269 -0.0985  0.0866  0.3668
 6568W        W10087   6.336   2.659  11.849  0.1102  0.1844  0.0162
 6569W        W10088   0.715   4.108   8.749  0.1537 -0.1460  0.1227
 6570W        W10089   7.139   0.004   1.398  0.2295  0.0243 -0.2811
 6571W        W10090   2.038   9.389   4.988  0.1247 -0.2196 -0.0028
 6572W        W10091   5.089   0.421   3.293 -0.0834 -0.0040  0.2723
 6573W        W10092   0.242   4.330   0.945  0.1444 -0.2409  0.5413
 6574W        W10093   4.332   5.842   1.837  0.1424  0.0799 -0.3637
 6575W        W10094   9.477   7.908  12.238 -0.1595 -0.0048 -0.0425
 6576W        W10095   1.442   4.906   4.933 -0.2914 -0.2208  0.4103
 6577W        W10096   6.620   0.523  12.229  0.0293  0.2059  0.0990
 6578W        W10097   0.875   8.100  11.929 -0.1011  0.0732  0.0196
 6579W        W10098   8.074   2.593   2.498  0.0552  0.1094 -0.1974
 6580W        W10099   2.428   9.249  11.622  0.0005  0.3341 -0.2068
 6581W        W10100   3.479   1.777  12.288 -0.2204  0.1802  0.0617
 6582W        W10101   1.675   0.107  10.746 -0.2337  0.0053  0.1897
 6583W        W10102   8.019   6.333   2.228  0.1455  0.0824  0.0258
 6584W        W10103   9.057   2.230   3.258 -0.0990 -0.2270  0.2392
 6585W        W10104   5.057   0.118   0.511  0.0621  0.2628  0.0530
 6586W        W10105   8.733   6.577   2.879  0.0893 -0.2212  0.1697
 6587W        W10106   5.022   4.404   2.883  0.0078 -0.0248  0.2506
 6588W        W10107   7.152   1.985   9.315 -0.0716  0.2169  0.1341
 6589W        W10108   4.488   6.355  11.634 -0.2301  0.0243  0.2483
 6590W        W10109   8.113   7.694   1.014  0.3046  0.1030  0.2283
 6591W        W10110   2.014   3.591   5.152 -0.1465 -0.0649  0.1581
 6592W        W10111   4.315   7.177   2.052 -0.1036 -0.1473 -0.0090
 6593W        W10112   1.489   9.374  12.549 -0.1992  0.1846  0.1459
 6594W        W10113   3.399   0.774   4.856 -0.2775 -0.1403 -0.2074
 6595W        W10114   0.197   4.302   4.074 -0.0962 -0.1121 -0.0279
 6596W        W10115   5.698   5.741  12.563 -0.2602 -0.0605  0.1501
 6597W        W10116   1.411   8.635   3.267  0.1773  0.1922 -0.1642
 6598W        W10117   4.601   6.769   0.880  0.3323  0.1760 -0.1079
 6599W        W10118   0.277   6.172   3.094  0.0636 -0.3991 -0.0197
 6600W        W10119   8.125   5.287   1.503 -0.2332 -0.1949  0.2314
 6601W        W10120   0.700   0.434   2.905 -0.2376 -0.2424  0.0782
 6602W        W10121   0.655   0.994   0.992 -0.2887  0.2780 -0.4885
 6603W        W10122   2.986   9.291  10.170 -0.0500 -0.1141 -0.0121
 6604W        W10123   3.347   1.104   4.542 -0.0150 -0.0035 -0.2305
 6605W        W10124   4.493   1.580  11.317  0.0998  0.3756 -0.1955
 6606W        W10125   8.840   1.961   0.315  0.0708 -0.1793 -0.0172
 6607W        W10126   5.514   8.048  12.528 -0.0429 -0.0265 -0.0011
 6608W        W10127   2.898   6.196   1.806  0.1360  0.1645 -0.0795
 6609W        W10128   1.353   7.540  12.319  0.2879 -0.0220  0.0977
 6610W        W10129   0.382   4.913   1.511  0.0970  0.1707 -0.0991
 6611W        W10130   8.160   7.244  11.311 -0.0063 -0.0886 -0.1052
 6612W        W10131   1.722   1.220  10.023 -0.0064 -0.2393  0.4024
 6613W        W10132   3.101   1.331   8.716  0.1044 -0.3476 -0.0798
 6614W        W10133   2.661   4.617   9.129 -0.0385  0.1062 -0.0827
 6615W        W10134   2.607   9.303  10.761  0.1701 -0.0646  0.1352
 6616W        W10135   4.216   3.841   1.762 -0.0648 -0.3918  0.0116
 6617W        W10136   7.345   1.915  10.717  0.3399  0.2396  0.1516
 6618W        W10137   0.234   7.869   9.639 -0.1731 -0.2239 -0.0238
 6619W        W10138   1.326   4.394   0.121  0.1736 -0.1451 -0.0501
 6620W        W10139   8.775   1.550   0.981 -0.2867 -0.3148 -0.1418
 6621W        W10140   0.541   0.690   8.287  0.1098 -0.0656 -0.1206
 6622W        W10141   9.281   7.167  10.596  0.1408 -0.1601 -0.0583
 6623W        W10142   5.017   8.838   1.832 -0.2415  0.0866  0.0874
 6624W        W10143   8.875   3.478   1.997 -0.0926 -0.4157 -0.1070
 6625W        W10144   1.660   0.273   1.751  0.1431  0.1270 -0.1015
 6626W        W10145   5.376   0.002   1.788 -0.0497 -0.2200  0.3798
 6627W        W10146   8.934   3.160   0.627  0.3145  0.1081  0.1812
 6628W        W10147   3.810   4.467   0.704  0.1615 -0.1744 -0.1702
 6629W        W10148   5.465   8.305   0.481 -0.1402  0.2582  0.1987
 6630W        W10149   7.766   7.508   3.419 -0.3003  0.1492  0.2207
 6631W        W10150   6.966   0.081   2.480 -0.1555 -0.1161 -0.1261
 6632W        W10151   9.056   0.810   3.727 -0.3751  0.0892  0.2384
 6633W        W10152   4.949   1.686   1.295 -0.3610 -0.2030  0.1582
 6634W        W10153   8.216   6.965   3.599  0.0228  0.3577  0.3451
 6635W        W10154   8.801   6.483   5.114 -0.2368  0.0765 -0.1518
 6636W        W10155   4.888   8.078   4.641 -0.1748  0.4533  0.1709
 6637W        W10156   7.400   7.878   3.559  0.0634  0.2522  0.1668
 6638W        W10157   3.162   2.184   0.986 -0.0624 -0.1325 -0.1690
 6639W        W10158   3.530   0.595  11.675  0.3227 -0.0467  0.2889
 6640W        W10159   4.159   5.542   0.984  0.1334 -0.1317 -0.0998
 6641W        W10160   6.341   5.761   2.522 -0.0844 -0.0321 -0.0185
 6642W        W10161   4.929   7.341   0.094 -0.6108 -0.0736 -0.0257
 6643W        W10162   8.924   7.473   1.867 -0.2054 -0.0472 -0.0557
 6644W        W10163   8.001   5.021  11.143  0.0789 -0.0991  0.2741
 6645W        W10164   6.560   3.415  11.648  0.1549  0.0621  0.3062
 6646W        W10165   5.676   6.759   9.814 -0.0405  0.1374 -0.1399
 6647W        W10166   4.401   1.969   3.313 -0.2974  0.0178  0.0202
 6648W        W10167   5.147   4.868   8.938 -0.0917 -0.1236  0.0407
 6649W        W10168   6.502   1.820   1.286  0.2447  0.0396  0.1352
 6650W        W10169   8.495   1.581   4.292  0.1722  0.3387  0.1288
 6651W        W10170   8.063   9.190   1.669  0.0413  0.1709  0.0499
 6652W        W10171   5.633   3.496   0.101 -0.2267 -0.1051  0.0406
 6653W        W10172   0.746   7.549   8.791 -0.0537  0.0215 -0.1624
 6654W        W10173   3.552   5.300   0.747 -0.1777 -0.2269  0.3389
 6655W        W10174   8.062   5.561  12.287 -0.1927  0.1574  0.0297
 6656W        W10175   6.942   0.858  12.070  0.2929  0.1397 -0.1953
 6657W        W10176   1.893   6.868  12.056 -0.2235 -0.3142  0.3601
 6658W        W10177   1.662   7.906   9.020  0.0299 -0.1669 -0.1523
 6659W        W10178   2.652   3.086   8.926 -0.0985 -0.1561 -0.1807
 6660W        W10179   7.729   2.151   0.397 -0.0218  0.0611  0.1125
 6661W        W10180   6.880   8.106  11.576 -0.0042 -0.1356 -0.1837
 6662W        W10181   3.443   1.063  11.944  0.0374 -0.2237 -0.0775
 6663W        W10182   4.614   7.863   9.587 -0.1150 -0.2024  0.1822
 6664W        W10183   8.944   7.031   2.879  0.0226  0.1309 -0.3560
 6665W        W10184   0.459   6.732   1.629  0.0875 -0.0099  0.0391
 6666W        W10185   5.868   9.004   9.487 -0.1275 -0.5056 -0.1715
 6667W        W10186   6.427   6.419   2.705 -0.2275 -0.1376  0.2510
 6668W        W10187   5.299   4.038   3.066  0.1961 -0.0875 -0.0875
 6669W        W10188   8.721   4.028   1.150 -0.0762  0.1445  0.0422
 6670W        W10189   1.520   7.900  10.624 -0.2024  0.2749  0.2003
 6671W        W10190   7.999   2.416   0.782  0.4584 -0.3761 -0.1072
 6672W        W10191   4.391   4.852  12.092 -0.1189  0.1212 -0.2480
 6673W        W10192   8.594   9.413  11.934 -0.1850  0.1900 -0.0584
 6674W        W10193   1.048   4.798   4.645  0.0370  0.2062  0.1309
 6675W        W10194   2.581   7.162   4.398  0.1732  0.0359 -0.0327
 6676W        W10195   3.293   1.573  10.126 -0.5716  0.0228  0.1161
 6677W        W10196   1.543   8.634  11.383  0.0080  0.3935  0.1066
 6678W        W10197   9.374   7.158   9.191  0.0912  0.0215 -0.5392
 6679W        W10198   3.937   1.359  11.284  0.0141  0.0561 -0.2481
 6680W        W10199   6.871   2.727   1.123 -0.1368  0.1322 -0.3186
 6681W        W10200   4.943   6.276   1.168 -0.3471  0.1504  0.2296
 6682W        W10201   6.951   2.433   3.784 -0.0501  0.1520 -0.0231
 6683W        W10202   2.736   2.623  12.440 -0.0224  0.1152 -0.0770
 6684W        W10203   0.173   0.448   3.764 -0.2737 -0.2608  0.3249
 6685W        W10204   4.104   1.057   9.689 -0.0019  0.1959 -0.3084
 6686W        W10205   8.380   4.916  10.304  0.1354 -0.0696  0.1022
 6687W        W10206   0.162   3.916   2.384 -0.0933 -0.1205 -0.0074
 6688W        W10207   6.089   8.895  10.349  0.2130  0.1867  0.0738
 6689W        W10208   5.373   8.212  10.078  0.1032 -0.0034  0.0398
 6690W        W10209   7.540   8.219  11.029  0.2514  0.3098  0.2366
 6691W        W10210   8.801   4.172  11.512 -0.0622 -0.1896  0.1335
 6692W        W10211   4.004   6.930   9.661  0.0176 -0.0958  0.0295
 6693W        W10212   2.302   8.601   2.087 -0.1192  0.1171 -0.1972
 6694W        W10213   1.745   8.846   9.227 -0.2452  0.2715  0.1036
 6695W        W10214   0.190   7.014   9.413  0.0536  0.2158  0.2921
 6696W        W10215   5.774   4.102   1.786 -0.1599  0.1570 -0.0885
 6697W        W10216   4.453   1.609   1.471 -0.0266 -0.4207  0.0343
 6698W        W10217   1.913   8.305  10.715  0.1056  0.0096 -0.1043
 6699W        W10218   5.046   0.884  11.144  0.2186  0.1923 -0.1479
 6700W        W10219   7.014   2.459   0.721 -0.3974 -0.3604  0.1444
 6701W        W10220   7.752   7.298   0.080  0.1923  0.1739 -0.0173
 6702W        W10221   3.304   8.449   8.742  0.2641  0.0124 -0.2447
 6703W        W10222   9.590   6.653   3.113  0.1763  0.1836  0.2479
 6704W        W10223   8.603   6.983   4.918  0.1593 -0.3299  0.3246
 6705ION    NA+10224   5.696   3.061   1.600  0.0744  0.2746 -0.3284
 6706ION    NA+10225   5.706   8.068  11.967  0.0402  0.0311  0.0095
 6707ION    NA+10226   2.878   0.443  10.375  0.0116  0.4629  0.1125
 6708ION    NA+10227   9.112   1.464   1.494  0.3365  0.1157  0.2147
 6709ION    NA+10228   5.612   4.381  12.319  0.0837  0.0560  0.1756
 6710ION    NA+10229   7.817   8.754   8.352  0.0316 -0.1827  0.0656
 6711ION    NA+10230   3.861   2.031   8.685 -0.3025  0.3682 -0.2451
 6712ION    NA+10231   0.915   8.660   2.007 -0.0127  0.2280 -0.1672
 6713ION    NA+10232   1.605   8.114   1.557  0.2361 -0.0864 -0.0898
 6714ION    NA+10233   3.519   7.229   3.573  0.0823 -0.1257  0.0129
 6715ION    NA+10234   3.720   4.102   4.842 -0.1796  0.2102  0.0883
 6716ION    NA+10235   3.359   7.785   8.198  0.2340 -0.0478 -0.0195
 6717ION    NA+10236   6.392   4.161  11.226 -0.0969 -0.0558  0.0936
 6718ION    NA+10237   7.992   8.355  10.819  0.0574 -0.3064  0.1271
 6719ION    NA+10238   4.396   6.201   2.132 -0.2716 -0.0532 -0.1619
 6720ION    NA+10239   3.030   5.078   2.586 -0.3677  0.0272  0.1898
 6721ION    NA+10240   6.009   4.712   3.974  0.0784 -0.4092  0.0969
 6722ION    NA+10241   7.649   7.916   2.237  0.2754  0.0198 -0.0053
 6723ION    NA+10242   6.420   1.335   1.311  0.0009 -0.0450 -0.1094
 6724ION    NA+10243   2.552   5.033   3.831 -0.0440  0.1089  0.4996
 6725ION    NA+10244   2.101   2.320   8.479  0.1309 -0.2862  0.0353
 6726ION    NA+10245   5.988   0.552   1.287 -0.3340  0.0375 -0.1716
 6727ION    NA+10246   8.503   3.207  10.695  0.0097 -0.1154 -0.0311
 6728ION    NA+10247   2.223   0.024   9.924  0.1747 -0.0408  0.4268
 6729ION    NA+10248   0.852   2.449   1.701 -0.1923 -0.2536 -0.2978
 6730ION    NA+10249   0.908   7.771   3.181  0.1598  0.1193  0.0365
 6731ION    NA+10250   2.160   2.160  12.126 -0.2331  0.0297  0.1515
 6732ION    NA+10251   0.827   2.623   9.797 -0.1708  0.0916  0.0703
 6733ION    NA+10252   3.500   6.776  10.741 -0.2165 -0.0420 -0.0167
 6734ION    NA+10253   0.187   4.733   0.121  0.3490  0.2012  0.2401
 6735ION    NA+10254   0.478   5.726   9.083  0.1211 -0.2595  0.1448
 6736ION    NA+10255   4.467   1.424   4.343  0.0020 -0.0845 -0.2601
 6737ION    NA+10256   2.410   8.460   8.408 -0.2019 -0.0835 -0.1747
 6738ION    NA+10257   4.135   6.597  11.365  0.0112 -0.0067  0.2171
 6739ION    NA+10258   0.588   9.595  11.978 -0.1434 -0.0759 -0.0911
 6740ION    NA+10259   6.070   9.621  10.916 -0.2884 -0.0909  0.2913
 6741ION    NA+10260   5.887   1.265   9.034 -0.0401  0.1259 -0.2172
 6742ION    NA+10261   8.459   0.409   3.797 -0.2046 -0.4438  0.2353
 6743ION    NA+10262   8.966   5.325   2.272 -0.2050 -0.0685  0.1462
 6744ION    NA+10263   7.933   6.746   9.061  0.0836  0.1698 -0.1336
 6745ION    NA+10264   3.690   0.273   4.869 -0.0271  0.0282 -0.2438
 6746ION    NA+10265   8.933   9.641   3.121  0.1972  0.3357  0.2448
 6747ION    NA+10266   1.241   6.755   3.183  0.0041 -0.1018  0.0817
 6748ION    NA+10267   2.637   9.098   2.452 -0.1945 -0.0530  0.1877
 6749ION    NA+10268   6.490   3.869   3.365 -0.0792  0.0432 -0.0337
 6750ION    NA+10269   2.917   1.928   4.251 -0.0447  0.1386 -0.0157
 6751ION    NA+10270   0.450   4.151   8.307  0.1566 -0.1662 -0.1280
 6752ION    NA+10271   4.385   3.995   3.264 -0.0914 -0.3442 -0.0526
 6753ION    NA+10272   8.112   5.009   4.136  0.0470 -0.1177 -0.0336
 6754ION    NA+10273   0.909   7.319  10.076 -0.1252  0.3817 -0.0496
 6755ION    NA+10274   3.123   5.798  10.018  0.0454 -0.1460 -0.0510
 6756ION    NA+10275   4.482   2.647   4.375 -0.1459  0.1753  0.0341
 6757ION    NA+10276   3.113   1.191  10.920  0.3880 -0.3346 -0.0326
 6758ION    NA+10277   1.063   6.729   4.553  0.0819  0.0187  0.0993
 6759ION    NA+10278   2.897   7.391   0.143  0.0313  0.2688  0.0874
 6760ION    NA+10279   0.745   1.053   2.372  0.1871 -0.1190 -0.2524
 6761ION    NA+10280   4.380   8.044   3.875 -0.1587 -0.0967  0.5164
 6762ION    NA+10281   5.853   3.938   0.327  0.3249  0.0007 -0.0699
 6763ION    NA+10282   7.209   3.985  10.765 -0.1548 -0.2625  0.0301
 6764ION    NA+10283   0.785   6.474   0.137  0.0543  0.1156  0.2945
 6765ION    NA+10284   0.827   8.997  10.990 -0.0168 -0.1441  0.3342
 6766ION    NA+10285   7.187   1.463   9.321 -0.3136  0.1966 -0.0762
 6767ION    NA+10286   3.927   6.667   3.115  0.0555  0.0670  0.2856
 6768ION    NA+10287   8.200   2.490   0.048  0.2018  0.1040 -0.0660
 6769ION    NA+10288   1.264   5.074  11.637 -0.1523  0.1087 -0.0081
 6770ION    NA+10289   4.434   5.787   4.882  0.1223 -0.3003 -0.0311
 6771ION    NA+10290   2.709   8.359   9.333  0.2024 -0.2552  0.0423
 6772ION    NA+10291   6.069   9.245   9.932  0.1351  0.0394 -0.0510
 6773ION    NA+10292   4.053   5.873   0.556 -0.2439 -0.1398  0.1317
 6774ION    NA+10293   2.873   8.495  11.160 -0.1343 -0.0168 -0.0407
 6775ION    NA+10294   7.589   8.356  12.095  0.0695 -0.0601  0.1707
 6776ION    CL-10295   3.870   8.293  10.974 -0.0781 -0.1067 -0.0205
 6777ION    CL-10296   0.340   6.559   8.637  0.1070 -0.2834 -0.2038
 6778ION    CL-10297   2.145   1.646  12.151 -0.2855  0.0988 -0.4700
 6779ION    CL-10298   3.381   0.807  10.820  0.2833  0.2201  0.1010
 6780ION    CL-10299   5.982   8.264  12.362 -0.1035 -0.1350  0.0145
 6781ION    CL-10300   1.602   4.773   0.201  0.2555  0.1945  0.4725
 6782ION    CL-10301   0.859   1.515   2.214  0.1060 -0.0937  0.0187
 6783ION    CL-10302   6.530   7.498   3.731  0.2987  0.0472  0.1274
 6784ION    CL-10303   0.829   7.783  10.080 -0.2165 -0.1506  0.1037
 6785ION    CL-10304   1.506   6.374   3.269 -0.1103 -0.0033 -0.0349
 6786ION    CL-10305   5.940   4.342   0.037 -0.3714 -0.5461 -0.1795
 6787ION    CL-10306   1.740   9.506   9.899  0.1303 -0.2419  0.1658
 6788ION    CL-10307   3.310   7.638  11.755 -0.0305  0.2124 -0.1817
 6789ION    CL-10308   9.215   4.029   0.421  0.1568 -0.1162 -0.0089
 6790ION    CL-10309   3.132   4.611   2.601 -0.4341  0.0769 -0.3501
 6791ION    CL-10310   2.521   7.608  12.410 -0.0783  0.0235 -0.1409
 6792ION    CL-10311   2.321   8.455  11.065 -0.4637  0.0496 -0.0774
 6793ION    CL-10312   3.876   6.106   2.325  0.1165  0.1126  0.2054
 6794ION    CL-10313   0.392   3.152   3.242  0.0280 -0.1043 -0.1315
 6795ION    CL-10314   7.346   8.276  11.549  0.1195  0.0033  0.1190
 6796ION    CL-10315   7.572   3.519  10.626 -0.3122 -0.0503  0.1106
 6797ION    CL-10316   5.666   3.880   2.752 -0.2040  0.2080 -0.0426
 6798ION    CL-10317   1.153   8.393   1.545 -0.0935 -0.2002  0.3422
 6799ION    CL-10318   3.946   0.496   1.206  0.0748  0.0681  0.3137
 6800ION    CL-10319   5.862   9.515  10.270 -0.1550 -0.1116 -0.0593
 6801ION    CL-10320   4.368   6.398   3.038 -0.1159 -0.0886 -0.2844
 6802ION    CL-10321   0.732   8.015   3.566 -0.2515 -0.0248  0.5193
 6803ION    CL-10322   1.108   4.956  11.159  0.1947 -0.0414  0.1068
 6804ION    CL-10323   0.501   2.384   9.487 -0.0298  0.1273 -0.0502
 6805ION    CL-10324   4.421   4.429   3.532  0.3083  0.0323 -0.0899
 6806ION    CL-10325   3.979   7.376   3.364  0.1582  0.0412  0.3305
 6807ION    CL-10326   4.659   3.525   3.280 -0.2773 -0.0415 -0.0870
 6808ION    CL-10327   7.306   7.742  12.323 -0.5468 -0.1623 -0.1806
 6809ION    CL-10328   2.897   0.434   3.276  0.1250  0.2283  0.3100
 6810ION    CL-10329   3.657   3.704   4.507  0.0415  0.0333 -0.1874
 6811ION    CL-10330   0.155   9.201   1.808 -0.0055  0.0107 -0.0812
 6812ION    CL-10331   2.092   4.863   3.797 -0.0699  0.0367 -0.0372
 6813ION    CL-10332   2.746   6.054   9.775  0.3518 -0.1170  0.1674
 6814ION    CL-10333   1.357   5.239   9.467 -0.1322  0.5299 -0.1831
 6815ION    CL-10334   4.729   3.940   8.806  0.0700 -0.2863 -0.1353
 6816ION    CL-10335   0.789   0.677   3.827  0.0082 -0.0265 -0.0107
 6817ION    CL-10336   3.765   6.093   0.202 -0.0056  0.0734  0.1590
 6818ION    CL-10337   1.297   2.732   9.710 -0.0712  0.0745 -0.0044
 6819ION    CL-10338   2.399   6.538   2.604  0.1051 -0.3909 -0.0506
 6820ION    CL-10339   7.590   7.581   2.590  0.0073  0.0144 -0.3924
 6821ION    CL-10340   5.795   6.707   3.396 -0.1576 -0.1869  0.4673
 6822ION    CL-10341   2.433   2.497   8.886  0.1005 -0.1565 -0.2382
 6823ION    CL-10342   2.372   0.454  10.188  0.3106 -0.0139  0.1076
 6824ION    CL-10343   7.988   8.635  10.381 -0.2519 -0.3545 -0.0602
 6825ION    CL-10344   6.797   4.265  10.897 -0.0561  0.0100 -0.1503
 6826ION    CL-10345   4.791   6.845   4.190  0.3081 -0.0815  0.1236
 6827ION    CL-10346   6.216   0.942   0.978 -0.0066 -0.1173  0.0926
 6828ION    CL-10347   8.899   0.271   3.637 -0.1936 -0.1015  0.0142
 6829ION    CL-10348   7.578   6.458   9.250 -0.1337  0.3811 -0.1764
 6830ION    CL-10349   2.953   8.762   9.052 -0.1634  0.1668  0.5627
 6831ION    CL-10350   8.818   2.748  12.574  0.0589  0.1341 -0.1365
 6832ION    CL-10351   0.085   5.469   9.134  0.1402 -0.1411  0.1102
 6833ION    CL-10352   1.399   2.434   1.894  0.0964  0.1948 -0.3020
 6834ION    CL-10353   9.624   5.362   3.410 -0.0845 -0.1272 -0.0877
 6835ION    CL-10354   5.804   8.966   8.994  0.0473  0.2349 -0.1033
 6836ION    CL-10355   1.005   7.241   3.164  0.2146  0.2764  0.0449
 6837ION    CL-10356   8.275   2.774  10.709 -0.2948 -0.0018 -0.0766
 6838ION    CL-10357   3.989   6.534  10.885 -0.3154  0.2676  0.1256
 6839ION    CL-10358   5.266   2.713   2.241  0.0579  0.0301 -0.1529
 6840ION    CL-10359   5.648   3.576   1.641  0.2214 -0.0564  0.0391
 6841ION    CL-10360   6.222   9.628  11.378 -0.0499 -0.1081  0.2439
 6842ION    CL-10361   9.162   8.834   3.692  0.1088  0.0755  0.0770
 6843ION    CL-10362   1.105   7.972   8.853  0.0166  0.0595 -0.2212
 6844ION    CL-10363   2.419   2.855  11.626  0.0717  0.2463 -0.2147
 6845ION    CL-10364   8.933   1.093   1.140  0.0020  0.0176  0.1141
 6846ION    CL-10365   2.429   9.543   2.729  0.1534  0.0415 -0.1843
   9.67646   9.67646  12.58909
