Protein in INSANE! Membrane UpperLeaflet>POPC=1.0 LowerLeaflet>POPC=1.0
10365
    1AU     AUC    1   1.495   1.102   6.274  0.0604  0.0195 -0.0493
    1AU     AUC    2   1.079   1.343   6.288  0.0142 -0.0041 -0.1082
    1AU     AUC    3   1.251   1.582   6.338  0.0624 -0.0036 -0.0468
    1AU     AUC    4   1.478   1.086   6.289  0.0035 -0.0466  0.0152
    1AU     AUC    5   1.718   1.136   6.529  0.0008  0.0157  0.0451
    1AU     AUC    6   1.453   1.186   6.550 -0.0779 -0.0893  0.0059
    1AU     AUC    7   1.168   1.354   6.517  0.0174 -0.0046  0.0697
    1AU     AUC    8   1.492   1.082   6.295  0.0350  0.0457  0.1266
    1AU     AUC    9   1.275   1.468   6.098  0.0327 -0.0751 -0.0908
    1AU     AUC   10   1.650   1.323   6.372  0.0302 -0.0414 -0.0348
    1AU     AUC   11   1.369   1.347   6.347  0.0557 -0.0000  0.0460
    1AU     AUC   12   1.471   1.093   6.279 -0.0710 -0.0124  0.0433
    1AU     AUC   13   1.206   1.104   6.422 -0.0294  0.0621 -0.0572
    1AU     AUC   14   0.954   1.484   6.370 -0.0006  0.0089  0.0900
    1AU     AUC   15   0.898   1.455   6.482 -0.0824 -0.0443  0.0341
    1AU     AUC   16   1.229   1.578   6.342 -0.0596  0.0154  0.1028
    1AU     AUC   17   1.380   0.887   6.448 -0.0543 -0.0587 -0.0270
    1AU     AUC   18   1.601   0.951   6.642 -0.0656 -0.0013 -0.1299
    1AU     AUC   19   1.735   1.139   6.590  0.0208  0.0064 -0.0194
    1AU     AUC   20   1.458   1.192   6.549  0.0135  0.0773  0.0931
    1AU     AUC   21   1.262   1.190   6.145  0.0108 -0.0280 -0.0490
    1AU     AUC   22   1.256   1.178   6.150  0.0250  0.0354  0.0128
    1AU     AUC   23   1.651   0.909   6.371  0.0427 -0.0467 -0.0033
    1AU     AUC   24   1.274   1.446   6.088  0.0444 -0.0423  0.0690
    1AU     AUC   25   1.080   1.579   6.101 -0.0549  0.0059  0.0322
    1AU     AUC   26   1.656   1.347   6.365 -0.1082 -0.0293  0.0117
    1AU     AUC   27   1.634   1.377   6.447  0.0341 -0.0265 -0.0636
    1AU     AUC   28   1.390   1.350   6.327 -0.0091 -0.0265 -0.0234
    1AU     AUC   29   1.003   1.081   6.204  0.0703  0.0690  0.0469
    1AU     AUC   30   1.195   1.105   6.405 -0.0875  0.0816  0.0762
    1AU     AUC   31   1.212   1.108   6.407  0.0032  0.0290  0.0189
    1AU     AUC   32   1.495   1.587   6.256  0.0277 -0.0760 -0.0526
    1AU     AUC   33   1.506   1.318   6.117  0.0318 -0.0479 -0.0004
    1AU     AUC   34   1.033   1.347   6.244  0.0591  0.0573 -0.0966
    1AU     AUC   35   1.063   1.342   6.273  0.0130  0.0435 -0.0867
    1AU     AUC   36   1.707   1.238   6.384 -0.0363 -0.0911 -0.1120
    1AU     AUC   37   1.669   1.362   6.642 -0.0147 -0.0791 -0.0152
    1AU     AUC   38   1.017   1.038   6.223  0.0622 -0.0603 -0.0118
    1AU     AUC   39   1.234   1.093   6.423  0.0114  0.0405 -0.0257
    1AU     AUC   40   1.144   1.370   6.491 -0.0095  0.1485 -0.0466
    1AU     AUC   41   1.158   1.336   6.549  0.0861  0.0276  0.0071
    1AU     AUC   42   1.441   1.099   6.575 -0.0148 -0.0120  0.0481
    1AU     AUC   43   1.714   1.191   6.650  0.0187 -0.0441  0.0266
    1AU     AUC   44   0.968   1.570   6.426  0.0292 -0.0029 -0.0283
    1AU     AUC   45   1.222   1.591   6.327  0.0195 -0.0537  0.0739
    1AU     AUC   46   1.310   0.687   6.361  0.1159 -0.0698  0.1347
    1AU     AUC   47   1.670   0.974   6.465  0.0105  0.0596  0.0751
    1AU     AUC   48   1.373   1.340   6.346 -0.0642  0.0575 -0.0316
    1AU     AUC   49   1.358   1.333   6.329 -0.0006  0.0533 -0.0360
    1AU     AUC   50   1.738   1.249   6.247 -0.0486  0.1413  0.0708
    1AU     AUC   51   1.437   1.592   6.118  0.0293 -0.1325  0.0402
    1AU     AUC   52   1.420   1.163   6.554  0.0008 -0.0309  0.0345
    1AU     AUC   53   1.246   1.189   6.142 -0.0130  0.0474 -0.0284
    1AU     AUC   54   1.024   1.045   6.194 -0.0653 -0.0287  0.0902
    1AU     AUC   55   1.200   1.460   6.072  0.0307 -0.0424 -0.0456
    1AU    AUSL   56   1.518   1.593   6.357  0.0182  0.0440 -0.0343
    1AU    AUSL   57   1.537   1.620   6.079 -0.1363 -0.0780 -0.1046
    1AU     AUL   58   1.271   1.685   5.902  0.0669 -0.0771 -0.0221
    1AU       S   59   1.568   2.227   5.983 -0.2451  0.2084 -0.1910
    1AU     LIG   60   1.608   2.258   5.576 -0.0794  0.1391  0.0656
    1AU     LIG   61   1.424   2.267   5.221 -0.0988 -0.0225  0.2211
    1AU     LIG   62   1.652   2.146   4.970 -0.0237  0.0727 -0.1960
    1AU       S   63   2.055   1.954   6.099 -0.1733 -0.1274  0.4286
    1AU     LIG   64   2.381   2.296   6.177 -0.1047 -0.0483  0.2748
    1AU     LIG   65   2.610   2.388   6.390 -0.0848 -0.2801  0.1412
    1AU     LIG   66   2.886   2.629   6.535 -0.0288 -0.0356  0.0127
    1AU    AUSL   67   1.718   1.771   6.366  0.0262  0.0146  0.0748
    1AU    AUSL   68   1.562   1.380   6.775 -0.0156  0.0193 -0.0459
    1AU     AUL   69   1.428   1.748   6.713 -0.0363  0.0702 -0.0801
    1AU       S   70   1.904   2.105   6.272 -0.0165 -0.2457 -0.2775
    1AU     LIG   71   1.951   2.479   6.040  0.3074 -0.1686  0.3805
    1AU     LIG   72   1.849   2.717   5.706 -0.0669  0.1894  0.0388
    1AU     LIG   73   1.736   3.107   5.637  0.0467 -0.1085 -0.1056
    1AU       S   74   1.818   1.646   7.202  0.2948 -0.2205  0.2716
    1AU     LIG   75   1.622   1.932   7.430  0.1564 -0.0735 -0.0777
    1AU     LIG   76   1.166   1.967   7.523 -0.2199  0.0662  0.0200
    1AU     LIG   77   0.700   1.925   7.404 -0.1654 -0.0506 -0.1286
    1AU    AUSL   78   1.525   1.337   6.114  0.0342  0.0186 -0.0257
    1AU    AUSL   79   1.264   0.923   6.209 -0.0583 -0.0530 -0.0047
    1AU     AUL   80   1.270   0.926   6.195  0.0420  0.1916 -0.0551
    1AU       S   81   2.033   1.856   5.905 -0.1501 -0.3664 -0.0621
    1AU     LIG   82   2.291   2.162   5.625  0.0858 -0.0278 -0.4389
    1AU     LIG   83   2.352   2.599   5.802 -0.1163 -0.1424  0.1101
    1AU     LIG   84   2.244   2.886   5.509 -0.2019  0.2590  0.0348
    1AU       S   85   1.654   0.346   6.007  0.0697 -0.2880 -0.1122
    1AU     LIG   86   1.842  -0.059   6.024 -0.1120  0.1555  0.2340
    1AU     LIG   87   2.204  -0.363   6.073  0.0045  0.1418 -0.2376
    1AU     LIG   88   2.233  -0.658   6.271 -0.1363 -0.2192 -0.2491
    1AU    AUSL   89   0.679   1.487   6.325 -0.0135 -0.0910  0.0703
    1AU    AUSL   90   1.050   1.250   5.988  0.0382 -0.0445  0.0238
    1AU     AUL   91   1.027   1.269   5.986  0.0839 -0.0435 -0.0032
    1AU       S   92   0.187   1.479   6.500  0.2170 -0.3266  0.0033
    1AU     LIG   93  -0.105   1.795   6.687  0.1350  0.1284  0.1320
    1AU     LIG   94  -0.276   2.261   6.815  0.0916 -0.2467 -0.3703
    1AU     LIG   95  -0.243   2.663   6.885  0.2639 -0.1244  0.1680
    1AU       S   96   1.039   1.708   5.408  0.2045 -0.3302  0.3490
    1AU     LIG   97   0.804   1.634   5.010 -0.0890 -0.0891 -0.3314
    1AU     LIG   98   0.368   1.624   4.961 -0.2763  0.2257 -0.0781
    1AU     LIG   99   0.007   1.318   4.943 -0.1769 -0.2413 -0.1183
    1AU    AUSL  100   0.738   1.023   6.434  0.0512 -0.0268 -0.0241
    1AU    AUSL  101   1.082   1.633   6.568  0.0242  0.0556  0.0691
    1AU     AUL  102   0.665   1.532   6.641 -0.0105 -0.0246  0.0839
    1AU       S  103   0.898   2.222   6.253 -0.0578 -0.1756 -0.0259
    1AU     LIG  104   0.993   2.621   6.286  0.3502 -0.0529 -0.0373
    1AU     LIG  105   1.011   3.092   6.228 -0.1769  0.1726  0.3483
    1AU     LIG  106   0.832   3.467   6.056 -0.1663  0.3388 -0.2518
    1AU       S  107   0.253   0.998   6.443 -0.1392 -0.0807 -0.2884
    1AU     LIG  108  -0.128   0.821   6.215  0.2634  0.3938 -0.1499
    1AU     LIG  109  -0.392   0.812   5.889 -0.1182  0.2671  0.0683
    1AU     LIG  110  -0.580   0.814   5.493  0.3239  0.3116  0.0211
    1AU    AUSL  111   0.785   1.225   6.263 -0.0045 -0.1140  0.0714
    1AU    AUSL  112   1.082   0.784   6.041 -0.0372  0.0330 -0.0547
    1AU     AUL  113   0.750   0.803   6.342  0.0064  0.1370  0.0017
    1AU       S  114   1.616   0.634   5.564 -0.1298 -0.0312  0.0428
    1AU     LIG  115   1.534   0.499   5.126 -0.1393  0.0727  0.3121
    1AU     LIG  116   1.216   0.530   4.930 -0.2239 -0.1072 -0.2256
    1AU     LIG  117   0.909   0.702   4.612  0.2760 -0.0758  0.0588
    1AU       S  118   0.208   1.170   6.454  0.0366 -0.0685 -0.1200
    1AU     LIG  119  -0.265   1.274   6.477  0.0579 -0.0749 -0.0566
    1AU     LIG  120  -0.585   1.109   6.282 -0.0454 -0.1560  0.0464
    1AU     LIG  121  -0.842   0.930   6.339  0.1095 -0.1163 -0.0320
    1AU    AUSL  122   1.826   1.435   6.712  0.0186  0.0066  0.0345
    1AU    AUSL  123   1.645   1.614   6.596  0.0172  0.0110  0.0514
    1AU     AUL  124   1.455   1.483   6.858 -0.0179  0.0330 -0.0390
    1AU       S  125   1.974   1.759   7.073 -0.1500  0.3385  0.4759
    1AU     LIG  126   1.777   2.182   6.988 -0.4131  0.1066  0.0822
    1AU     LIG  127   1.679   2.608   7.080  0.1938 -0.1357  0.4010
    1AU     LIG  128   1.958   2.915   7.010 -0.2882 -0.1419  0.1066
    1AU       S  129   2.164   1.837   6.618 -0.3252 -0.2768 -0.1087
    1AU     LIG  130   2.274   2.211   6.829  0.0417  0.0207 -0.3440
    1AU     LIG  131   2.253   2.618   6.698  0.3022 -0.1696  0.0231
    1AU     LIG  132   1.998   2.866   6.463 -0.0508 -0.2079  0.0976
    1AU    AUSL  133   1.944   1.286   6.504 -0.0796 -0.0847 -0.0438
    1AU    AUSL  134   1.926   0.967   6.579  0.0117 -0.0040  0.0591
    1AU     AUL  135   1.786   1.246   6.913 -0.0096 -0.0233  0.0849
    1AU       S  136   2.451   0.944   6.537 -0.0526  0.2966  0.0209
    1AU     LIG  137   2.828   0.909   6.843  0.1849 -0.0632 -0.1347
    1AU     LIG  138   2.906   0.523   7.044 -0.0963 -0.1122 -0.0989
    1AU     LIG  139   2.781   0.264   7.257  0.2316  0.1396  0.2054
    1AU       S  140   2.195   1.552   7.042  0.0707  0.0464  0.1357
    1AU     LIG  141   2.454   1.859   7.229 -0.0402 -0.4568  0.2433
    1AU     LIG  142   2.746   1.957   7.553 -0.2424 -0.0680 -0.0127
    1AU     LIG  143   2.909   1.879   7.874 -0.1489 -0.0118  0.1725
    1AU    AUSL  144   1.324   1.236   5.897  0.0216  0.0073 -0.0620
    1AU    AUSL  145   0.935   0.963   6.212 -0.0271 -0.0988 -0.0036
    1AU     AUL  146   1.126   1.160   5.739 -0.0528 -0.0211  0.0494
    1AU       S  147   1.704   0.847   5.403 -0.2902 -0.0210  0.0746
    1AU     LIG  148   2.026   0.528   5.271  0.1167 -0.3881  0.3156
    1AU     LIG  149   2.290   0.242   4.943  0.2040  0.0998 -0.2426
    1AU     LIG  150   2.407  -0.043   4.614 -0.1516  0.0136  0.0353
    1AU       S  151   0.661   0.303   6.194 -0.1002 -0.5462 -0.1996
    1AU     LIG  152   0.800  -0.150   6.066  0.3093  0.1395  0.1117
    1AU     LIG  153   0.969  -0.556   6.106 -0.1045 -0.0693 -0.2544
    1AU     LIG  154   1.329  -0.879   6.013  0.0321  0.5270  0.1290
    1AU    AUSL  155   1.403   1.460   6.589 -0.0242 -0.1336  0.0909
    1AU    AUSL  156   1.398   0.897   6.472 -0.0071 -0.0315 -0.0544
    1AU     AUL  157   1.389   1.493   6.577 -0.0617  0.0954  0.0594
    1AU       S  158   1.038   0.719   7.083 -0.0098  0.0954  0.2448
    1AU     LIG  159   1.188   0.341   7.432 -0.3796 -0.0915  0.1687
    1AU     LIG  160   1.518   0.034   7.325 -0.1884 -0.2853  0.5243
    1AU     LIG  161   1.859  -0.064   7.454 -0.1781  0.3424  0.2164
    1AU       S  162   1.841   0.837   5.648  0.0941 -0.1257 -0.0248
    1AU     LIG  163   2.262   0.748   5.783 -0.0314  0.3446  0.1801
    1AU     LIG  164   2.680   0.834   5.908  0.0771  0.0576  0.0878
    1AU     LIG  165   3.172   0.897   5.887  0.2902 -0.0067 -0.1172
    1AU    AUSL  166   1.080   1.147   6.683 -0.0945  0.0451  0.0318
    1AU    AUSL  167   1.076   1.808   6.353 -0.0481  0.0567  0.0180
    1AU     AUL  168   1.183   1.495   6.786 -0.0485 -0.0015  0.0203
    1AU       S  169   1.032   2.017   5.626 -0.3210 -0.1089 -0.0550
    1AU     LIG  170   1.139   2.471   5.743 -0.0901  0.3191  0.2536
    1AU     LIG  171   1.258   2.873   5.662 -0.1176 -0.2144 -0.0781
    1AU     LIG  172   1.296   3.298   5.942 -0.3507  0.0873 -0.1217
    1AU       S  173   0.711   1.070   7.023 -0.3504  0.3005 -0.1312
    1AU     LIG  174   0.465   0.603   6.962  0.4865  0.1106 -0.4761
    1AU     LIG  175   0.321   0.056   7.052 -0.3139 -0.5348  0.2851
    1AU     LIG  176   0.242  -0.365   6.951  0.2977 -0.2912  0.3172
    1AU    AUSL  177   0.703   1.293   6.514 -0.0778  0.1265  0.0003
    1AU    AUSL  178   0.839   1.696   6.216 -0.0469 -0.0574  0.0130
    1AU     AUL  179   0.570   1.343   6.122 -0.0980  0.0575 -0.0271
    1AU       S  180   0.477   1.093   6.874  0.4023 -0.1116  0.4543
    1AU     LIG  181   0.143   1.294   6.902  0.0811 -0.0588 -0.2657
    1AU     LIG  182  -0.289   1.151   7.073 -0.4125  0.0777  0.1009
    1AU     LIG  183  -0.650   0.781   7.069 -0.4300  0.4971 -0.0940
    1AU       S  184   0.372   1.932   6.451 -0.0043  0.0940  0.4668
    1AU     LIG  185  -0.036   2.324   6.382 -0.1538 -0.1536  0.0851
    1AU     LIG  186   0.046   2.750   6.426  0.1626 -0.1459 -0.3015
    1AU     LIG  187  -0.046   3.216   6.174  0.1941 -0.1775 -0.0853
    1AU    AUSL  188   0.934   1.397   6.666  0.0049  0.1661  0.1012
    1AU    AUSL  189   1.110   0.849   6.421  0.0435  0.0072  0.0262
    1AU     AUL  190   0.988   0.913   6.486  0.0260  0.0129 -0.0420
    1AU       S  191   1.502   0.234   6.256 -0.2243  0.1106  0.7373
    1AU     LIG  192   2.013   0.094   6.426 -0.4958  0.2058 -0.0031
    1AU     LIG  193   2.224  -0.231   6.640 -0.3019 -0.1582  0.0088
    1AU     LIG  194   2.508  -0.436   6.682 -0.5182 -0.2656  0.1483
    1AU       S  195   0.664   1.263   7.103  0.1316  0.0267  0.0549
    1AU     LIG  196   0.419   1.468   7.323  0.3570 -0.2707 -0.2508
    1AU     LIG  197  -0.090   1.565   7.348 -0.2918  0.0830 -0.1397
    1AU     LIG  198  -0.287   1.421   7.708 -0.0691 -0.4308  0.2428
    1AU    AUSL  199   1.808   0.978   6.821  0.0343  0.0372  0.0816
    1AU    AUSL  200   1.999   1.179   6.740  0.0758  0.0583  0.0211
    1AU     AUL  201   1.928   1.083   6.333  0.0585  0.0020  0.0132
    1AU       S  202   2.392   1.499   6.615  0.0444 -0.1808  0.2757
    1AU     LIG  203   2.820   1.429   6.505 -0.2002  0.0493 -0.2429
    1AU     LIG  204   3.185   1.287   6.787  0.1235 -0.2200 -0.0362
    1AU     LIG  205   3.451   0.996   6.945  0.1777  0.0337 -0.0004
    1AU       S  206   1.917   0.751   7.151 -0.0795  0.5945 -0.3358
    1AU     LIG  207   2.310   0.517   6.820  0.0422 -0.0704 -0.0675
    1AU     LIG  208   2.536   0.162   6.748 -0.0460 -0.0601  0.1452
    1AU     LIG  209   2.849  -0.067   6.656  0.5383 -0.0466 -0.1131
    1AU    AUSL  210   1.477   0.822   6.885  0.0391 -0.0838  0.0085
    1AU    AUSL  211   1.326   0.989   6.714 -0.0246 -0.0311  0.0359
    1AU     AUL  212   1.798   0.711   6.568 -0.0887  0.0201 -0.0620
    1AU       S  213   1.564   0.686   7.224  0.3855  0.1421 -0.1485
    1AU     LIG  214   1.639   0.522   7.666 -0.1975 -0.3631  0.3431
    1AU     LIG  215   1.772   0.693   8.054  0.1590 -0.0082  0.4374
    1AU     LIG  216   1.926   1.083   8.287  0.3297 -0.3091 -0.4331
    1AU       S  217   1.131   0.884   7.299 -0.3030 -0.4369 -0.0861
    1AU     LIG  218   1.169   0.773   7.641  0.4164  0.3332  0.3721
    1AU     LIG  219   0.849   0.622   7.857 -0.0372 -0.0988  0.1476
    1AU     LIG  220   0.419   0.415   7.947  0.1910  0.2107  0.0789
    1AU    AUSL  221   1.569   1.110   6.807  0.0914  0.1157  0.0525
    1AU    AUSL  222   1.386   0.681   6.667 -0.0032 -0.0448  0.0327
    1AU     AUL  223   1.532   1.108   6.866  0.0928  0.1367  0.1212
    1AU       S  224   1.427   0.310   6.945 -0.2689 -0.2336  0.1346
    1AU     LIG  225   1.169   0.007   6.872  0.1441 -0.4601  0.1801
    1AU     LIG  226   0.825  -0.225   6.703  0.1274 -0.0571 -0.1389
    1AU     LIG  227   0.603  -0.501   6.534 -0.3558 -0.0772  0.0823
    1AU       S  228   1.654   0.987   7.345 -0.0335  0.0897 -0.0130
    1AU     LIG  229   1.589   1.054   7.796 -0.0920  0.0561  0.0386
    1AU     LIG  230   1.418   1.178   8.098 -0.0645 -0.1052  0.0524
    1AU     LIG  231   1.357   1.563   8.360 -0.0136  0.4867 -0.0924
    1AU    AUSL  232   0.834   1.726   6.490  0.0382 -0.0053  0.0411
    1AU    AUSL  233   1.380   1.821   6.437  0.0219  0.0367 -0.0030
    1AU     AUL  234   1.029   1.903   6.634 -0.0720 -0.0509 -0.0076
    1AU       S  235   0.520   2.112   6.562 -0.3543 -0.0430 -0.2919
    1AU     LIG  236   0.449   2.413   6.254 -0.1956  0.2174  0.0962
    1AU     LIG  237   0.215   2.550   5.950  0.4610 -0.1677 -0.1582
    1AU     LIG  238   0.163   2.535   5.568 -0.2834  0.1070  0.1176
    1AU       S  239   1.433   2.274   6.333 -0.1652 -0.0012  0.0216
    1AU     LIG  240   1.642   2.480   6.590 -0.0911  0.0161  0.4172
    1AU     LIG  241   1.554   2.949   6.715 -0.0475  0.0929 -0.2680
    1AU     LIG  242   1.675   3.362   6.615 -0.1779 -0.0518 -0.2847
    1AU    AUSL  243   0.890   1.651   6.760  0.0185  0.0138  0.1070
    1AU    AUSL  244   1.073   1.677   6.103  0.0015  0.0976  0.0705
    1AU     AUL  245   1.195   1.680   6.589  0.0262 -0.0051 -0.0730
    1AU       S  246   0.516   2.004   6.831  0.1684 -0.2705  0.3096
    1AU     LIG  247   0.222   2.443   6.767  0.2891  0.0041  0.1559
    1AU     LIG  248   0.490   2.709   6.710 -0.2139 -0.0082 -0.0607
    1AU     LIG  249   0.821   2.915   6.714 -0.0769 -0.0187  0.0371
    1AU       S  250   0.885   2.181   6.028  0.4304  0.2159 -0.3060
    1AU     LIG  251   0.684   2.624   5.864 -0.0471 -0.2972  0.0700
    1AU     LIG  252   0.580   2.940   5.719 -0.1770  0.2510  0.2803
    1AU     LIG  253   0.430   3.341   5.744  0.0770 -0.0581  0.0084
    1AU    AUSL  254   1.548   0.662   6.445 -0.0109 -0.0161  0.0530
    1AU    AUSL  255   0.987   0.661   6.266  0.0291 -0.0340 -0.0025
    1AU     AUL  256   1.117   0.638   6.582  0.0530  0.0497  0.0138
    1AU       S  257   0.746   0.226   6.435 -0.3129  0.1403 -0.1317
    1AU     LIG  258   0.383  -0.056   6.510  0.2128 -0.1138  0.2659
    1AU     LIG  259   0.095  -0.449   6.359  0.1717 -0.0818 -0.2559
    1AU     LIG  260  -0.180  -0.668   6.597 -0.1153  0.3599  0.3863
    1AU       S  261   1.622   0.232   6.737 -0.3239 -0.3241  0.1390
    1AU     LIG  262   1.603  -0.177   6.835 -0.2021 -0.4475 -0.2896
    1AU     LIG  263   1.550  -0.463   7.049  0.0720  0.1053 -0.1398
    1AU     LIG  264   1.085  -0.488   7.039  0.3551 -0.1139 -0.2696
    1AU    AUSL  265   1.599   0.872   6.646  0.0450 -0.0550  0.0700
    1AU    AUSL  266   1.702   0.909   6.378  0.0144  0.0568 -0.0108
    1AU     AUL  267   1.888   0.805   6.281 -0.0341  0.0928  0.0245
    1AU       S  268   2.362   0.819   6.380  0.1612 -0.2550  0.2149
    1AU     LIG  269   2.418   0.376   6.185  0.0062 -0.2234 -0.0306
    1AU     LIG  270   2.646  -0.110   6.160 -0.0661  0.3308 -0.0175
    1AU     LIG  271   2.855  -0.416   5.955 -0.3282  0.1255 -0.1756
    1AU       S  272   1.696   0.320   6.845  0.2868  0.4166 -0.5228
    1AU     LIG  273   2.014   0.075   6.985 -0.0260 -0.3295  0.0072
    1AU     LIG  274   2.029  -0.326   7.092 -0.1698  0.0218  0.3437
    1AU     LIG  275   2.314  -0.760   7.120 -0.1966  0.0034 -0.1588
    1AU    AUSL  276   1.609   1.204   5.904 -0.0330  0.0075 -0.0118
    1AU    AUSL  277   1.852   1.528   6.436 -0.0827 -0.0510  0.0324
    1AU     AUL  278   1.772   1.526   6.203 -0.0317 -0.1401  0.0443
    1AU       S  279   2.311   1.723   6.418 -0.1101  0.0600 -0.0535
    1AU     LIG  280   2.675   1.951   6.732  0.2680 -0.0468 -0.4674
    1AU     LIG  281   2.863   2.290   6.888  0.1492 -0.3545 -0.3641
    1AU     LIG  282   3.150   2.494   7.002  0.2935 -0.2459 -0.2324
    1AU       S  283   1.258   0.915   5.306 -0.2239 -0.1006  0.1763
    1AU     LIG  284   1.117   1.154   4.921  0.3258 -0.0440 -0.1091
    1AU     LIG  285   0.606   1.214   4.779 -0.0177 -0.2337 -0.0259
    1AU     LIG  286   0.283   0.975   4.745 -0.1582  0.2263 -0.0151
    1AU    AUSL  287   0.945   1.178   6.456 -0.0475  0.0062  0.0260
    1AU    AUSL  288   0.940   1.004   5.928  0.0046  0.0799 -0.0005
    1AU     AUL  289   0.673   1.001   6.152  0.0139  0.0788 -0.0141
    1AU       S  290   0.924   0.747   5.558  0.5061 -0.0054  0.2321
    1AU     LIG  291   0.514   0.699   5.561 -0.1619  0.2416 -0.0359
    1AU     LIG  292   0.092   0.863   5.722  0.2762  0.1290  0.3813
    1AU     LIG  293  -0.002   1.289   5.951  0.0520  0.1100 -0.4779
    1AU       S  294   0.988   0.373   5.807 -0.1201  0.0258 -0.0559
    1AU     LIG  295   0.680   0.261   5.693  0.0674 -0.0874  0.1957
    1AU     LIG  296   0.372  -0.015   5.818  0.1327  0.2259 -0.0748
    1AU     LIG  297  -0.028  -0.156   5.927  0.1043  0.0408  0.0251
    1AU    AUSL  298   1.341   0.793   5.967 -0.0609  0.0610  0.0078
    1AU    AUSL  299   1.697   1.011   6.122  0.0867  0.0305  0.0590
    1AU     AUL  300   1.697   0.950   6.110  0.0028  0.0867 -0.0627
    1AU       S  301   1.820   0.416   5.950 -0.0917  0.2037  0.3179
    1AU     LIG  302   2.151   0.123   5.730 -0.3499 -0.1750  0.1243
    1AU     LIG  303   2.278  -0.174   5.512 -0.0491  0.0427 -0.1012
    1AU     LIG  304   2.429  -0.586   5.712 -0.3846 -0.1889 -0.0052
    1AU       S  305   1.136   0.745   5.430 -0.5426 -0.1385  0.1419
    1AU     LIG  306   1.084   0.297   5.295 -0.2162  0.3856  0.3657
    1AU     LIG  307   0.997  -0.081   5.539  0.4973 -0.0017  0.2122
    1AU     LIG  308   0.661  -0.336   5.565 -0.2091 -0.0105 -0.2354
    1AU    AUSL  309   1.717   1.462   5.945  0.0167 -0.0027  0.0548
    1AU    AUSL  310   1.313   1.798   6.160  0.0136  0.0909  0.0994
    1AU     AUL  311   1.534   1.750   5.813  0.1451 -0.0412 -0.0147
    1AU       S  312   1.934   1.530   5.560  0.3463  0.0835 -0.0052
    1AU     LIG  313   2.397   1.659   5.456 -0.1421  0.1776 -0.1850
    1AU     LIG  314   2.598   1.856   5.812  0.2423 -0.1292  0.0136
    1AU     LIG  315   2.813   1.858   6.139  0.0720 -0.1722  0.0350
    1AU       S  316   1.371   2.204   6.096 -0.2388  0.0221 -0.2477
    1AU     LIG  317   1.463   2.701   6.081 -0.1593  0.0433  0.2063
    1AU     LIG  318   1.679   3.060   6.144  0.1122 -0.0084 -0.0740
    1AU     LIG  319   1.793   3.437   6.047  0.0463 -0.0980  0.1536
    1AU    AUSL  320   1.782   1.256   6.116  0.0472 -0.0577 -0.0077
    1AU    AUSL  321   1.996   1.351   6.246  0.0140 -0.0476 -0.0245
    1AU     AUL  322   1.948   1.101   6.059 -0.0070  0.0245  0.0133
    1AU       S  323   2.005   1.349   5.573 -0.5493  0.0403  0.2670
    1AU     LIG  324   2.384   1.370   5.828 -0.1145  0.0017 -0.0156
    1AU     LIG  325   2.817   1.364   5.960 -0.1528 -0.4444 -0.0691
    1AU     LIG  326   3.205   1.300   6.197  0.1513  0.2197  0.1365
    1AU       S  327   2.458   1.098   6.230  0.3073  0.3256 -0.1090
    1AU     LIG  328   2.869   0.996   6.331  0.1278  0.0970  0.1725
    1AU     LIG  329   3.204   0.767   6.578 -0.0966 -0.3306  0.2225
    1AU     LIG  330   3.612   0.700   6.337  0.1330  0.0642  0.3859
    1AU    AUSL  331   1.179   1.448   5.789 -0.0328  0.0541 -0.0802
    1AU    AUSL  332   1.198   1.010   5.944  0.0760 -0.0028 -0.0807
    1AU     AUL  333   1.468   1.270   5.666 -0.0709 -0.0212 -0.0091
    1AU       S  334   0.721   1.175   5.449  0.2556 -0.1459 -0.0343
    1AU     LIG  335   0.653   0.846   5.105  0.3931 -0.1941 -0.2017
    1AU     LIG  336   0.614   0.433   5.077  0.2679  0.3411 -0.1727
    1AU     LIG  337   0.657   0.009   5.114 -0.0665  0.1565  0.0429
    1AU       S  338   1.663   1.567   5.345 -0.1823  0.1930 -0.4013
    1AU     LIG  339   1.950   1.254   5.091  0.4057 -0.3920 -0.0759
    1AU     LIG  340   2.310   0.973   5.238  0.1200 -0.0648 -0.1834
    1AU     LIG  341   2.497   0.499   5.358  0.0110 -0.3086 -0.1960
    1AU    AUSL  342   1.499   0.800   6.190  0.1055  0.0343 -0.0340
    1AU    AUSL  343   1.448   1.465   5.878 -0.0176  0.1769  0.0076
    1AU     AUL  344   1.385   1.009   5.756  0.0280 -0.0009 -0.0264
    1AU       S  345   1.179   0.308   5.866 -0.4942  0.4974  0.2393
    1AU     LIG  346   1.258  -0.142   5.910  0.1172  0.0780  0.1496
    1AU     LIG  347   1.487  -0.405   6.090  0.0435 -0.0587  0.0780
    1AU     LIG  348   1.769  -0.414   6.392  0.3520  0.0581 -0.7151
    1AU       S  349   1.301   1.839   5.376  0.3311  0.2500 -0.1189
    1AU     LIG  350   1.269   1.731   4.929  0.4893 -0.2874 -0.0785
    1AU     LIG  351   0.927   1.555   4.572  0.4919 -0.0486  0.0260
    1AU     LIG  352   0.917   1.290   4.221 -0.0749 -0.3549  0.1954
    1AU    AUSL  353   1.450   1.032   6.024 -0.0706  0.0025  0.1451
    1AU    AUSL  354   1.306   1.257   6.774  0.0578  0.0962 -0.1413
    1AU     AUL  355   1.219   0.922   6.658  0.0334 -0.0514  0.0376
    1AU       S  356   1.268   0.399   5.710 -0.1654 -0.0486 -0.3076
    1AU     LIG  357   1.602   0.147   5.578  0.1458  0.2400  0.1938
    1AU     LIG  358   1.640  -0.362   5.603  0.3735  0.0610 -0.2601
    1AU     LIG  359   1.860  -0.636   5.901 -0.0900  0.3281 -0.0462
    1AU       S  360   1.152   1.114   7.267 -0.0538 -0.0278  0.1417
    1AU     LIG  361   1.296   1.417   7.545  0.2797 -0.2019  0.2223
    1AU     LIG  362   1.530   1.638   7.842 -0.1489 -0.1778 -0.0953
    1AU     LIG  363   1.667   1.942   8.266  0.0794 -0.1195  0.0206
    1AU    AUSL  364   0.768   1.207   5.975  0.0206  0.0217  0.0624
    1AU    AUSL  365   1.255   0.663   6.262 -0.0484  0.0489 -0.0217
    1AU     AUL  366   0.816   0.781   6.050  0.1681  0.0126  0.0511
    1AU       S  367   1.010   0.149   6.332  0.2380 -0.2049  0.2196
    1AU     LIG  368   1.295  -0.180   6.426 -0.1658  0.1594 -0.0187
    1AU     LIG  369   1.294  -0.510   6.562 -0.0702  0.2037  0.2945
    1AU     LIG  370   1.537  -0.858   6.555  0.1716 -0.0036  0.0689
    1AU       S  371   0.489   1.190   5.611  0.3005  0.2817 -0.1800
    1AU     LIG  372   0.229   1.076   5.322  0.2938 -0.0758 -0.1977
    1AU     LIG  373   0.107   0.718   5.170 -0.1894  0.2858  0.2913
    1AU     LIG  374   0.157   0.406   5.442 -0.4356 -0.2945  0.2681
    1AU    AUSL  375   0.947   1.530   5.884  0.0303  0.0118  0.0154
    1AU    AUSL  376   0.854   1.438   6.118  0.0310  0.0979  0.0581
    1AU     AUL  377   0.639   1.602   6.044  0.0063  0.0548  0.0191
    1AU       S  378   0.655   1.459   5.508  0.0308  0.1718  0.0063
    1AU     LIG  379   0.570   1.929   5.392  0.2256  0.0489  0.0019
    1AU     LIG  380   0.929   2.245   5.182  0.2671  0.2682 -0.1529
    1AU     LIG  381   1.092   2.191   4.766  0.1206 -0.2609 -0.0071
    1AU       S  382   0.655   2.089   5.985 -0.4737 -0.2038  0.1224
    1AU     LIG  383   0.201   2.054   5.911 -0.2075 -0.2849  0.1191
    1AU     LIG  384  -0.060   1.826   6.136  0.4885 -0.0029 -0.1717
    1AU     LIG  385  -0.381   1.601   6.139  0.0139 -0.0487  0.1643
    2POPC   NC3  386   7.084   0.182   8.438 -0.0693 -0.0792  0.1932
    2POPC   PO4  387   6.995  -0.278   8.505 -0.0837 -0.1227  0.3232
    2POPC   GL1  388   6.798  -0.101   8.092 -0.0251  0.4480  0.0472
    2POPC   GL2  389   7.063   0.045   7.943  0.2559  0.0316  0.0666
    2POPC   C1A  390   6.544  -0.232   7.650 -0.1361  0.0057  0.0344
    2POPC   D2A  391   6.559  -0.276   7.118  0.1267  0.1714  0.2871
    2POPC   C3A  392   6.746  -0.433   6.714  0.1927 -0.1178  0.1476
    2POPC   C4A  393   6.790  -0.441   6.348  0.4873 -0.1516  0.1924
    2POPC   C1B  394   7.054   0.032   7.457  0.2108  0.1756  0.0254
    2POPC   C2B  395   7.174  -0.236   7.128  0.1333 -0.1721  0.2008
    2POPC   C3B  396   7.518  -0.522   6.917  0.2014  0.4358 -0.1378
    2POPC   C4B  397   7.876  -0.609   6.992 -0.0604 -0.0017  0.1692
    3POPC   NC3  398   2.081   3.632   8.413 -0.1584 -0.0407  0.1605
    3POPC   PO4  399   2.198   3.445   8.651  0.1758  0.0644  0.0777
    3POPC   GL1  400   2.320   3.152   8.228 -0.0152  0.1673  0.3463
    3POPC   GL2  401   2.397   3.410   8.034  0.2503  0.1950  0.0976
    3POPC   C1A  402   2.085   2.852   7.987 -0.1189 -0.2483  0.0256
    3POPC   D2A  403   1.863   2.706   7.584  0.0943  0.0550 -0.0803
    3POPC   C3A  404   1.530   2.491   7.539 -0.1372  0.2457 -0.1292
    3POPC   C4A  405   1.326   2.266   7.171  0.0138  0.1011  0.1410
    3POPC   C1B  406   2.475   3.378   7.578 -0.0251  0.0845  0.0801
    3POPC   C2B  407   2.538   3.347   7.233  0.1707  0.1536 -0.1965
    3POPC   C3B  408   2.628   3.627   6.882  0.0247 -0.0267  0.2162
    3POPC   C4B  409   2.648   3.533   6.514 -0.1089  0.1117 -0.0319
    4POPC   NC3  410   7.232   6.422   8.360 -0.0150 -0.2082 -0.1957
    4POPC   PO4  411   7.180   6.732   7.999 -0.2414  0.3970 -0.3202
    4POPC   GL1  412   7.052   6.603   7.656 -0.0347 -0.1130  0.2199
    4POPC   GL2  413   6.982   6.274   7.714 -0.2296 -0.2525 -0.2186
    4POPC   C1A  414   6.737   6.733   7.448  0.1432 -0.2245 -0.4492
    4POPC   D2A  415   6.879   6.679   7.073  0.0608 -0.2696 -0.2450
    4POPC   C3A  416   6.725   7.083   6.814  0.0482  0.0397 -0.1380
    4POPC   C4A  417   6.655   7.143   6.330 -0.3040 -0.0014  0.1722
    4POPC   C1B  418   7.047   6.276   7.304 -0.2942  0.0051  0.2845
    4POPC   C2B  419   7.092   6.326   6.800  0.1763  0.1427 -0.4451
    4POPC   C3B  420   6.976   6.686   6.553 -0.0463  0.1276 -0.5304
    4POPC   C4B  421   7.148   7.053   6.542  0.2585  0.3664  0.1069
    5POPC   NC3  422   2.896   5.194   8.488 -0.2036  0.2300  0.0668
    5POPC   PO4  423   2.805   5.034   8.109  0.0916 -0.0367  0.0357
    5POPC   GL1  424   2.814   4.877   7.654  0.0242 -0.0466  0.0292
    5POPC   GL2  425   2.610   4.674   7.629 -0.0042 -0.0269  0.1065
    5POPC   C1A  426   2.717   4.846   7.160  0.3891 -0.0148 -0.2882
    5POPC   D2A  427   2.712   5.007   6.725 -0.5547 -0.2036 -0.1966
    5POPC   C3A  428   2.626   4.876   6.429  0.0748 -0.0976  0.0003
    5POPC   C4A  429   2.847   4.550   6.261 -0.1699  0.1371 -0.1135
    5POPC   C1B  430   2.403   4.341   7.331  0.3581 -0.0894 -0.0573
    5POPC   C2B  431   2.342   3.984   7.068  0.3791 -0.2149  0.0336
    5POPC   C3B  432   2.169   3.705   6.590 -0.1826  0.0209  0.0020
    5POPC   C4B  433   2.145   3.418   6.364 -0.3707  0.1175  0.3567
    6POPC   NC3  434   2.886   8.955   9.025  0.2229 -0.1117  0.1899
    6POPC   PO4  435   3.078   9.267   8.812  0.0410 -0.0041  0.2355
    6POPC   GL1  436   3.331   9.291   8.447 -0.0205 -0.0223  0.1580
    6POPC   GL2  437   3.455   9.124   8.164 -0.1008 -0.2862 -0.2389
    6POPC   C1A  438   3.190   9.598   8.197  0.4042  0.0293 -0.0965
    6POPC   D2A  439   3.110   9.723   7.810 -0.0603 -0.3670 -0.2872
    6POPC   C3A  440   3.089  10.151   7.609 -0.0597  0.1679 -0.0874
    6POPC   C4A  441   3.303  10.417   7.333  0.1728 -0.2034 -0.1444
    6POPC   C1B  442   3.041   9.179   7.990 -0.0583  0.2460 -0.0698
    6POPC   C2B  443   2.593   9.081   8.031 -0.0389  0.1655 -0.2783
    6POPC   C3B  444   2.210   9.090   7.682  0.0820  0.0278  0.0976
    6POPC   C4B  445   1.912   9.150   7.488 -0.2212  0.0789  0.0544
    7POPC   NC3  446   3.719   5.041   8.794  0.2398 -0.2552 -0.1682
    7POPC   PO4  447   3.399   5.091   8.538 -0.0781 -0.1539  0.2122
    7POPC   GL1  448   3.477   4.925   8.213  0.1089 -0.1645 -0.0576
    7POPC   GL2  449   3.296   4.946   7.995 -0.3659  0.3752 -0.0308
    7POPC   C1A  450   3.732   4.798   7.763 -0.0880 -0.2226  0.0361
    7POPC   D2A  451   4.074   4.827   7.357  0.4542  0.0761  0.1182
    7POPC   C3A  452   4.019   4.398   7.288 -0.2281 -0.0598 -0.1220
    7POPC   C4A  453   4.021   4.020   7.076  0.2900  0.0153  0.0067
    7POPC   C1B  454   3.314   4.851   7.582  0.2311 -0.1926  0.2603
    7POPC   C2B  455   3.229   4.923   7.174 -0.0549  0.0467  0.1451
    7POPC   C3B  456   3.159   5.190   6.829  0.0104  0.0017  0.2086
    7POPC   C4B  457   3.105   5.271   6.449 -0.1348 -0.1865 -0.2069
    8POPC   NC3  458   4.701   8.214   8.468 -0.0156 -0.1255  0.0296
    8POPC   PO4  459   4.858   7.924   8.074  0.3418  0.1849 -0.2229
    8POPC   GL1  460   4.940   7.724   7.765  0.0679  0.1107 -0.3741
    8POPC   GL2  461   5.186   7.421   7.754 -0.1449 -0.2731 -0.3758
    8POPC   C1A  462   4.944   7.691   7.297 -0.4540 -0.0210 -0.4225
    8POPC   D2A  463   5.000   7.686   6.847  0.2827  0.0345 -0.0102
    8POPC   C3A  464   5.140   7.354   6.591 -0.0478 -0.1184 -0.1751
    8POPC   C4A  465   5.476   7.380   6.253  0.0564 -0.1895 -0.2014
    8POPC   C1B  466   5.396   7.384   7.366 -0.0957  0.1387  0.2181
    8POPC   C2B  467   5.108   7.167   7.067 -0.1687 -0.0665 -0.1197
    8POPC   C3B  468   5.071   6.730   6.925 -0.1793  0.0978 -0.0237
    8POPC   C4B  469   4.971   6.436   6.696  0.0994  0.1113  0.1153
    9POPC   NC3  470   1.904   5.079   7.979  0.1788 -0.0097 -0.3184
    9POPC   PO4  471   2.352   5.092   7.994  0.0281 -0.5558  0.0463
    9POPC   GL1  472   2.173   5.143   7.536  0.0874 -0.3167  0.0373
    9POPC   GL2  473   1.937   4.802   7.537  0.1394  0.4182  0.3078
    9POPC   C1A  474   2.235   4.932   7.089 -0.1755  0.0904  0.1590
    9POPC   D2A  475   2.285   4.707   6.768  0.0733 -0.0102  0.0915
    9POPC   C3A  476   2.685   4.440   6.734  0.2493 -0.1266  0.2947
    9POPC   C4A  477   2.702   4.049   6.582  0.2444 -0.1801  0.1893
    9POPC   C1B  478   1.755   4.962   7.213  0.0953  0.1946  0.1014
    9POPC   C2B  479   1.866   4.974   6.778  0.1129  0.1764  0.2350
    9POPC   C3B  480   1.926   4.721   6.356 -0.1928 -0.4684  0.1565
    9POPC   C4B  481   1.735   4.327   6.179  0.2156  0.0990  0.0027
   10POPC   NC3  482   9.473   4.859   8.328  0.2838  0.0175 -0.2287
   10POPC   PO4  483   9.374   4.914   7.899  0.0789  0.0803 -0.0173
   10POPC   GL1  484   9.542   4.731   7.555 -0.0547 -0.1504  0.0046
   10POPC   GL2  485   9.240   4.924   7.331  0.0442  0.0670 -0.0346
   10POPC   C1A  486   9.667   4.590   7.190 -0.1921 -0.2707 -0.1629
   10POPC   D2A  487   9.829   4.193   7.084  0.1262  0.1630 -0.1226
   10POPC   C3A  488   9.680   4.042   6.680  0.3127  0.0973 -0.0194
   10POPC   C4A  489   9.871   4.138   6.352  0.4595 -0.3978  0.2485
   10POPC   C1B  490   9.300   5.046   6.905 -0.1139 -0.2970 -0.2999
   10POPC   C2B  491   9.697   4.932   6.618  0.4904  0.0831 -0.1267
   10POPC   C3B  492   9.608   4.916   6.219 -0.0412  0.2613 -0.3058
   10POPC   C4B  493   9.246   4.834   6.017  0.1702  0.0534  0.1030
   11POPC   NC3  494   3.894   3.559   8.805 -0.4432  0.0757  0.0568
   11POPC   PO4  495   4.125   3.386   8.444 -0.1965  0.0981  0.1933
   11POPC   GL1  496   4.139   3.442   8.023 -0.0845  0.1882  0.0111
   11POPC   GL2  497   3.947   3.763   7.947  0.0071  0.3461  0.2161
   11POPC   C1A  498   4.039   3.269   7.631  0.0697  0.1910  0.2196
   11POPC   D2A  499   3.928   3.064   7.215 -0.1284 -0.2950  0.1166
   11POPC   C3A  500   3.839   3.099   6.786 -0.1240  0.2407 -0.1301
   11POPC   C4A  501   3.621   3.178   6.402  0.2668  0.0545  0.1067
   11POPC   C1B  502   3.813   3.712   7.539 -0.0508  0.0958 -0.2021
   11POPC   C2B  503   3.674   3.529   7.209 -0.3037  0.0145 -0.2011
   11POPC   C3B  504   3.498   3.480   6.822 -0.4361  0.0019 -0.0339
   11POPC   C4B  505   3.542   3.642   6.469  0.1726 -0.2581 -0.1119
   12POPC   NC3  506   7.921   7.768   8.094  0.0146  0.1336 -0.1922
   12POPC   PO4  507   7.519   7.924   8.318 -0.1132 -0.0078  0.1819
   12POPC   GL1  508   7.702   8.141   7.920 -0.0878  0.0721  0.3216
   12POPC   GL2  509   7.734   7.917   7.628 -0.0826 -0.1415 -0.0379
   12POPC   C1A  510   7.636   8.387   7.510 -0.0022  0.0903  0.0938
   12POPC   D2A  511   7.467   8.700   7.253  0.1565 -0.0299  0.1872
   12POPC   C3A  512   7.544   8.687   6.828  0.1043 -0.3992  0.3688
   12POPC   C4A  513   7.725   8.528   6.482 -0.2154 -0.1126  0.0138
   12POPC   C1B  514   7.466   7.913   7.383 -0.0107 -0.2473  0.0501
   12POPC   C2B  515   7.372   7.796   6.990  0.1724  0.1992 -0.0402
   12POPC   C3B  516   6.984   7.938   6.789 -0.1430  0.1635 -0.1962
   12POPC   C4B  517   6.757   8.126   6.469 -0.0956  0.0262 -0.1527
   13POPC   NC3  518   4.101   7.640   8.048  0.2351  0.1016  0.2343
   13POPC   PO4  519   3.857   7.327   8.025  0.0254  0.1139 -0.1203
   13POPC   GL1  520   3.950   7.345   7.606 -0.0330 -0.1952 -0.3752
   13POPC   GL2  521   3.747   7.578   7.588  0.0005  0.3147 -0.0377
   13POPC   C1A  522   4.092   7.531   7.230  0.0210 -0.0367 -0.0571
   13POPC   D2A  523   4.234   7.830   7.068 -0.2526 -0.1287 -0.0308
   13POPC   C3A  524   3.861   8.011   6.883 -0.0471  0.1255 -0.2599
   13POPC   C4A  525   3.774   8.126   6.454  0.0578  0.1177  0.1378
   13POPC   C1B  526   3.804   7.879   7.370 -0.0827  0.1092  0.1126
   13POPC   C2B  527   3.588   8.269   7.146  0.1734 -0.0636 -0.3015
   13POPC   C3B  528   3.393   8.361   6.739  0.0379 -0.2163 -0.3619
   13POPC   C4B  529   3.391   8.397   6.352  0.1043 -0.1390  0.0052
   14POPC   NC3  530   1.665   3.145   9.645 -0.3867  0.0691 -0.0539
   14POPC   PO4  531   1.593   2.907   9.273 -0.3291 -0.1738 -0.1857
   14POPC   GL1  532   1.717   2.761   8.819  0.2749  0.0654  0.1231
   14POPC   GL2  533   1.963   2.771   8.595  0.0406  0.0683 -0.1745
   14POPC   C1A  534   1.363   2.478   8.440 -0.1512  0.0958  0.1728
   14POPC   D2A  535   0.998   2.546   8.182 -0.3531  0.2119  0.3195
   14POPC   C3A  536   0.556   2.721   8.269 -0.1306  0.1056 -0.3135
   14POPC   C4A  537   0.171   2.717   8.234 -0.0478 -0.2548 -0.0774
   14POPC   C1B  538   1.668   2.878   8.281  0.0004 -0.2863 -0.1698
   14POPC   C2B  539   1.451   2.877   7.954  0.0849 -0.0789  0.2023
   14POPC   C3B  540   1.087   2.769   7.632 -0.1102  0.2106  0.2856
   14POPC   C4B  541   0.763   2.932   7.309 -0.1309  0.0375 -0.4219
   15POPC   NC3  542   6.882   8.960   8.313 -0.0845  0.2971 -0.0276
   15POPC   PO4  543   6.695   8.522   8.213  0.1633 -0.1935 -0.3437
   15POPC   GL1  544   6.726   8.774   7.858 -0.1577  0.1355 -0.2208
   15POPC   GL2  545   6.713   9.098   7.846  0.0295 -0.0239  0.1987
   15POPC   C1A  546   6.655   8.742   7.434 -0.0307  0.3048  0.1599
   15POPC   D2A  547   6.269   8.730   7.135 -0.0304 -0.1327  0.0097
   15POPC   C3A  548   6.156   9.012   6.767 -0.3133  0.1125  0.0798
   15POPC   C4A  549   6.355   8.894   6.299  0.1204 -0.2318  0.3469
   15POPC   C1B  550   7.094   9.145   7.494 -0.1845 -0.1290  0.0432
   15POPC   C2B  551   6.965   8.997   7.085 -0.3299  0.0021 -0.1046
   15POPC   C3B  552   7.156   8.982   6.641  0.0915 -0.0444  0.0303
   15POPC   C4B  553   7.528   9.036   6.424  0.2634  0.4488 -0.0147
   16POPC   NC3  554   9.408   3.906   8.181 -0.1408  0.0490  0.1361
   16POPC   PO4  555   9.475   4.289   7.745 -0.0323  0.3383 -0.2634
   16POPC   GL1  556   9.225   4.196   7.365  0.1497 -0.3969 -0.1044
   16POPC   GL2  557   9.040   4.428   7.219  0.1887 -0.2229  0.0303
   16POPC   C1A  558   9.238   3.941   6.971  0.1843  0.0972  0.4007
   16POPC   D2A  559   8.826   3.828   6.706  0.0298  0.2831 -0.0383
   16POPC   C3A  560   8.790   3.422   6.507 -0.0656 -0.0239 -0.0233
   16POPC   C4A  561   8.627   3.277   6.082  0.1590  0.2220 -0.2399
   16POPC   C1B  562   9.356   4.451   6.853 -0.0721  0.0745  0.2126
   16POPC   C2B  563   9.557   4.495   6.500  0.0493  0.0880  0.1603
   16POPC   C3B  564   9.536   4.378   6.084 -0.0913  0.1880  0.1291
   16POPC   C4B  565   9.443   4.597   5.683  0.2911  0.1160  0.1624
   17POPC   NC3  566   1.554   4.432   8.341  0.0342  0.0661  0.0339
   17POPC   PO4  567   1.217   4.261   8.128  0.1210  0.0505  0.1365
   17POPC   GL1  568   1.426   3.975   7.725  0.0658 -0.1062 -0.1782
   17POPC   GL2  569   1.743   3.800   7.693 -0.0295  0.1397 -0.1557
   17POPC   C1A  570   1.490   4.054   7.310 -0.2248 -0.2355 -0.0931
   17POPC   D2A  571   1.785   3.932   6.886  0.4357 -0.0948  0.1444
   17POPC   C3A  572   2.171   4.209   6.625 -0.0368 -0.0431 -0.0276
   17POPC   C4A  573   2.357   4.410   6.289  0.1186 -0.0913  0.5076
   17POPC   C1B  574   1.588   3.578   7.391 -0.3996  0.1575  0.3015
   17POPC   C2B  575   1.358   3.708   6.904  0.0213  0.0468  0.1183
   17POPC   C3B  576   1.179   3.503   6.461 -0.2839 -0.1366 -0.0191
   17POPC   C4B  577   1.165   3.844   6.119 -0.0644 -0.3737  0.2918
   18POPC   NC3  578   8.142   2.859   7.932  0.3937 -0.0124 -0.1710
   18POPC   PO4  579   7.781   3.219   8.008 -0.2681  0.0501 -0.2501
   18POPC   GL1  580   7.855   3.098   7.576  0.1545  0.1411  0.0555
   18POPC   GL2  581   8.184   3.307   7.583  0.0829 -0.0317  0.0233
   18POPC   C1A  582   7.928   2.904   7.306 -0.2111 -0.1677  0.1525
   18POPC   D2A  583   7.552   2.620   7.164  0.2013  0.1486  0.0214
   18POPC   C3A  584   7.297   2.701   6.873 -0.1066 -0.4989 -0.2423
   18POPC   C4A  585   6.855   2.849   6.757  0.1262  0.0572 -0.3495
   18POPC   C1B  586   8.288   3.587   7.176  0.0631  0.1446 -0.0194
   18POPC   C2B  587   8.421   3.584   6.822 -0.0631 -0.1132 -0.0799
   18POPC   C3B  588   8.230   3.605   6.335 -0.2215 -0.2681 -0.2028
   18POPC   C4B  589   7.953   3.586   5.955  0.1893  0.3007 -0.1172
   19POPC   NC3  590   8.161   7.331   8.568  0.0057  0.1704  0.4669
   19POPC   PO4  591   8.339   7.265   8.154  0.2316  0.4126  0.1118
   19POPC   GL1  592   8.264   7.396   7.755  0.1010 -0.1264  0.1893
   19POPC   GL2  593   8.222   7.720   7.702  0.1652 -0.0600  0.0077
   19POPC   C1A  594   8.420   7.376   7.301  0.0573  0.3062  0.0446
   19POPC   D2A  595   8.569   7.133   6.967 -0.3527  0.2528  0.0548
   19POPC   C3A  596   8.529   7.275   6.587 -0.0115  0.1067  0.3086
   19POPC   C4A  597   8.724   7.248   6.251  0.2243  0.4633  0.3977
   19POPC   C1B  598   8.488   7.898   7.494 -0.1991  0.0488 -0.1213
   19POPC   C2B  599   8.679   7.745   7.071  0.2373 -0.1053 -0.2892
   19POPC   C3B  600   8.731   7.697   6.684 -0.1665 -0.0687 -0.1268
   19POPC   C4B  601   8.608   7.776   6.356  0.0254 -0.1887  0.1349
   20POPC   NC3  602   2.997   3.122   9.290 -0.1300 -0.3256  0.3752
   20POPC   PO4  603   3.073   3.326   8.856  0.0164 -0.1352  0.1393
   20POPC   GL1  604   3.037   3.119   8.395 -0.0559 -0.0256 -0.0733
   20POPC   GL2  605   3.334   2.931   8.249  0.0077  0.1366 -0.2190
   20POPC   C1A  606   2.873   3.085   8.006 -0.0287  0.1209  0.1446
   20POPC   D2A  607   2.554   2.882   7.816  0.3065 -0.0881 -0.2558
   20POPC   C3A  608   2.305   2.463   7.791  0.0667  0.0575  0.0628
   20POPC   C4A  609   2.098   2.107   7.534 -0.0301 -0.2482  0.0521
   20POPC   C1B  610   3.161   2.813   7.788 -0.4098 -0.3666 -0.1882
   20POPC   C2B  611   3.346   2.667   7.465  0.0067  0.0832  0.1945
   20POPC   C3B  612   3.613   2.536   7.128  0.0075  0.5788 -0.2242
   20POPC   C4B  613   3.958   2.627   6.897 -0.0830  0.2390  0.2710
   21POPC   NC3  614   3.661   8.555   8.593 -0.0049 -0.0748  0.1274
   21POPC   PO4  615   3.980   8.914   8.475  0.1829 -0.0486 -0.2891
   21POPC   GL1  616   3.904   8.984   8.020 -0.1085  0.0692 -0.0729
   21POPC   GL2  617   3.849   9.303   7.991 -0.0906  0.2863 -0.1667
   21POPC   C1A  618   4.137   8.943   7.638  0.0838 -0.3195 -0.2028
   21POPC   D2A  619   4.400   8.760   7.287 -0.1635  0.0121 -0.0393
   21POPC   C3A  620   4.486   9.090   6.846 -0.1161 -0.0422 -0.0988
   21POPC   C4A  621   4.419   9.004   6.460  0.0301 -0.0940 -0.2842
   21POPC   C1B  622   3.482   9.416   7.767  0.0718 -0.1077  0.2228
   21POPC   C2B  623   3.253   9.649   7.352 -0.1003  0.2125  0.0779
   21POPC   C3B  624   3.223   9.705   6.918 -0.1905  0.0817  0.0143
   21POPC   C4B  625   3.255   9.438   6.569  0.1377 -0.1511 -0.1463
   22POPC   NC3  626   5.188   2.388   8.433 -0.0785 -0.0469 -0.1961
   22POPC   PO4  627   4.735   2.522   8.257  0.0420 -0.0900  0.0060
   22POPC   GL1  628   4.660   2.183   7.958  0.1443 -0.0317 -0.0013
   22POPC   GL2  629   4.606   2.355   7.720  0.0653  0.1045  0.2534
   22POPC   C1A  630   4.485   1.899   7.614 -0.4627  0.1184  0.2103
   22POPC   D2A  631   4.292   1.698   7.295 -0.1303 -0.2259  0.0683
   22POPC   C3A  632   4.346   1.761   6.903  0.1928 -0.0431  0.1498
   22POPC   C4A  633   4.057   1.754   6.423  0.1142 -0.1503 -0.5008
   22POPC   C1B  634   4.468   2.300   7.250  0.0067  0.0435 -0.1494
   22POPC   C2B  635   4.383   2.300   6.851  0.1315  0.0965  0.3035
   22POPC   C3B  636   4.105   2.277   6.512 -0.1224  0.0714 -0.0493
   22POPC   C4B  637   3.802   2.657   6.331  0.3002  0.0346 -0.2211
   23POPC   NC3  638   2.426   7.576   7.946  0.2248  0.5274 -0.0560
   23POPC   PO4  639   2.836   7.651   7.903 -0.2371  0.2426  0.1584
   23POPC   GL1  640   2.700   7.657   7.474  0.0863 -0.1101  0.2767
   23POPC   GL2  641   2.436   7.343   7.384  0.0393  0.0131 -0.0456
   23POPC   C1A  642   2.783   7.536   7.046  0.3880  0.0091 -0.1038
   23POPC   D2A  643   2.560   7.720   6.730  0.1138  0.1284  0.0577
   23POPC   C3A  644   2.923   7.996   6.587  0.1827 -0.3754 -0.1886
   23POPC   C4A  645   2.894   8.347   6.539  0.0227 -0.0802  0.1392
   23POPC   C1B  646   2.348   7.304   6.928  0.2384 -0.2149 -0.2069
   23POPC   C2B  647   1.931   7.294   6.817 -0.0802  0.1928  0.0613
   23POPC   C3B  648   1.566   7.273   6.698 -0.2671  0.0329 -0.2710
   23POPC   C4B  649   1.196   7.237   6.383  0.2519 -0.0252 -0.1971
   24POPC   NC3  650   3.351   2.036   8.397 -0.0261  0.2883  0.3218
   24POPC   PO4  651   3.414   1.861   8.833 -0.0367 -0.0274 -0.1690
   24POPC   GL1  652   3.286   1.491   8.489  0.0585  0.1620  0.3567
   24POPC   GL2  653   3.139   1.214   8.593  0.1298  0.0236  0.2245
   24POPC   C1A  654   3.134   1.447   8.019  0.2162 -0.0669 -0.0750
   24POPC   D2A  655   2.910   1.408   7.621 -0.0186  0.0922 -0.1588
   24POPC   C3A  656   3.157   1.244   7.353  0.7815  0.0077 -0.0034
   24POPC   C4A  657   3.482   1.158   7.412  0.1569  0.1317 -0.0661
   24POPC   C1B  658   3.096   0.992   8.275 -0.6015  0.2581  0.0181
   24POPC   C2B  659   3.143   0.896   7.851 -0.2172  0.1417  0.1511
   24POPC   C3B  660   2.852   0.863   7.515  0.0143  0.0952 -0.1308
   24POPC   C4B  661   2.468   0.742   7.251  0.0404  0.0462  0.0344
   25POPC   NC3  662   7.302   7.100   8.422  0.2420  0.3102 -0.2516
   25POPC   PO4  663   6.917   7.169   8.204  0.1258 -0.0951 -0.0908
   25POPC   GL1  664   6.897   7.223   7.824 -0.2614  0.0409  0.1717
   25POPC   GL2  665   7.182   7.073   7.680  0.0415 -0.0127 -0.2344
   25POPC   C1A  666   7.117   7.550   7.672 -0.0693 -0.1628 -0.1961
   25POPC   D2A  667   6.963   7.936   7.409  0.1789 -0.0371  0.1629
   25POPC   C3A  668   6.565   7.780   7.113 -0.0208 -0.2943 -0.0552
   25POPC   C4A  669   6.260   7.436   7.230 -0.0855  0.0632 -0.0818
   25POPC   C1B  670   7.247   6.955   7.276  0.1402  0.1680 -0.1870
   25POPC   C2B  671   7.542   7.071   6.849 -0.2196 -0.0386 -0.0485
   25POPC   C3B  672   7.300   7.466   6.664  0.0622 -0.0043  0.0264
   25POPC   C4B  673   6.963   7.612   6.351 -0.1779 -0.2458  0.3066
   26POPC   NC3  674   9.261   1.567   8.630 -0.2420  0.0947  0.0779
   26POPC   PO4  675   9.314   2.036   8.831 -0.0899 -0.1162 -0.1105
   26POPC   GL1  676   9.506   1.937   8.453 -0.0928  0.1684 -0.0109
   26POPC   GL2  677   9.906   2.026   8.475  0.0930 -0.2412 -0.0012
   26POPC   C1A  678   9.516   1.828   7.966  0.1027 -0.3517 -0.2149
   26POPC   D2A  679   9.411   2.112   7.696 -0.1329 -0.0303 -0.1564
   26POPC   C3A  680   9.308   1.927   7.236  0.0893  0.1641  0.0533
   26POPC   C4A  681   9.174   1.632   6.821 -0.1248  0.1020  0.1405
   26POPC   C1B  682   9.778   2.252   8.078  0.1481 -0.2167 -0.0728
   26POPC   C2B  683   9.691   2.542   7.783 -0.0840  0.0324  0.3259
   26POPC   C3B  684   9.680   2.387   7.335 -0.0339 -0.0031 -0.1011
   26POPC   C4B  685   9.809   2.090   7.111 -0.1523  0.1326  0.1376
   27POPC   NC3  686   6.418   1.856   8.775  0.2092 -0.4162  0.0049
   27POPC   PO4  687   6.392   2.044   8.344 -0.2671 -0.2398 -0.0443
   27POPC   GL1  688   6.346   1.833   7.981 -0.0149  0.2391 -0.1671
   27POPC   GL2  689   6.355   1.534   7.969 -0.2733 -0.0969 -0.3565
   27POPC   C1A  690   6.385   1.913   7.609  0.2383 -0.0747  0.1585
   27POPC   D2A  691   6.253   2.159   7.223  0.0367 -0.1276 -0.2089
   27POPC   C3A  692   6.400   2.155   6.790  0.3185  0.2013 -0.1983
   27POPC   C4A  693   6.587   2.009   6.434  0.2101  0.1300  0.2639
   27POPC   C1B  694   6.200   1.366   7.633  0.0257 -0.1438 -0.1695
   27POPC   C2B  695   6.017   1.611   7.316 -0.2109  0.0920 -0.0287
   27POPC   C3B  696   6.225   1.704   6.949 -0.0416 -0.2533  0.0184
   27POPC   C4B  697   6.410   1.547   6.615 -0.0870  0.1847  0.2285
   28POPC   NC3  698   3.863   2.966   8.240  0.2531  0.1926 -0.3455
   28POPC   PO4  699   3.692   2.568   8.230  0.0502  0.0339  0.2188
   28POPC   GL1  700   3.614   2.566   7.835  0.1304  0.4903 -0.3359
   28POPC   GL2  701   3.405   2.245   7.895  0.2266  0.0246 -0.1727
   28POPC   C1A  702   3.925   2.713   7.563  0.3014 -0.1902  0.0604
   28POPC   D2A  703   4.318   2.765   7.354 -0.2306  0.1326 -0.2138
   28POPC   C3A  704   4.423   2.840   6.966 -0.0296 -0.0910 -0.0108
   28POPC   C4A  705   4.400   2.655   6.494  0.1298 -0.0381 -0.3612
   28POPC   C1B  706   3.551   2.181   7.518 -0.2300 -0.0814 -0.0272
   28POPC   C2B  707   3.397   2.066   7.109  0.0902  0.2374 -0.2680
   28POPC   C3B  708   3.453   2.222   6.770 -0.1006 -0.0094 -0.1823
   28POPC   C4B  709   3.177   2.257   6.383  0.0564 -0.0283  0.0058
   29POPC   NC3  710   5.868   2.047   8.285  0.0356 -0.4221 -0.3457
   29POPC   PO4  711   5.547   1.883   8.332 -0.1534  0.1653  0.0669
   29POPC   GL1  712   5.406   1.960   7.899 -0.0963 -0.1322  0.1597
   29POPC   GL2  713   5.057   1.851   7.794  0.0450 -0.1215  0.1637
   29POPC   C1A  714   5.522   1.892   7.412  0.2466 -0.1550  0.3008
   29POPC   D2A  715   5.235   1.898   6.998 -0.0673 -0.3035 -0.0818
   29POPC   C3A  716   5.382   1.707   6.577  0.5284 -0.0938  0.1058
   29POPC   C4A  717   5.137   1.558   6.233  0.0091 -0.2609 -0.1431
   29POPC   C1B  718   5.157   1.604   7.466 -0.2874 -0.5680 -0.2964
   29POPC   C2B  719   5.057   1.193   7.283 -0.0429 -0.2440 -0.1214
   29POPC   C3B  720   4.946   0.882   6.890 -0.0681 -0.2786  0.0005
   29POPC   C4B  721   4.959   0.694   6.476 -0.2735  0.0551  0.2673
   30POPC   NC3  722   3.603   7.141   8.395 -0.1772  0.0753 -0.3719
   30POPC   PO4  723   3.328   6.903   8.132 -0.0104  0.0182  0.3765
   30POPC   GL1  724   3.336   6.506   7.753  0.2671 -0.2544 -0.0536
   30POPC   GL2  725   3.487   6.561   7.512 -0.1390 -0.0630 -0.2353
   30POPC   C1A  726   3.209   6.117   7.455  0.0957  0.0320  0.0518
   30POPC   D2A  727   3.293   6.171   7.121 -0.2143  0.0893  0.1535
   30POPC   C3A  728   3.109   6.429   6.818 -0.1728  0.2739  0.0717
   30POPC   C4A  729   3.104   6.782   6.507 -0.2432 -0.0744  0.0731
   30POPC   C1B  730   3.452   6.813   7.030  0.2594  0.1625  0.0423
   30POPC   C2B  731   3.597   6.885   6.631  0.1412  0.1260  0.0884
   30POPC   C3B  732   3.489   6.844   6.168  0.2162 -0.1566 -0.0440
   30POPC   C4B  733   3.064   7.088   5.941 -0.0909  0.0737  0.4340
   31POPC   NC3  734   3.838   4.300   8.267 -0.4069 -0.0406  0.2706
   31POPC   PO4  735   3.391   4.410   8.125  0.2641 -0.3289  0.2958
   31POPC   GL1  736   3.643   4.186   7.805 -0.0481 -0.1520  0.3606
   31POPC   GL2  737   3.947   4.275   7.781 -0.2260 -0.1719  0.0759
   31POPC   C1A  738   3.538   4.107   7.319  0.2078  0.2057 -0.0544
   31POPC   D2A  739   3.574   3.967   6.868  0.1116  0.3308 -0.0112
   31POPC   C3A  740   3.304   4.276   6.737 -0.0199  0.0221 -0.1679
   31POPC   C4A  741   3.108   4.698   6.733  0.0438  0.0907 -0.3956
   31POPC   C1B  742   4.281   3.955   7.610  0.2069 -0.0196  0.1627
   31POPC   C2B  743   4.259   3.669   7.348 -0.0914  0.0085  0.2513
   31POPC   C3B  744   4.084   3.554   6.862  0.3194 -0.0336 -0.1005
   31POPC   C4B  745   4.013   3.493   6.424 -0.3453 -0.2271 -0.2640
   32POPC   NC3  746   9.051   4.601   7.695 -0.0015  0.3062  0.0004
   32POPC   PO4  747   8.615   4.476   7.723 -0.0329  0.0912 -0.0278
   32POPC   GL1  748   8.616   4.670   7.341  0.1284  0.0350 -0.0517
   32POPC   GL2  749   8.374   4.904   7.152 -0.2896 -0.0660  0.1330
   32POPC   C1A  750   8.815   4.795   6.976 -0.3062  0.1603  0.0867
   32POPC   D2A  751   8.920   4.821   6.531  0.0242 -0.0611 -0.1675
   32POPC   C3A  752   9.043   4.496   6.392 -0.0741 -0.0573  0.1390
   32POPC   C4A  753   9.236   4.132   6.449  0.5340  0.1880  0.1599
   32POPC   C1B  754   8.301   4.470   7.012  0.0919 -0.1466 -0.3736
   32POPC   C2B  755   8.376   4.087   6.808  0.0210 -0.0069  0.3442
   32POPC   C3B  756   8.625   4.053   6.308 -0.2163 -0.4083  0.1590
   32POPC   C4B  757   8.866   3.813   6.110  0.1923  0.0254 -0.2545
   33POPC   NC3  758   1.308   3.014   8.926  0.0647  0.0305  0.0941
   33POPC   PO4  759   0.846   3.174   8.822  0.1583  0.1860  0.2642
   33POPC   GL1  760   0.960   2.925   8.503 -0.2308 -0.0491 -0.0699
   33POPC   GL2  761   0.957   2.645   8.688  0.2427 -0.1168  0.0670
   33POPC   C1A  762   1.036   3.035   8.122 -0.1034  0.1665 -0.1583
   33POPC   D2A  763   0.857   3.238   7.755 -0.0977  0.2078  0.0486
   33POPC   C3A  764   1.016   3.547   7.537 -0.1227 -0.0717  0.1462
   33POPC   C4A  765   0.979   3.995   7.456  0.3246  0.0206  0.3025
   33POPC   C1B  766   0.722   2.282   8.527  0.1268  0.0648 -0.1240
   33POPC   C2B  767   0.532   2.204   8.150  0.1885 -0.2206 -0.1553
   33POPC   C3B  768   0.834   2.173   7.824 -0.1704 -0.1550 -0.0882
   33POPC   C4B  769   0.926   2.370   7.376 -0.0792  0.1181 -0.2388
   34POPC   NC3  770   5.674   4.705   7.858 -0.0548 -0.0638 -0.1114
   34POPC   PO4  771   5.198   4.691   7.759 -0.0179  0.3252  0.2126
   34POPC   GL1  772   5.056   4.506   7.443  0.0050  0.0634  0.2472
   34POPC   GL2  773   5.258   4.383   7.241 -0.1222 -0.2684  0.0107
   34POPC   C1A  774   5.070   4.823   7.053  0.0968  0.1202  0.2130
   34POPC   D2A  775   5.061   4.747   6.643  0.1099  0.1408 -0.0004
   34POPC   C3A  776   5.407   4.660   6.477  0.0328 -0.0486  0.3177
   34POPC   C4A  777   5.808   4.770   6.084  0.0935  0.0474 -0.0203
   34POPC   C1B  778   4.986   4.252   6.956 -0.4305 -0.0636  0.3409
   34POPC   C2B  779   4.639   4.379   6.659 -0.4735 -0.1445  0.2509
   34POPC   C3B  780   4.402   4.313   6.326  0.1624  0.0554  0.1023
   34POPC   C4B  781   4.289   4.125   5.996  0.0561  0.2813 -0.2054
   35POPC   NC3  782   8.112   6.814   8.253 -0.2156 -0.3245 -0.1180
   35POPC   PO4  783   8.092   6.413   8.042  0.0939  0.1874  0.1376
   35POPC   GL1  784   8.004   6.206   7.701 -0.1205  0.0879  0.0599
   35POPC   GL2  785   8.016   6.416   7.516 -0.1653 -0.2581 -0.1714
   35POPC   C1A  786   8.035   5.962   7.281  0.0908  0.0148 -0.1829
   35POPC   D2A  787   8.057   5.896   6.941 -0.1422  0.0841  0.0699
   35POPC   C3A  788   8.397   5.881   6.540 -0.0899  0.0920 -0.1281
   35POPC   C4A  789   8.646   5.594   6.186 -0.2738  0.0335 -0.2850
   35POPC   C1B  790   7.977   6.474   7.051 -0.0275  0.3035 -0.0092
   35POPC   C2B  791   8.020   6.795   6.713 -0.1157  0.0870  0.0204
   35POPC   C3B  792   8.067   7.229   6.418  0.1496 -0.0512  0.1473
   35POPC   C4B  793   8.278   7.517   6.051  0.2787  0.4568 -0.0200
   36POPC   NC3  794   0.593   3.922   8.225  0.0093 -0.1532 -0.1639
   36POPC   PO4  795   0.221   3.795   8.250  0.0938  0.1130  0.0275
   36POPC   GL1  796   0.399   3.444   7.990 -0.0123 -0.1993 -0.0358
   36POPC   GL2  797   0.438   3.628   7.796 -0.1173 -0.0359  0.1917
   36POPC   C1A  798   0.398   3.024   7.861  0.1725 -0.0845 -0.0971
   36POPC   D2A  799   0.522   2.648   7.729 -0.3041 -0.2254 -0.0037
   36POPC   C3A  800   0.340   2.194   7.647  0.3970  0.0932 -0.3725
   36POPC   C4A  801   0.241   1.886   7.611 -0.0144  0.0369  0.1337
   36POPC   C1B  802   0.475   3.802   7.482  0.0141 -0.1272  0.3029
   36POPC   C2B  803   0.386   3.740   7.047  0.0834 -0.1002 -0.1880
   36POPC   C3B  804   0.493   3.933   6.702 -0.0333 -0.3179 -0.1476
   36POPC   C4B  805   0.947   3.924   6.633  0.1231 -0.1714  0.2509
   37POPC   NC3  806   6.020   4.125   8.104 -0.1309  0.1699  0.1549
   37POPC   PO4  807   6.149   4.444   7.855 -0.0587 -0.0264  0.0614
   37POPC   GL1  808   5.998   4.622   7.440 -0.1666 -0.0212  0.1316
   37POPC   GL2  809   5.779   4.474   7.414  0.0986  0.0249  0.0686
   37POPC   C1A  810   6.113   4.662   7.012 -0.0050  0.0483  0.0170
   37POPC   D2A  811   6.261   4.404   6.680 -0.0783  0.4325 -0.2730
   37POPC   C3A  812   6.628   4.524   6.415  0.3358  0.0222  0.1868
   37POPC   C4A  813   6.610   4.710   5.915 -0.0614 -0.1434  0.1815
   37POPC   C1B  814   5.853   4.198   7.114 -0.1799  0.2182 -0.1422
   37POPC   C2B  815   6.196   3.883   7.031 -0.0297 -0.1202 -0.2947
   37POPC   C3B  816   6.258   3.586   6.651 -0.0795 -0.1356  0.2377
   37POPC   C4B  817   6.227   3.562   6.191 -0.4030 -0.1763 -0.4232
   38POPC   NC3  818   5.878   8.585   7.953  0.0373  0.4678 -0.3122
   38POPC   PO4  819   5.545   8.622   8.172 -0.0628  0.0263 -0.2290
   38POPC   GL1  820   5.423   8.606   7.725  0.0196  0.0816 -0.3302
   38POPC   GL2  821   5.319   8.890   7.568 -0.2720 -0.2024 -0.0293
   38POPC   C1A  822   5.376   8.372   7.412 -0.1852 -0.1006  0.0887
   38POPC   D2A  823   5.274   8.395   6.959 -0.2876  0.0234  0.3854
   38POPC   C3A  824   5.638   8.264   6.639 -0.0205 -0.5113 -0.1780
   38POPC   C4A  825   5.898   8.183   6.357  0.3679  0.0717  0.0520
   38POPC   C1B  826   5.431   9.101   7.206  0.1239 -0.1658 -0.1223
   38POPC   C2B  827   5.582   9.163   6.756 -0.3098 -0.2007  0.1081
   38POPC   C3B  828   5.824   9.254   6.343 -0.0930 -0.0514  0.2023
   38POPC   C4B  829   6.103   9.468   6.257 -0.0173 -0.1275  0.0162
   39POPC   NC3  830   7.439   6.284   7.943 -0.1650  0.1754  0.2965
   39POPC   PO4  831   7.158   5.932   8.036 -0.2234  0.0693 -0.4301
   39POPC   GL1  832   7.095   5.820   7.525 -0.0609 -0.1760 -0.2990
   39POPC   GL2  833   7.139   5.493   7.412  0.1244 -0.1938 -0.1804
   39POPC   C1A  834   7.192   5.782   6.995  0.1041 -0.0941  0.1204
   39POPC   D2A  835   7.095   5.899   6.549  0.0845  0.1767  0.1010
   39POPC   C3A  836   7.358   5.724   6.223  0.0789  0.1379  0.1085
   39POPC   C4A  837   7.337   5.413   5.967 -0.0089 -0.0925 -0.0197
   39POPC   C1B  838   6.887   5.357   7.101  0.0968 -0.0250  0.0650
   39POPC   C2B  839   6.765   5.391   6.652  0.2830  0.1060 -0.2686
   39POPC   C3B  840   6.658   5.650   6.289 -0.3074 -0.1444  0.0219
   39POPC   C4B  841   6.873   5.649   5.873  0.2163 -0.2015 -0.0906
   40POPC   NC3  842   7.056   4.328   8.576  0.1145 -0.0898  0.0082
   40POPC   PO4  843   7.292   4.133   8.209 -0.0251 -0.1914  0.4031
   40POPC   GL1  844   6.999   4.091   7.830 -0.0154 -0.0528 -0.1035
   40POPC   GL2  845   6.666   4.316   7.685 -0.2304  0.0234  0.1900
   40POPC   C1A  846   7.034   3.945   7.445  0.1218  0.1714 -0.1974
   40POPC   D2A  847   7.002   3.967   6.932  0.1438 -0.2141  0.2172
   40POPC   C3A  848   6.621   4.042   6.678 -0.0445  0.0293  0.2905
   40POPC   C4A  849   6.245   3.991   6.370  0.0535 -0.3131 -0.1511
   40POPC   C1B  850   7.015   4.474   7.366 -0.0489 -0.0684  0.1548
   40POPC   C2B  851   7.267   4.618   7.027  0.0835 -0.2912  0.2764
   40POPC   C3B  852   7.582   4.871   6.777 -0.0155 -0.0609  0.0401
   40POPC   C4B  853   8.018   4.888   6.807  0.1107  0.1432 -0.0589
   41POPC   NC3  854   6.791   5.665   8.276 -0.1270 -0.0347  0.0531
   41POPC   PO4  855   6.718   5.832   7.876 -0.1398  0.1721  0.0901
   41POPC   GL1  856   6.589   5.649   7.479 -0.3421  0.2561  0.0725
   41POPC   GL2  857   6.552   5.327   7.539  0.1071  0.2521 -0.0139
   41POPC   C1A  858   6.588   5.785   7.047  0.1620 -0.0136 -0.0845
   41POPC   D2A  859   6.639   5.985   6.688  0.2964 -0.0173 -0.0158
   41POPC   C3A  860   6.494   6.450   6.751  0.1110 -0.0536 -0.3007
   41POPC   C4A  861   6.334   6.762   6.621 -0.1275  0.2213 -0.0719
   41POPC   C1B  862   6.355   5.165   7.138  0.0489 -0.0868 -0.0582
   41POPC   C2B  863   6.511   4.897   6.798 -0.3847  0.1535  0.2286
   41POPC   C3B  864   6.518   5.049   6.325  0.2388 -0.1574  0.0551
   41POPC   C4B  865   6.225   5.006   5.964  0.0218 -0.1852  0.2201
   42POPC   NC3  866   3.489   0.787   9.604  0.2700  0.1751  0.0946
   42POPC   PO4  867   3.088   0.779   9.394 -0.0272 -0.0031 -0.2450
   42POPC   GL1  868   3.026   0.607   8.948 -0.0038  0.0219  0.0389
   42POPC   GL2  869   2.845   0.879   8.896  0.0078  0.0101  0.1080
   42POPC   C1A  870   3.291   0.617   8.579 -0.3119 -0.0123  0.2039
   42POPC   D2A  871   3.318   0.452   8.094 -0.0083  0.0793 -0.2035
   42POPC   C3A  872   3.686   0.749   7.927  0.3788 -0.0104 -0.1253
   42POPC   C4A  873   3.565   1.174   7.905  0.3671 -0.2926  0.0947
   42POPC   C1B  874   2.599   0.940   8.594  0.0690  0.0220 -0.0072
   42POPC   C2B  875   2.340   0.810   8.361  0.1121 -0.1619  0.0757
   42POPC   C3B  876   2.219   0.378   8.149  0.0107  0.1573  0.2379
   42POPC   C4B  877   1.883   0.156   7.952 -0.0342 -0.3076 -0.1905
   43POPC   NC3  878   9.167   7.195   7.801 -0.1780 -0.1054 -0.0955
   43POPC   PO4  879   9.381   7.508   8.063 -0.1429  0.5485  0.0523
   43POPC   GL1  880   9.300   7.767   7.744  0.4255 -0.3694  0.1558
   43POPC   GL2  881   9.599   7.950   7.688 -0.2710 -0.1002  0.1533
   43POPC   C1A  882   8.975   8.031   7.478  0.1496 -0.0397 -0.0161
   43POPC   D2A  883   8.761   8.343   7.175 -0.0612  0.2248  0.1389
   43POPC   C3A  884   8.403   8.133   6.944  0.1008  0.2168  0.3575
   43POPC   C4A  885   8.103   8.069   6.626 -0.1808  0.1886  0.1200
   43POPC   C1B  886   9.696   7.961   7.272  0.2328  0.0820  0.0415
   43POPC   C2B  887   9.854   7.897   6.904  0.2687 -0.0450 -0.0701
   43POPC   C3B  888   9.642   7.900   6.567 -0.3382  0.0760  0.2273
   43POPC   C4B  889   9.408   7.897   6.091  0.1208  0.3500 -0.1467
   44POPC   NC3  890   5.409   3.672   8.619 -0.0911 -0.0758  0.0644
   44POPC   PO4  891   5.181   3.357   8.320  0.1554 -0.0486 -0.0027
   44POPC   GL1  892   5.334   3.486   7.856  0.1615  0.0615 -0.0020
   44POPC   GL2  893   5.235   3.772   7.695 -0.1433 -0.2358  0.1797
   44POPC   C1A  894   5.692   3.419   7.477  0.1932 -0.1868 -0.2737
   44POPC   D2A  895   5.881   3.491   6.997 -0.3867 -0.0451 -0.1413
   44POPC   C3A  896   5.627   3.381   6.662  0.1907 -0.5302  0.3010
   44POPC   C4A  897   5.313   3.607   6.463 -0.5003 -0.2297  0.2564
   44POPC   C1B  898   5.012   3.941   7.368 -0.0759 -0.1756 -0.0028
   44POPC   C2B  899   4.774   3.617   7.168  0.1125  0.0034  0.0970
   44POPC   C3B  900   4.561   3.444   6.811  0.0980 -0.1766  0.0800
   44POPC   C4B  901   4.746   3.270   6.424 -0.3102 -0.0238 -0.3491
   45POPC   NC3  902   6.136   6.909   8.412 -0.1362  0.1378 -0.0439
   45POPC   PO4  903   6.214   6.546   8.067 -0.2619 -0.0318 -0.3466
   45POPC   GL1  904   6.201   6.901   7.842  0.1541 -0.0702 -0.2383
   45POPC   GL2  905   6.423   7.085   7.663 -0.3790 -0.2003 -0.1783
   45POPC   C1A  906   5.939   7.080   7.543 -0.1136  0.1174  0.1519
   45POPC   D2A  907   5.834   7.282   7.192  0.0127  0.0175  0.0603
   45POPC   C3A  908   5.582   7.265   6.882 -0.2515  0.0892 -0.0397
   45POPC   C4A  909   5.461   6.891   6.622  0.2439 -0.3266  0.2115
   45POPC   C1B  910   6.805   7.212   7.321 -0.1065 -0.4744  0.1570
   45POPC   C2B  911   7.075   7.471   7.134  0.1628 -0.1202  0.1638
   45POPC   C3B  912   7.490   7.423   7.315  0.0144 -0.0005 -0.1770
   45POPC   C4B  913   7.723   7.010   7.387 -0.0599 -0.5311 -0.0328
   46POPC   NC3  914   4.833   3.102   8.657 -0.2325 -0.1656  0.3581
   46POPC   PO4  915   4.989   2.887   8.385 -0.0025 -0.2426 -0.2380
   46POPC   GL1  916   4.813   3.013   7.949  0.3981 -0.0101  0.0644
   46POPC   GL2  917   4.445   3.013   7.899 -0.5710  0.0991  0.1983
   46POPC   C1A  918   4.886   2.857   7.573  0.0183 -0.0080  0.2980
   46POPC   D2A  919   4.846   2.617   7.163  0.2060 -0.2328 -0.0015
   46POPC   C3A  920   5.232   2.832   6.910 -0.0357  0.0626 -0.0140
   46POPC   C4A  921   5.664   2.799   6.688 -0.0119  0.1428 -0.3504
   46POPC   C1B  922   4.469   3.197   7.412  0.0923  0.1439 -0.0632
   46POPC   C2B  923   4.810   3.118   7.079 -0.0179 -0.1238  0.1938
   46POPC   C3B  924   5.063   3.349   6.797  0.2727  0.1172  0.0682
   46POPC   C4B  925   4.921   3.788   6.701 -0.2505 -0.0833  0.0246
   47POPC   NC3  926   4.304   2.306   8.390  0.1595  0.1454  0.1202
   47POPC   PO4  927   4.486   1.887   8.356  0.0620 -0.0671 -0.0991
   47POPC   GL1  928   4.220   1.841   8.019 -0.0101 -0.0486 -0.1544
   47POPC   GL2  929   3.920   2.129   8.005 -0.1921 -0.0553 -0.0629
   47POPC   C1A  930   4.014   1.718   7.695  0.0254 -0.0051  0.2854
   47POPC   D2A  931   3.790   1.744   7.326  0.1725 -0.3291 -0.0114
   47POPC   C3A  932   3.426   1.544   7.080 -0.1555 -0.0778 -0.0267
   47POPC   C4A  933   3.172   1.818   6.704  0.0274 -0.2102 -0.0145
   47POPC   C1B  934   4.049   2.218   7.635  0.0163 -0.1066  0.0037
   47POPC   C2B  935   4.014   2.215   7.164  0.0103 -0.0767  0.1196
   47POPC   C3B  936   3.892   1.966   6.845  0.0634 -0.2545  0.2222
   47POPC   C4B  937   3.673   1.580   6.595 -0.1414 -0.0725 -0.2162
   48POPC   NC3  938   8.898   1.241   8.494  0.2175  0.0625 -0.0119
   48POPC   PO4  939   9.248   1.010   8.634  0.0402 -0.1556 -0.1388
   48POPC   GL1  940   9.212   0.915   8.174 -0.0545  0.2590 -0.0754
   48POPC   GL2  941   8.899   0.734   8.265  0.5258  0.0561  0.0016
   48POPC   C1A  942   9.492   0.915   7.743 -0.0811 -0.1655 -0.0090
   48POPC   D2A  943   9.826   1.071   7.380  0.0676  0.0114 -0.1272
   48POPC   C3A  944   9.744   0.778   6.966  0.1528  0.2302  0.0847
   48POPC   C4A  945   9.878   0.362   6.687 -0.0112  0.0868  0.1595
   48POPC   C1B  946   8.844   0.746   7.841 -0.1485  0.3335 -0.0675
   48POPC   C2B  947   9.070   0.593   7.597  0.0245 -0.0807 -0.0370
   48POPC   C3B  948   9.409   0.565   7.343 -0.2250 -0.0680 -0.0106
   48POPC   C4B  949   9.511   0.349   7.047  0.1286 -0.1188  0.5669
   49POPC   NC3  950   0.820   6.858   7.827  0.1892  0.1292  0.3018
   49POPC   PO4  951   0.460   7.010   8.043  0.0006  0.0964 -0.2350
   49POPC   GL1  952   0.272   6.841   7.671  0.2482  0.0729 -0.2768
   49POPC   GL2  953   0.548   6.647   7.434  0.1299 -0.0375  0.2771
   49POPC   C1A  954   0.267   7.039   7.243  0.1058 -0.2009 -0.2682
   49POPC   D2A  955   0.205   7.087   6.763  0.0156  0.2763  0.1204
   49POPC   C3A  956   0.260   6.693   6.515  0.1688  0.1400 -0.0376
   49POPC   C4A  957   0.398   6.614   6.096 -0.2380 -0.0127  0.2512
   49POPC   C1B  958   0.803   6.606   7.130 -0.2292 -0.0556 -0.1474
   49POPC   C2B  959   1.149   6.825   6.949  0.3079  0.2806 -0.1461
   49POPC   C3B  960   1.377   6.849   6.672  0.0306 -0.1474 -0.1741
   49POPC   C4B  961   1.559   6.861   6.290  0.0290 -0.0276  0.0512
   50POPC   NC3  962   4.485   4.816   8.379 -0.1209 -0.0618  0.0875
   50POPC   PO4  963   4.894   4.972   8.206  0.1553 -0.0245  0.2670
   50POPC   GL1  964   4.720   4.942   7.838  0.0290 -0.2208  0.1837
   50POPC   GL2  965   4.631   4.712   7.795  0.1520 -0.2719  0.0843
   50POPC   C1A  966   4.284   5.136   7.674 -0.2325 -0.2922  0.1382
   50POPC   D2A  967   3.852   5.298   7.654 -0.0265 -0.0595 -0.1564
   50POPC   C3A  968   3.613   5.170   7.373  0.0418  0.0086  0.2993
   50POPC   C4A  969   3.641   5.192   6.889  0.1266  0.0195 -0.0149
   50POPC   C1B  970   4.612   4.809   7.380  0.1421  0.0210  0.2939
   50POPC   C2B  971   4.433   4.695   6.966 -0.0500 -0.1404 -0.0185
   50POPC   C3B  972   4.192   4.401   6.787  0.1575 -0.0496  0.1316
   50POPC   C4B  973   3.919   4.146   6.518  0.1544  0.2002 -0.0760
   51POPC   NC3  974   5.311   5.391   8.415 -0.0783  0.1078  0.2161
   51POPC   PO4  975   5.262   5.872   8.246  0.1182  0.1956 -0.0973
   51POPC   GL1  976   5.089   6.149   7.920 -0.1297 -0.2583  0.2154
   51POPC   GL2  977   5.050   5.933   7.675  0.0966 -0.3041 -0.4545
   51POPC   C1A  978   4.843   6.386   7.723 -0.1628  0.1273  0.0444
   51POPC   D2A  979   4.543   6.592   7.426 -0.0967  0.0665 -0.0831
   51POPC   C3A  980   4.738   6.849   7.320  0.1763  0.2172  0.0329
   51POPC   C4A  981   4.745   7.251   7.474  0.0190 -0.3164 -0.1157
   51POPC   C1B  982   5.092   5.697   7.399  0.0964 -0.0666 -0.1949
   51POPC   C2B  983   5.047   5.477   6.992 -0.3316  0.0787  0.1942
   51POPC   C3B  984   4.980   5.614   6.637  0.2854 -0.3309  0.2010
   51POPC   C4B  985   5.137   6.031   6.490 -0.0706  0.0588 -0.1269
   52POPC   NC3  986   3.851   2.093   9.019  0.2333 -0.1858  0.3625
   52POPC   PO4  987   3.645   2.359   8.678 -0.0361  0.2992  0.2045
   52POPC   GL1  988   3.204   2.514   8.395  0.2065  0.2708 -0.1610
   52POPC   GL2  989   2.845   2.594   8.468 -0.1511  0.2492 -0.1501
   52POPC   C1A  990   2.919   2.451   8.014 -0.0422 -0.1164  0.0313
   52POPC   D2A  991   2.997   2.347   7.561  0.0617  0.3374  0.0428
   52POPC   C3A  992   2.660   2.545   7.413 -0.1902 -0.0852  0.1269
   52POPC   C4A  993   2.598   2.666   7.051  0.0351  0.1362 -0.3423
   52POPC   C1B  994   2.530   2.691   8.320  0.2238 -0.0578 -0.1234
   52POPC   C2B  995   2.225   2.364   8.330 -0.1973 -0.2922  0.0433
   52POPC   C3B  996   1.915   2.256   8.080  0.2436  0.0372  0.1566
   52POPC   C4B  997   1.372   2.119   7.889 -0.1601 -0.1458  0.3131
   53POPC   NC3  998   3.500   3.296   8.611 -0.0384  0.1823 -0.1213
   53POPC   PO4  999   3.646   3.443   8.328 -0.0449  0.0807 -0.0032
   53POPC   GL1 1000   3.451   3.522   7.911 -0.4641  0.2961 -0.0763
   53POPC   GL2 1001   3.575   3.202   7.872  0.0488  0.2162  0.2947
   53POPC   C1A 1002   3.242   3.719   7.515 -0.0349  0.1708  0.0680
   53POPC   D2A 1003   3.076   3.486   7.078 -0.1874  0.2951  0.0585
   53POPC   C3A 1004   3.084   3.744   6.764 -0.1903  0.0752 -0.2777
   53POPC   C4A 1005   3.123   3.853   6.339  0.1438 -0.0633 -0.1735
   53POPC   C1B 1006   3.421   3.165   7.483  0.2683 -0.0680 -0.2735
   53POPC   C2B 1007   3.412   3.018   7.059  0.2898 -0.2474 -0.3087
   53POPC   C3B 1008   3.441   2.734   6.719  0.2564 -0.0124  0.2266
   53POPC   C4B 1009   3.328   2.818   6.295  0.3790 -0.3332 -0.0471
   54POPC   NC3 1010   1.248   8.835   9.325  0.2072  0.4248 -0.4773
   54POPC   PO4 1011   1.318   9.041   8.887 -0.2663  0.2926  0.0051
   54POPC   GL1 1012   1.368   9.157   8.368  0.2817  0.0486 -0.0889
   54POPC   GL2 1013   1.262   9.055   8.087  0.2137 -0.3059  0.3583
   54POPC   C1A 1014   1.193   9.531   8.192  0.1536  0.4082 -0.0143
   54POPC   D2A 1015   1.118   9.781   7.895  0.2029 -0.2013  0.1088
   54POPC   C3A 1016   0.709   9.880   7.692 -0.4300 -0.0447 -0.0695
   54POPC   C4A 1017   0.454  10.077   7.390 -0.0021  0.1282  0.0594
   54POPC   C1B 1018   0.898   8.961   7.980  0.1385 -0.2661 -0.1623
   54POPC   C2B 1019   0.628   8.574   7.879 -0.1195 -0.1566 -0.2342
   54POPC   C3B 1020   0.756   8.273   7.519 -0.1428 -0.0374 -0.0207
   54POPC   C4B 1021   0.906   8.403   7.168 -0.2816 -0.2893  0.0484
   55POPC   NC3 1022   2.088   5.565   7.935  0.0238  0.1853 -0.0609
   55POPC   PO4 1023   2.369   5.846   7.825  0.0344  0.0735 -0.3700
   55POPC   GL1 1024   2.425   5.876   7.437 -0.1762 -0.0065 -0.0202
   55POPC   GL2 1025   2.791   5.806   7.331  0.1436  0.0342 -0.1994
   55POPC   C1A 1026   2.369   5.798   6.963  0.0897 -0.0121 -0.1218
   55POPC   D2A 1027   2.319   5.375   6.673 -0.1674 -0.2057  0.1068
   55POPC   C3A 1028   2.243   5.214   6.271 -0.0616 -0.1964  0.0518
   55POPC   C4A 1029   1.854   5.083   6.043 -0.1621 -0.1716 -0.1303
   55POPC   C1B 1030   2.971   5.693   6.967  0.0097 -0.0086  0.0908
   55POPC   C2B 1031   2.770   5.532   6.697 -0.2328 -0.1287  0.2113
   55POPC   C3B 1032   2.671   5.444   6.227 -0.2971 -0.0489  0.0078
   55POPC   C4B 1033   2.534   5.382   5.719 -0.0315  0.2965  0.0100
   56POPC   NC3 1034   3.656   9.277   8.878  0.0513  0.1219 -0.2016
   56POPC   PO4 1035   3.821   9.415   8.481 -0.1977 -0.2358  0.1189
   56POPC   GL1 1036   3.765   9.761   7.999  0.1919  0.2026 -0.1935
   56POPC   GL2 1037   3.939  10.086   7.892  0.3061  0.0389  0.1266
   56POPC   C1A 1038   3.593   9.941   7.567 -0.1337 -0.0541  0.0541
   56POPC   D2A 1039   3.690   9.785   7.111  0.1531  0.1630  0.2437
   56POPC   C3A 1040   3.756   9.803   6.631 -0.0425  0.3191  0.1444
   56POPC   C4A 1041   3.609   9.604   6.252  0.2593  0.1673  0.0382
   56POPC   C1B 1042   3.867  10.320   7.476 -0.3826  0.3309  0.0307
   56POPC   C2B 1043   3.768  10.359   7.142  0.0399 -0.2865  0.0369
   56POPC   C3B 1044   3.505  10.180   6.926  0.2867 -0.0408 -0.0550
   56POPC   C4B 1045   3.294   9.988   6.498 -0.0931 -0.0259 -0.0631
   57POPC   NC3 1046   6.815   2.666   8.139  0.0338  0.0733 -0.2146
   57POPC   PO4 1047   6.482   2.513   8.295  0.2812 -0.2259 -0.0721
   57POPC   GL1 1048   6.508   2.315   7.833 -0.0922 -0.1700 -0.2224
   57POPC   GL2 1049   6.775   2.559   7.622 -0.1151  0.4094 -0.0294
   57POPC   C1A 1050   6.260   2.596   7.454  0.1819  0.1502 -0.1092
   57POPC   D2A 1051   5.903   2.583   7.185 -0.0260 -0.0648 -0.1931
   57POPC   C3A 1052   5.970   2.394   6.796  0.0044 -0.0823  0.2163
   57POPC   C4A 1053   6.104   2.318   6.294 -0.1336 -0.0194  0.2660
   57POPC   C1B 1054   7.050   2.606   7.248 -0.0539  0.1521  0.1136
   57POPC   C2B 1055   7.241   2.246   7.166 -0.1998  0.0200  0.1868
   57POPC   C3B 1056   7.352   2.077   6.837 -0.0260  0.2218 -0.2076
   57POPC   C4B 1057   7.669   2.086   6.453  0.0060 -0.1039 -0.2185
   58POPC   NC3 1058   1.946   8.423   8.756  0.1978  0.0489  0.0463
   58POPC   PO4 1059   2.360   8.694   8.748  0.2675 -0.0673 -0.0650
   58POPC   GL1 1060   2.162   8.980   8.458 -0.0437  0.2887 -0.1079
   58POPC   GL2 1061   2.020   8.895   8.199  0.2905 -0.3479  0.1231
   58POPC   C1A 1062   2.226   9.329   8.133 -0.0086  0.0690  0.1868
   58POPC   D2A 1063   2.201   9.530   7.820 -0.1044 -0.2042  0.1182
   58POPC   C3A 1064   2.407   9.582   7.369  0.2663 -0.0028 -0.1038
   58POPC   C4A 1065   2.681   9.443   7.112 -0.1278 -0.0938 -0.0834
   58POPC   C1B 1066   2.141   8.617   7.833 -0.1946 -0.0894 -0.2640
   58POPC   C2B 1067   1.990   8.520   7.404  0.1692  0.0081  0.3571
   58POPC   C3B 1068   1.862   8.766   7.063  0.0459 -0.1530  0.2097
   58POPC   C4B 1069   1.961   9.021   6.757  0.0616  0.2094  0.1933
   59POPC   NC3 1070   2.906   4.466   8.044  0.0674  0.1202 -0.0384
   59POPC   PO4 1071   2.895   4.065   8.220 -0.3279  0.2331  0.2525
   59POPC   GL1 1072   2.761   3.755   7.935 -0.1117 -0.3943 -0.2764
   59POPC   GL2 1073   2.915   3.568   7.887  0.1507  0.0720 -0.1062
   59POPC   C1A 1074   2.771   3.798   7.438 -0.3912  0.4930  0.2710
   59POPC   D2A 1075   2.974   4.097   7.116 -0.0633 -0.0721 -0.1244
   59POPC   C3A 1076   3.187   4.406   7.257  0.1555 -0.0506 -0.1704
   59POPC   C4A 1077   3.582   4.619   7.047 -0.2596  0.5007  0.0797
   59POPC   C1B 1078   2.909   3.238   7.576  0.3620 -0.2389 -0.3304
   59POPC   C2B 1079   2.986   2.968   7.271 -0.0904 -0.0020  0.0245
   59POPC   C3B 1080   2.954   3.043   6.874  0.0567  0.3143  0.0998
   59POPC   C4B 1081   3.126   3.307   6.473  0.1668 -0.3703 -0.1742
   60POPC   NC3 1082   8.565   3.135   7.827 -0.0993  0.3256 -0.1335
   60POPC   PO4 1083   8.928   2.814   7.826  0.1365 -0.1557  0.1702
   60POPC   GL1 1084   8.801   2.813   7.482 -0.1716  0.1536  0.0867
   60POPC   GL2 1085   8.401   2.776   7.437 -0.2112 -0.4199  0.2815
   60POPC   C1A 1086   8.747   2.627   7.076  0.0657  0.2595  0.3399
   60POPC   D2A 1087   8.941   2.667   6.730  0.1489  0.0365 -0.0640
   60POPC   C3A 1088   9.253   2.612   6.437  0.1350  0.0574  0.1172
   60POPC   C4A 1089   9.441   2.673   6.056  0.1707  0.0556 -0.1861
   60POPC   C1B 1090   8.233   2.797   6.943  0.0226  0.0037  0.3458
   60POPC   C2B 1091   8.401   2.540   6.632 -0.1485  0.1190 -0.3210
   60POPC   C3B 1092   8.599   2.408   6.319 -0.1526  0.0724  0.0625
   60POPC   C4B 1093   8.906   2.345   6.119  0.0467 -0.2890 -0.3535
   61POPC   NC3 1094   7.628   5.428   7.875 -0.0675 -0.1642  0.2760
   61POPC   PO4 1095   7.690   5.892   8.069  0.0281 -0.1457 -0.1424
   61POPC   GL1 1096   7.618   5.888   7.564  0.0266 -0.0247 -0.0549
   61POPC   GL2 1097   7.587   6.220   7.376  0.1798  0.0549 -0.1608
   61POPC   C1A 1098   7.663   5.631   7.179 -0.1300  0.0802 -0.0608
   61POPC   D2A 1099   7.860   5.382   6.904 -0.0691 -0.0573  0.2297
   61POPC   C3A 1100   8.207   5.400   6.607 -0.1271  0.0020 -0.0850
   61POPC   C4A 1101   8.628   5.228   6.563 -0.1581 -0.1671 -0.0726
   61POPC   C1B 1102   7.492   6.607   7.075 -0.0470  0.0396 -0.2250
   61POPC   C2B 1103   7.509   6.633   6.593 -0.0390  0.0669 -0.1880
   61POPC   C3B 1104   7.275   6.535   6.173  0.3095 -0.0332  0.1887
   61POPC   C4B 1105   7.227   6.140   5.955  0.1793 -0.2535 -0.1558
   62POPC   NC3 1106   7.572   4.617   8.180  0.0804  0.0779 -0.4507
   62POPC   PO4 1107   7.346   4.981   8.074  0.0871  0.3950 -0.5980
   62POPC   GL1 1108   7.288   4.987   7.617  0.0022 -0.0829  0.1606
   62POPC   GL2 1109   6.991   4.985   7.563 -0.0063  0.0968 -0.4768
   62POPC   C1A 1110   7.374   5.128   7.158  0.0127 -0.1543  0.2717
   62POPC   D2A 1111   7.364   5.402   6.711 -0.0435  0.1527  0.1316
   62POPC   C3A 1112   7.594   5.761   6.659  0.0248  0.3357 -0.1250
   62POPC   C4A 1113   7.605   6.159   6.823 -0.1656 -0.1076  0.0031
   62POPC   C1B 1114   6.818   4.901   7.150 -0.1596  0.0113  0.0679
   62POPC   C2B 1115   7.046   4.962   6.768 -0.2348  0.1053 -0.0498
   62POPC   C3B 1116   7.277   4.930   6.441 -0.0776  0.0071 -0.0231
   62POPC   C4B 1117   7.100   4.812   6.104  0.1689 -0.2387  0.2143
   63POPC   NC3 1118   5.256   8.971   8.034  0.0990 -0.0990 -0.1059
   63POPC   PO4 1119   4.811   9.141   8.102  0.0504 -0.0514  0.1046
   63POPC   GL1 1120   4.631   9.156   7.782 -0.4289  0.0894 -0.3077
   63POPC   GL2 1121   4.852   8.763   7.669  0.3469 -0.1998 -0.1696
   63POPC   C1A 1122   4.526   9.194   7.343  0.0428 -0.2165 -0.1439
   63POPC   D2A 1123   4.157   9.373   7.144 -0.0085 -0.1374 -0.0569
   63POPC   C3A 1124   4.000   9.003   6.996  0.1648 -0.1143  0.1222
   63POPC   C4A 1125   3.904   8.598   6.790  0.0338 -0.0890  0.0507
   63POPC   C1B 1126   4.880   8.840   7.209  0.2086 -0.0471 -0.0478
   63POPC   C2B 1127   4.794   8.688   6.906  0.1175  0.4033  0.1426
   63POPC   C3B 1128   4.710   8.591   6.398  0.0746 -0.0018  0.2247
   63POPC   C4B 1129   4.617   8.174   6.090 -0.1147  0.2019 -0.0144
   64POPC   NC3 1130   0.544   6.337   7.825 -0.0128 -0.0685 -0.3192
   64POPC   PO4 1131   0.962   6.181   7.999 -0.1552 -0.1906  0.0028
   64POPC   GL1 1132   0.875   6.085   7.555  0.0227 -0.1586  0.3491
   64POPC   GL2 1133   0.612   6.028   7.436  0.0460 -0.3140 -0.3946
   64POPC   C1A 1134   0.917   5.909   7.045  0.0573 -0.1254  0.4239
   64POPC   D2A 1135   0.824   5.569   6.774 -0.0428  0.1601 -0.1789
   64POPC   C3A 1136   0.969   5.388   6.346 -0.1393  0.1469 -0.2366
   64POPC   C4A 1137   0.838   5.122   6.019  0.0250  0.4441 -0.3486
   64POPC   C1B 1138   0.415   6.220   7.151  0.1907 -0.1502  0.2575
   64POPC   C2B 1139   0.106   6.397   6.909  0.0895  0.0151  0.1632
   64POPC   C3B 1140  -0.349   6.354   6.678 -0.0165 -0.1713 -0.1616
   64POPC   C4B 1141  -0.595   6.479   6.395 -0.2022 -0.0758  0.3004
   65POPC   NC3 1142   4.142   6.555   8.456  0.2339 -0.0879  0.1633
   65POPC   PO4 1143   4.010   6.831   8.215  0.0900 -0.2535  0.2428
   65POPC   GL1 1144   3.823   6.839   7.828 -0.1221 -0.0676 -0.0851
   65POPC   GL2 1145   3.569   7.005   7.736 -0.1462  0.2272 -0.1930
   65POPC   C1A 1146   3.879   6.789   7.373  0.0293 -0.0242  0.3045
   65POPC   D2A 1147   3.911   7.055   7.060  0.3430  0.3883 -0.0968
   65POPC   C3A 1148   4.325   7.142   7.107  0.0032 -0.3129  0.0367
   65POPC   C4A 1149   4.652   7.380   7.004 -0.1567 -0.0261 -0.3872
   65POPC   C1B 1150   3.457   7.160   7.368  0.3716 -0.2748 -0.1647
   65POPC   C2B 1151   3.605   7.432   7.081 -0.1680 -0.0045 -0.1033
   65POPC   C3B 1152   3.925   7.532   6.758 -0.1179 -0.0076  0.2777
   65POPC   C4B 1153   4.376   7.413   6.590 -0.1066 -0.1523  0.0827
   66POPC   NC3 1154   1.778   0.204   9.449 -0.1652  0.0815  0.1093
   66POPC   PO4 1155   1.373   0.479   9.469  0.0570  0.1748 -0.1506
   66POPC   GL1 1156   0.997   0.617   9.274  0.3638  0.1070 -0.1461
   66POPC   GL2 1157   1.274   0.785   9.056 -0.2971 -0.2693  0.1231
   66POPC   C1A 1158   0.816   0.994   9.044  0.0846  0.1045 -0.0319
   66POPC   D2A 1159   0.542   1.189   8.693 -0.2881  0.0933 -0.0160
   66POPC   C3A 1160   0.326   0.819   8.561 -0.4213  0.1483  0.0145
   66POPC   C4A 1161   0.462   0.418   8.509 -0.2363  0.0799  0.2334
   66POPC   C1B 1162   1.287   1.202   9.084  0.0341 -0.1924 -0.1359
   66POPC   C2B 1163   1.479   1.615   8.891  0.1343 -0.0729 -0.1097
   66POPC   C3B 1164   1.706   2.001   8.829  0.1566  0.0998 -0.1223
   66POPC   C4B 1165   1.768   2.292   8.632  0.2094  0.4254  0.0821
   67POPC   NC3 1166   5.538   8.110   8.329  0.0243 -0.0626  0.0072
   67POPC   PO4 1167   5.280   8.166   8.068 -0.2003 -0.1035 -0.1830
   67POPC   GL1 1168   5.593   7.986   7.713  0.1534  0.0604  0.4509
   67POPC   GL2 1169   5.416   7.885   7.603  0.0783 -0.0227  0.2253
   67POPC   C1A 1170   5.872   8.259   7.409  0.2603  0.2515  0.0469
   67POPC   D2A 1171   5.952   8.246   6.997 -0.0704 -0.2079  0.1451
   67POPC   C3A 1172   6.181   8.002   6.723  0.2620  0.2099  0.1374
   67POPC   C4A 1173   6.535   7.623   6.603 -0.0364  0.0709 -0.0252
   67POPC   C1B 1174   5.339   7.931   7.157 -0.2063 -0.0181 -0.1047
   67POPC   C2B 1175   5.431   7.818   6.666  0.2521 -0.2587  0.0292
   67POPC   C3B 1176   5.272   7.841   6.280 -0.1194 -0.0009 -0.4065
   67POPC   C4B 1177   5.035   8.044   5.983 -0.1946 -0.2432 -0.4261
   68POPC   NC3 1178   4.089   1.391   8.472  0.0641  0.2567  0.0778
   68POPC   PO4 1179   4.179   0.948   8.361 -0.0703 -0.0004  0.0562
   68POPC   GL1 1180   4.100   1.193   7.989 -0.3926  0.0765 -0.3954
   68POPC   GL2 1181   3.816   1.515   8.076 -0.3857 -0.3754 -0.1281
   68POPC   C1A 1182   4.190   1.165   7.628  0.0329 -0.2789 -0.1207
   68POPC   D2A 1183   3.982   1.289   7.287 -0.2298  0.0226  0.2935
   68POPC   C3A 1184   4.000   1.362   6.881  0.3391  0.1414 -0.1507
   68POPC   C4A 1185   4.409   1.285   6.658 -0.0683  0.2518  0.1484
   68POPC   C1B 1186   3.554   1.724   7.848  0.1582  0.1365  0.0479
   68POPC   C2B 1187   3.266   1.759   7.525  0.1977  0.0295  0.0530
   68POPC   C3B 1188   2.984   1.764   7.217 -0.2978  0.0277 -0.1668
   68POPC   C4B 1189   2.753   1.480   6.981 -0.1343 -0.1270 -0.0635
   69POPC   NC3 1190   8.045   1.302   8.348 -0.3157  0.1034  0.0592
   69POPC   PO4 1191   8.413   1.585   8.394 -0.2829 -0.0464 -0.1895
   69POPC   GL1 1192   8.732   1.543   8.079 -0.1003  0.2341  0.1030
   69POPC   GL2 1193   9.018   1.757   8.075 -0.0706 -0.0030 -0.2318
   69POPC   C1A 1194   8.945   1.320   7.832  0.0966  0.4037 -0.0801
   69POPC   D2A 1195   9.111   1.068   7.535 -0.0899 -0.1626  0.0334
   69POPC   C3A 1196   9.106   1.419   7.324 -0.3646  0.1665 -0.1046
   69POPC   C4A 1197   8.842   1.787   7.147  0.3999 -0.1191  0.0786
   69POPC   C1B 1198   8.826   1.847   7.670 -0.0059 -0.1763 -0.3321
   69POPC   C2B 1199   8.893   2.257   7.400  0.1447 -0.2240 -0.2646
   69POPC   C3B 1200   9.160   2.529   7.334  0.0759 -0.0058  0.0804
   69POPC   C4B 1201   9.431   2.780   7.476 -0.3402 -0.2033 -0.0516
   70POPC   NC3 1202   6.304   0.687   8.183  0.0783 -0.0374  0.0424
   70POPC   PO4 1203   6.725   0.498   8.326  0.3641 -0.3701  0.0308
   70POPC   GL1 1204   6.690   0.536   7.906 -0.3087  0.1843 -0.1497
   70POPC   GL2 1205   6.508   0.238   7.777 -0.0776 -0.1440  0.4436
   70POPC   C1A 1206   6.457   0.790   7.536 -0.2199 -0.3354  0.1930
   70POPC   D2A 1207   6.572   1.082   7.186 -0.0761 -0.0399  0.0043
   70POPC   C3A 1208   6.570   1.481   7.151 -0.3097 -0.1873 -0.0674
   70POPC   C4A 1209   6.903   1.751   6.934 -0.2594 -0.3617  0.0314
   70POPC   C1B 1210   6.632   0.258   7.422 -0.0972  0.1399  0.2046
   70POPC   C2B 1211   6.848   0.182   7.038  0.5704  0.1532  0.2058
   70POPC   C3B 1212   7.238   0.121   6.768  0.0507 -0.0224 -0.1987
   70POPC   C4B 1213   7.365  -0.254   6.541  0.0098  0.0808  0.0707
   71POPC   NC3 1214   1.083   7.784   8.347  0.3795  0.1236  0.1650
   71POPC   PO4 1215   1.270   7.462   8.118 -0.2837  0.0358  0.0682
   71POPC   GL1 1216   0.995   7.755   7.831 -0.1213 -0.1157  0.0356
   71POPC   GL2 1217   0.900   7.644   7.650 -0.1873  0.0968 -0.2442
   71POPC   C1A 1218   1.159   8.126   7.773  0.2372 -0.0633 -0.3705
   71POPC   D2A 1219   1.177   8.604   7.763  0.2433  0.2281 -0.1964
   71POPC   C3A 1220   0.883   8.787   7.507  0.4211 -0.0094  0.1413
   71POPC   C4A 1221   0.658   8.890   7.139  0.2991  0.1748 -0.5291
   71POPC   C1B 1222   0.779   7.847   7.257 -0.0145  0.1424  0.2427
   71POPC   C2B 1223   0.677   7.968   6.872 -0.1022 -0.0787  0.1951
   71POPC   C3B 1224   0.722   8.420   6.637 -0.3138  0.3864 -0.1071
   71POPC   C4B 1225   1.069   8.569   6.347  0.0089  0.0910  0.2445
   72POPC   NC3 1226   0.161   3.336   8.500  0.4957  0.0222  0.0846
   72POPC   PO4 1227  -0.056   3.375   8.208  0.2992 -0.3067  0.0477
   72POPC   GL1 1228  -0.091   3.740   7.762 -0.0664  0.0050 -0.1441
   72POPC   GL2 1229  -0.435   3.778   7.575  0.0389  0.1812  0.0785
   72POPC   C1A 1230  -0.027   3.798   7.325 -0.1136  0.4839  0.0350
   72POPC   D2A 1231  -0.071   3.584   6.889  0.1402 -0.1105 -0.3816
   72POPC   C3A 1232   0.201   3.285   6.652 -0.0156  0.1124  0.2914
   72POPC   C4A 1233   0.430   3.076   6.364  0.1369  0.0370 -0.0673
   72POPC   C1B 1234  -0.356   3.419   7.291 -0.1198  0.3259  0.0359
   72POPC   C2B 1235  -0.049   3.036   7.099 -0.1432  0.2691  0.0047
   72POPC   C3B 1236   0.262   2.725   7.133 -0.1979 -0.1649  0.1057
   72POPC   C4B 1237   0.470   2.404   7.198  0.0948  0.2995 -0.4581
   73POPC   NC3 1238   8.288   4.886   7.651  0.0847 -0.2168 -0.1429
   73POPC   PO4 1239   8.134   5.262   7.910 -0.0727  0.2662 -0.0534
   73POPC   GL1 1240   8.070   5.258   7.411  0.0671 -0.1117 -0.1573
   73POPC   GL2 1241   7.852   4.945   7.276  0.0971  0.0460 -0.0408
   73POPC   C1A 1242   8.325   5.496   7.146  0.0557 -0.4327  0.0843
   73POPC   D2A 1243   8.670   5.630   6.893  0.1040 -0.0729  0.1459
   73POPC   C3A 1244   9.023   5.489   6.705  0.3933  0.0930 -0.2167
   73POPC   C4A 1245   9.219   5.246   6.410  0.3121  0.2093  0.0590
   73POPC   C1B 1246   7.717   4.521   7.217 -0.1677  0.2962 -0.1253
   73POPC   C2B 1247   7.880   4.342   6.819  0.0496  0.0134  0.0339
   73POPC   C3B 1248   8.072   4.337   6.455  0.0151  0.0890 -0.1228
   73POPC   C4B 1249   8.220   4.093   6.007  0.0149  0.2471  0.1068
   74POPC   NC3 1250   8.932   6.296   8.183 -0.4060 -0.1174 -0.0389
   74POPC   PO4 1251   9.002   6.748   8.037  0.0339  0.1051 -0.0791
   74POPC   GL1 1252   9.032   6.714   7.613 -0.0295 -0.0199  0.0412
   74POPC   GL2 1253   8.998   6.380   7.449 -0.3825 -0.0974 -0.2974
   74POPC   C1A 1254   9.003   6.937   7.188 -0.1654 -0.3334 -0.2609
   74POPC   D2A 1255   9.015   7.322   7.007  0.2378 -0.1080  0.1052
   74POPC   C3A 1256   9.086   7.435   6.563  0.0221 -0.3563  0.0585
   74POPC   C4A 1257   9.047   7.600   6.145  0.2680  0.0426  0.1052
   74POPC   C1B 1258   8.984   6.452   6.951 -0.1607  0.0658  0.1294
   74POPC   C2B 1259   8.813   6.123   6.670  0.1663 -0.2593  0.0863
   74POPC   C3B 1260   8.794   6.040   6.255 -0.1239 -0.2357 -0.1174
   74POPC   C4B 1261   9.140   6.216   5.926  0.0247 -0.2041  0.0448
   75POPC   NC3 1262   1.204   8.712   8.486  0.1694 -0.0992 -0.1719
   75POPC   PO4 1263   1.458   8.356   8.610 -0.1110  0.1768 -0.0092
   75POPC   GL1 1264   1.547   8.557   8.161 -0.0928 -0.2258 -0.2034
   75POPC   GL2 1265   1.569   8.219   8.107 -0.0383 -0.4603  0.0062
   75POPC   C1A 1266   1.582   8.801   7.831  0.0749 -0.0718 -0.0084
   75POPC   D2A 1267   1.414   8.921   7.459  0.1721  0.1754 -0.0200
   75POPC   C3A 1268   1.285   8.778   7.080  0.3394 -0.0070 -0.1616
   75POPC   C4A 1269   0.959   8.848   6.749 -0.3996 -0.0284  0.0095
   75POPC   C1B 1270   1.611   8.326   7.709  0.1853  0.0117  0.0715
   75POPC   C2B 1271   1.509   8.400   7.331  0.0832 -0.2021 -0.0929
   75POPC   C3B 1272   1.269   8.356   6.820 -0.1799  0.0004 -0.0975
   75POPC   C4B 1273   1.441   8.280   6.456 -0.0511  0.0295 -0.1469
   76POPC   NC3 1274   6.255   0.361   8.718  0.2271  0.1450  0.0472
   76POPC   PO4 1275   5.976   0.447   8.461 -0.0778 -0.1401  0.1973
   76POPC   GL1 1276   5.974   0.262   8.037 -0.1370  0.0695  0.1453
   76POPC   GL2 1277   5.709   0.108   7.850  0.7004  0.7017 -0.3083
   76POPC   C1A 1278   6.133   0.435   7.540 -0.1248  0.0213 -0.2274
   76POPC   D2A 1279   6.163   0.582   7.133 -0.2708 -0.0889 -0.4260
   76POPC   C3A 1280   6.522   0.593   6.911  0.0585  0.0063  0.0329
   76POPC   C4A 1281   6.913   0.696   6.686 -0.0116 -0.4136 -0.0101
   76POPC   C1B 1282   5.950  -0.072   7.542 -0.1476 -0.0738  0.1677
   76POPC   C2B 1283   6.217   0.073   7.223 -0.2454  0.0577 -0.2052
   76POPC   C3B 1284   6.329   0.079   6.679  0.1985  0.1545  0.0092
   76POPC   C4B 1285   6.162   0.268   6.294 -0.0572 -0.0406 -0.1599
   77POPC   NC3 1286   9.126   0.569   8.887 -0.0404  0.0503 -0.1482
   77POPC   PO4 1287   9.409   0.115   8.875 -0.0816 -0.0769 -0.0658
   77POPC   GL1 1288   9.337   0.324   8.485  0.2025  0.0228  0.3517
   77POPC   GL2 1289   9.069   0.258   8.301  0.1284  0.0765 -0.0228
   77POPC   C1A 1290   9.353   0.438   7.975  0.0556 -0.2114 -0.0375
   77POPC   D2A 1291   9.657   0.364   7.734  0.0009 -0.2118 -0.3448
   77POPC   C3A 1292   9.930   0.677   7.617  0.2907 -0.0017  0.3790
   77POPC   C4A 1293  10.347   0.879   7.482  0.0025  0.0029  0.0807
   77POPC   C1B 1294   8.823   0.158   7.913 -0.0883  0.1586 -0.0099
   77POPC   C2B 1295   8.644   0.061   7.528 -0.2769  0.1214  0.0684
   77POPC   C3B 1296   8.780   0.233   7.102  0.2071  0.2475  0.0127
   77POPC   C4B 1297   9.049   0.089   6.721  0.2036 -0.1037 -0.1834
   78POPC   NC3 1298   5.612   9.056   8.551  0.1433 -0.2052  0.3806
   78POPC   PO4 1299   5.241   9.401   8.341  0.5810  0.0255 -0.1088
   78POPC   GL1 1300   5.216   9.635   7.928 -0.0644 -0.0819 -0.0911
   78POPC   GL2 1301   4.989   9.569   7.819 -0.0576 -0.1168  0.1749
   78POPC   C1A 1302   5.358   9.765   7.483 -0.1039  0.0917  0.0116
   78POPC   D2A 1303   5.609   9.558   7.145  0.0670  0.0891 -0.3150
   78POPC   C3A 1304   5.332   9.580   6.792  0.0634  0.3940  0.0179
   78POPC   C4A 1305   5.246   9.382   6.434 -0.2050 -0.1122  0.2931
   78POPC   C1B 1306   5.029   9.386   7.405  0.4731 -0.3323 -0.0235
   78POPC   C2B 1307   4.954   9.282   6.975 -0.1598  0.3587  0.0240
   78POPC   C3B 1308   4.905   9.012   6.554  0.2002  0.1940  0.1463
   78POPC   C4B 1309   4.964   8.970   6.095  0.0264 -0.1528 -0.0383
   79POPC   NC3 1310   9.261   9.416   8.619  0.0466 -0.2439  0.0719
   79POPC   PO4 1311   9.575   9.091   8.571  0.0235  0.2576 -0.0315
   79POPC   GL1 1312   9.483   9.266   8.182  0.2774  0.0996 -0.1794
   79POPC   GL2 1313   9.419   9.596   8.130 -0.3963 -0.0993 -0.1112
   79POPC   C1A 1314   9.750   9.223   7.786 -0.0863 -0.3410  0.5138
   79POPC   D2A 1315   9.690   8.933   7.433  0.0501 -0.2698  0.2223
   79POPC   C3A 1316   9.777   8.870   7.003  0.0479  0.2312 -0.1395
   79POPC   C4A 1317   9.993   8.824   6.681 -0.0884 -0.0263  0.1317
   79POPC   C1B 1318   9.372   9.663   7.725 -0.0297  0.2568  0.1996
   79POPC   C2B 1319   9.165   9.873   7.469  0.2826 -0.0819  0.0119
   79POPC   C3B 1320   9.108   9.540   7.136 -0.0478  0.1919  0.1104
   79POPC   C4B 1321   9.393   9.170   7.076 -0.1451 -0.1372 -0.0546
   80POPC   NC3 1322   2.866   6.648   7.975  0.0791  0.1229 -0.2326
   80POPC   PO4 1323   2.864   7.118   8.020  0.1786 -0.1770  0.1766
   80POPC   GL1 1324   3.021   6.972   7.675 -0.1726  0.1406 -0.1234
   80POPC   GL2 1325   2.910   7.155   7.433  0.1788  0.2735 -0.2613
   80POPC   C1A 1326   3.025   6.647   7.321 -0.3068 -0.0033  0.0285
   80POPC   D2A 1327   2.766   6.269   7.203  0.0653 -0.2093  0.1645
   80POPC   C3A 1328   2.766   6.110   6.790 -0.1804 -0.0016  0.2818
   80POPC   C4A 1329   2.857   6.230   6.332 -0.0893  0.2454  0.2108
   80POPC   C1B 1330   3.046   7.060   7.005  0.0283  0.2082  0.0873
   80POPC   C2B 1331   3.280   7.343   6.723  0.1238 -0.1988 -0.0961
   80POPC   C3B 1332   3.484   7.365   6.314  0.0481  0.3935  0.4890
   80POPC   C4B 1333   3.710   7.701   6.126  0.1390  0.0232  0.0583
   81POPC   NC3 1334   8.287   2.103   8.503 -0.2171 -0.2561  0.3899
   81POPC   PO4 1335   8.026   1.845   8.212  0.2603  0.2882 -0.4663
   81POPC   GL1 1336   8.196   1.693   7.877 -0.0995  0.0536 -0.0686
   81POPC   GL2 1337   8.015   1.855   7.628  0.0725 -0.3504 -0.1820
   81POPC   C1A 1338   8.478   1.493   7.614 -0.3021  0.1917  0.3129
   81POPC   D2A 1339   8.619   1.124   7.552  0.4048  0.0844 -0.2917
   81POPC   C3A 1340   8.664   1.109   7.150  0.3464  0.1127  0.0212
   81POPC   C4A 1341   8.918   1.182   6.769 -0.0120  0.1669  0.1194
   81POPC   C1B 1342   7.603   1.642   7.599  0.0158  0.1345 -0.0694
   81POPC   C2B 1343   7.296   1.756   7.261 -0.0052  0.1769  0.1699
   81POPC   C3B 1344   7.299   1.579   6.820 -0.3384  0.2839 -0.1961
   81POPC   C4B 1345   6.950   1.575   6.491 -0.0420  0.1093  0.4361
   82POPC   NC3 1346   1.395   6.025   8.245 -0.2750 -0.0612 -0.0544
   82POPC   PO4 1347   1.775   5.942   8.024 -0.1899  0.0871  0.3272
   82POPC   GL1 1348   1.800   5.912   7.534 -0.1794  0.3083 -0.0312
   82POPC   GL2 1349   1.977   6.171   7.635  0.2663 -0.1295 -0.0678
   82POPC   C1A 1350   1.979   6.038   7.138  0.0338 -0.5580 -0.0135
   82POPC   D2A 1351   1.889   5.961   6.708  0.2019 -0.2448 -0.0529
   82POPC   C3A 1352   1.572   6.002   6.434 -0.1328 -0.1957 -0.0089
   82POPC   C4A 1353   1.466   5.650   6.207  0.3800 -0.1574  0.4786
   82POPC   C1B 1354   1.895   6.497   7.297 -0.0324  0.0716  0.1637
   82POPC   C2B 1355   1.621   6.918   7.152 -0.1273  0.2872 -0.3566
   82POPC   C3B 1356   1.323   7.328   7.142 -0.1383 -0.0957 -0.1688
   82POPC   C4B 1357   0.989   7.423   6.802  0.1826 -0.2363 -0.2359
   83POPC   NC3 1358   3.137   5.406   8.086 -0.1386 -0.0176  0.0402
   83POPC   PO4 1359   3.537   5.456   8.039 -0.0195 -0.2508 -0.1769
   83POPC   GL1 1360   3.271   5.546   7.638  0.1334 -0.0607 -0.0585
   83POPC   GL2 1361   3.142   5.262   7.518  0.0199  0.1628  0.0433
   83POPC   C1A 1362   3.364   5.643   7.296  0.1235 -0.0792 -0.2460
   83POPC   D2A 1363   3.430   5.608   6.858 -0.0200 -0.2217 -0.3393
   83POPC   C3A 1364   3.227   5.982   6.653  0.1143 -0.0212  0.4561
   83POPC   C4A 1365   3.358   6.379   6.307 -0.1291 -0.0872  0.3028
   83POPC   C1B 1366   2.881   5.316   7.258 -0.3415 -0.3302 -0.1267
   83POPC   C2B 1367   2.534   5.385   7.187  0.2544 -0.2235 -0.2438
   83POPC   C3B 1368   2.072   5.550   7.275  0.0275 -0.3145  0.0369
   83POPC   C4B 1369   1.824   5.503   6.843 -0.1399  0.0320 -0.1696
   84POPC   NC3 1370   8.870   5.908   7.856  0.3133 -0.3734 -0.1874
   84POPC   PO4 1371   9.023   5.452   7.891 -0.2076 -0.0493 -0.1021
   84POPC   GL1 1372   9.272   5.532   7.598 -0.0537  0.4463  0.1551
   84POPC   GL2 1373   9.510   5.300   7.549  0.3054 -0.1443 -0.2403
   84POPC   C1A 1374   9.318   5.520   7.160  0.1068  0.1323 -0.1735
   84POPC   D2A 1375   9.286   5.862   6.914  0.2544  0.0498 -0.2563
   84POPC   C3A 1376   9.648   5.874   6.707  0.2962 -0.0292  0.1866
   84POPC   C4A 1377   9.765   5.808   6.259 -0.2964 -0.1806 -0.0315
   84POPC   C1B 1378   9.716   5.171   7.287 -0.0696 -0.0579  0.0583
   84POPC   C2B 1379   9.712   5.318   6.978 -0.3150 -0.3657  0.2336
   84POPC   C3B 1380   9.868   5.410   6.577  0.1349  0.1127  0.1762
   84POPC   C4B 1381  10.145   5.339   6.208  0.1781 -0.0060 -0.0598
   85POPC   NC3 1382   2.375   8.200   8.662  0.1002 -0.0562  0.1447
   85POPC   PO4 1383   2.572   7.940   8.437  0.0323 -0.1487  0.4396
   85POPC   GL1 1384   2.729   8.196   8.068  0.2879  0.2176  0.4237
   85POPC   GL2 1385   2.465   8.140   7.935 -0.0734  0.1654  0.2626
   85POPC   C1A 1386   3.013   8.270   7.716 -0.1359  0.2894  0.1761
   85POPC   D2A 1387   3.192   8.571   7.390 -0.3345  0.2691  0.0409
   85POPC   C3A 1388   3.000   8.581   6.959 -0.1214 -0.2584  0.0968
   85POPC   C4A 1389   2.550   8.707   6.703  0.3465  0.0951 -0.2493
   85POPC   C1B 1390   2.374   8.197   7.493  0.4820  0.1338  0.0998
   85POPC   C2B 1391   2.240   8.257   7.062  0.0766  0.0024  0.0903
   85POPC   C3B 1392   2.467   8.226   6.683  0.1206  0.1516 -0.0003
   85POPC   C4B 1393   2.505   7.943   6.260 -0.1530 -0.0158  0.0402
   86POPC   NC3 1394   0.318   5.771   8.578 -0.1355  0.0232  0.1786
   86POPC   PO4 1395   0.148   5.671   8.085  0.1934 -0.0871  0.0077
   86POPC   GL1 1396   0.075   5.722   7.648 -0.2442  0.2844  0.1187
   86POPC   GL2 1397   0.290   5.525   7.560  0.0792 -0.0038 -0.3770
   86POPC   C1A 1398   0.038   5.747   7.231  0.1145 -0.0924  0.0713
   86POPC   D2A 1399   0.388   5.704   6.945 -0.0678 -0.1564  0.0167
   86POPC   C3A 1400   0.512   5.927   6.661  0.0246 -0.2397 -0.1682
   86POPC   C4A 1401   0.655   6.327   6.421  0.1720  0.0897 -0.2487
   86POPC   C1B 1402   0.563   5.575   7.374  0.1137  0.2937 -0.0783
   86POPC   C2B 1403   0.846   5.599   7.407  0.3445  0.2491 -0.0175
   86POPC   C3B 1404   1.284   5.621   7.482 -0.0889 -0.0300  0.0938
   86POPC   C4B 1405   1.593   5.437   7.439  0.3824  0.0587  0.1683
   87POPC   NC3 1406   8.562   7.590   8.491 -0.3428 -0.0089  0.3938
   87POPC   PO4 1407   8.497   7.747   8.121  0.1391 -0.1340  0.1228
   87POPC   GL1 1408   8.751   8.077   7.904 -0.2024  0.3200 -0.2300
   87POPC   GL2 1409   8.990   8.216   7.973 -0.2244  0.0768  0.1442
   87POPC   C1A 1410   8.643   8.428   7.673  0.1107 -0.0884  0.2851
   87POPC   D2A 1411   8.417   8.684   7.293 -0.3173 -0.3109  0.0886
   87POPC   C3A 1412   8.374   8.990   6.913  0.5310  0.0066 -0.2070
   87POPC   C4A 1413   8.591   9.072   6.560  0.2852  0.0493 -0.0464
   87POPC   C1B 1414   9.306   8.377   7.583 -0.0877  0.1075 -0.0076
   87POPC   C2B 1415   9.349   8.635   7.239 -0.0524  0.1840 -0.0896
   87POPC   C3B 1416   9.281   8.713   6.883  0.1353  0.2245 -0.0577
   87POPC   C4B 1417   9.039   8.708   6.534 -0.3327 -0.2006  0.1825
   88POPC   NC3 1418   0.250   8.202   8.288 -0.2325 -0.3638  0.2367
   88POPC   PO4 1419   0.183   8.686   8.437 -0.2285 -0.1313  0.3341
   88POPC   GL1 1420   0.454   8.937   8.150  0.1638  0.3387  0.3212
   88POPC   GL2 1421   0.345   9.271   8.239  0.1312  0.1828  0.1845
   88POPC   C1A 1422   0.451   9.115   7.609 -0.0449 -0.0977 -0.2977
   88POPC   D2A 1423   0.495   9.378   7.356  0.3781  0.0018  0.0005
   88POPC   C3A 1424   0.788   9.615   7.160  0.3214  0.1543  0.1288
   88POPC   C4A 1425   0.794  10.000   6.910  0.0641 -0.1845 -0.1554
   88POPC   C1B 1426   0.254   9.610   7.981  0.1547 -0.2184  0.0637
   88POPC   C2B 1427   0.145   9.668   7.557 -0.0073  0.0762 -0.1102
   88POPC   C3B 1428  -0.094   9.613   7.185  0.2267  0.0093 -0.1076
   88POPC   C4B 1429  -0.243   9.581   6.716 -0.3209  0.0807  0.5097
   89POPC   NC3 1430   8.651   2.399   8.328  0.1220  0.1299  0.1055
   89POPC   PO4 1431   8.571   2.524   7.872  0.1390  0.1429 -0.0447
   89POPC   GL1 1432   8.409   2.227   7.605  0.2413 -0.1180 -0.0645
   89POPC   GL2 1433   8.037   2.425   7.568 -0.0932  0.0110 -0.0823
   89POPC   C1A 1434   8.422   2.177   7.178  0.3195  0.1379 -0.0982
   89POPC   D2A 1435   8.529   2.063   6.787  0.0350 -0.1043 -0.0228
   89POPC   C3A 1436   8.964   2.092   6.705 -0.0822 -0.0722  0.1024
   89POPC   C4A 1437   9.203   2.068   6.385  0.2124 -0.0704  0.0118
   89POPC   C1B 1438   8.011   2.380   7.152  0.2955  0.3089 -0.2659
   89POPC   C2B 1439   8.039   2.164   6.804  0.1905 -0.2949 -0.1787
   89POPC   C3B 1440   8.179   2.104   6.317 -0.2670  0.0754 -0.1311
   89POPC   C4B 1441   8.008   1.736   6.006  0.3101 -0.2557 -0.1069
   90POPC   NC3 1442   4.634   9.656   8.157 -0.0233  0.0760 -0.0966
   90POPC   PO4 1443   4.223   9.711   8.401  0.0445  0.2857 -0.1638
   90POPC   GL1 1444   4.262   9.693   7.861  0.2797 -0.0371 -0.0255
   90POPC   GL2 1445   4.495   9.598   7.680  0.1720  0.0822 -0.3439
   90POPC   C1A 1446   3.959   9.609   7.544 -0.0305 -0.0517 -0.0871
   90POPC   D2A 1447   3.618   9.318   7.256  0.0888 -0.5362  0.0079
   90POPC   C3A 1448   3.638   9.349   6.887  0.1143 -0.1193 -0.1314
   90POPC   C4A 1449   3.738   9.140   6.490  0.2289 -0.1055 -0.0444
   90POPC   C1B 1450   4.582   9.668   7.262  0.3946  0.0866 -0.1916
   90POPC   C2B 1451   4.531   9.571   6.883 -0.0058  0.1053  0.0030
   90POPC   C3B 1452   4.602   9.572   6.391  0.0841  0.2755 -0.0327
   90POPC   C4B 1453   4.781   9.414   6.108  0.1091 -0.0504 -0.1068
   91POPC   NC3 1454   1.717   1.609   9.775 -0.1814 -0.2348 -0.2174
   91POPC   PO4 1455   1.272   1.758   9.590  0.0134 -0.3707  0.0876
   91POPC   GL1 1456   1.058   1.792   9.218  0.4823 -0.1562 -0.2185
   91POPC   GL2 1457   0.920   2.133   9.081  0.1844  0.2903 -0.0171
   91POPC   C1A 1458   0.967   1.493   8.844  0.0732 -0.2334 -0.1571
   91POPC   D2A 1459   1.084   1.179   8.604  0.2218 -0.0446 -0.2273
   91POPC   C3A 1460   1.507   0.999   8.611  0.3909 -0.1274  0.0283
   91POPC   C4A 1461   1.754   0.641   8.534 -0.1281 -0.0425  0.2588
   91POPC   C1B 1462   1.116   1.972   8.678  0.2229 -0.2531  0.1408
   91POPC   C2B 1463   1.123   2.013   8.244 -0.3421  0.1488  0.1479
   91POPC   C3B 1464   1.049   1.656   7.929 -0.3016 -0.1976  0.0088
   91POPC   C4B 1465   0.841   1.355   7.604 -0.1466 -0.0305 -0.2275
   92POPC   NC3 1466   5.690   9.364   8.175 -0.2420  0.3686  0.0190
   92POPC   PO4 1467   5.830   9.034   8.055  0.3087  0.1295 -0.1955
   92POPC   GL1 1468   5.953   8.947   7.652 -0.0172  0.0990  0.2302
   92POPC   GL2 1469   6.143   9.158   7.479 -0.3373  0.0427 -0.1094
   92POPC   C1A 1470   5.768   8.748   7.261 -0.1290 -0.2402  0.0360
   92POPC   D2A 1471   5.735   8.710   6.902 -0.2728  0.0380 -0.0381
   92POPC   C3A 1472   5.928   8.694   6.491  0.1831 -0.0345  0.1312
   92POPC   C4A 1473   5.870   8.660   6.042 -0.2428 -0.0709 -0.0273
   92POPC   C1B 1474   5.897   9.213   7.138  0.2669  0.1029 -0.0870
   92POPC   C2B 1475   5.988   9.441   6.876 -0.0769  0.0938  0.3172
   92POPC   C3B 1476   5.814   9.708   6.590  0.2734 -0.0084 -0.0881
   92POPC   C4B 1477   5.594   9.770   6.234  0.1131  0.3567 -0.1182
   93POPC   NC3 1478   4.965   5.394   7.974 -0.0739 -0.2922 -0.0088
   93POPC   PO4 1479   4.680   5.699   8.039  0.3414  0.0846 -0.0703
   93POPC   GL1 1480   4.568   5.607   7.660  0.1529 -0.2099  0.0461
   93POPC   GL2 1481   4.708   5.323   7.519  0.1639 -0.0536  0.2177
   93POPC   C1A 1482   4.205   5.889   7.363  0.0658  0.1212 -0.0116
   93POPC   D2A 1483   4.187   5.962   7.020 -0.2436 -0.2691  0.2274
   93POPC   C3A 1484   4.197   6.200   6.682 -0.0539  0.0947  0.2459
   93POPC   C4A 1485   4.111   6.043   6.210 -0.2082 -0.1300  0.1692
   93POPC   C1B 1486   4.475   5.486   7.200  0.0349  0.1149 -0.0802
   93POPC   C2B 1487   4.484   5.581   6.790 -0.0281 -0.0593 -0.1089
   93POPC   C3B 1488   4.775   5.182   6.684 -0.2808 -0.1356 -0.1807
   93POPC   C4B 1489   5.043   5.218   6.341  0.2507  0.0546  0.1224
   94POPC   NC3 1490   8.166   6.007   8.248  0.0244 -0.0524 -0.1359
   94POPC   PO4 1491   8.479   6.160   8.051 -0.0343  0.1459  0.1105
   94POPC   GL1 1492   8.500   6.281   7.611  0.0519 -0.1298  0.2625
   94POPC   GL2 1493   8.465   5.985   7.462 -0.0174 -0.0263 -0.0136
   94POPC   C1A 1494   8.526   6.630   7.344 -0.0661  0.1454 -0.0144
   94POPC   D2A 1495   8.190   6.871   7.195  0.0124 -0.0405  0.1216
   94POPC   C3A 1496   8.101   7.232   6.981 -0.1009 -0.5039  0.1066
   94POPC   C4A 1497   8.182   7.620   6.668 -0.2011  0.0300 -0.4050
   94POPC   C1B 1498   8.416   6.187   7.020 -0.3340 -0.0071  0.0477
   94POPC   C2B 1499   8.493   6.680   6.818 -0.0314  0.0221  0.3180
   94POPC   C3B 1500   8.773   6.780   6.407 -0.1491  0.3186  0.0835
   94POPC   C4B 1501   8.832   6.547   5.983 -0.2181  0.0897  0.0281
   95POPC   NC3 1502   2.624   0.775   9.855  0.0795 -0.0206  0.3186
   95POPC   PO4 1503   2.226   1.019   9.548 -0.3508  0.0714 -0.1507
   95POPC   GL1 1504   2.240   1.020   9.008 -0.0918  0.4809 -0.2632
   95POPC   GL2 1505   2.113   0.727   8.895  0.0499  0.0032 -0.0929
   95POPC   C1A 1506   1.889   1.183   8.844 -0.2997  0.1512 -0.0212
   95POPC   D2A 1507   1.818   1.491   8.514  0.1371 -0.3621  0.0964
   95POPC   C3A 1508   1.936   1.551   8.124 -0.1148 -0.0828 -0.0834
   95POPC   C4A 1509   1.929   1.411   7.650 -0.0336 -0.0339  0.4664
   95POPC   C1B 1510   2.098   0.404   8.705  0.0163  0.2234  0.0414
   95POPC   C2B 1511   2.118  -0.077   8.710 -0.0594  0.0318 -0.1730
   95POPC   C3B 1512   1.872  -0.197   8.432  0.1292  0.2272 -0.1616
   95POPC   C4B 1513   1.733  -0.416   8.004 -0.0240 -0.3186 -0.2568
   96POPC   NC3 1514   9.147   3.533   8.023 -0.0633 -0.1121  0.1762
   96POPC   PO4 1515   8.704   3.591   7.790 -0.0503 -0.0441  0.2038
   96POPC   GL1 1516   8.841   3.500   7.350  0.0603  0.0424  0.3314
   96POPC   GL2 1517   8.667   3.280   7.295 -0.0627  0.0719  0.5442
   96POPC   C1A 1518   9.071   3.475   6.944  0.1847  0.0359 -0.4739
   96POPC   D2A 1519   9.273   3.668   6.552  0.2274 -0.0333  0.0809
   96POPC   C3A 1520   9.716   3.639   6.375 -0.2055  0.0252  0.0537
   96POPC   C4A 1521  10.049   3.708   6.181  0.1889  0.3091  0.1001
   96POPC   C1B 1522   8.595   3.079   6.914 -0.1481 -0.1668 -0.0091
   96POPC   C2B 1523   8.635   2.927   6.429 -0.2372  0.1279  0.1253
   96POPC   C3B 1524   8.940   2.805   6.073  0.3232 -0.1745  0.1490
   96POPC   C4B 1525   9.100   2.976   5.668  0.2482 -0.2790  0.1463
   97POPC   NC3 1526   0.990   4.783   7.927 -0.2859  0.1904 -0.2434
   97POPC   PO4 1527   1.462   4.887   7.965  0.4132  0.2074 -0.2968
   97POPC   GL1 1528   1.449   4.802   7.561 -0.2366 -0.0867 -0.0881
   97POPC   GL2 1529   1.207   4.486   7.613 -0.1627  0.0819 -0.1075
   97POPC   C1A 1530   1.399   4.599   7.146 -0.4426 -0.1796  0.3961
   97POPC   D2A 1531   1.168   4.290   6.933 -0.0745  0.2462  0.2145
   97POPC   C3A 1532   1.375   4.212   6.566 -0.0363 -0.2427  0.3213
   97POPC   C4A 1533   1.644   3.871   6.444 -0.3973  0.0278  0.1696
   97POPC   C1B 1534   0.861   4.620   7.260 -0.1332  0.0714 -0.0548
   97POPC   C2B 1535   0.975   4.782   6.882  0.0446 -0.0080  0.0050
   97POPC   C3B 1536   1.031   4.878   6.442  0.0362 -0.0454  0.1720
   97POPC   C4B 1537   1.400   4.696   6.176 -0.1703  0.0663  0.0432
   98POPC   NC3 1538   0.390   9.101   8.704 -0.1918 -0.1195 -0.4810
   98POPC   PO4 1539   0.558   9.460   8.991 -0.0409 -0.1030  0.1633
   98POPC   GL1 1540   0.511   9.616   8.597  0.0991  0.2004 -0.1852
   98POPC   GL2 1541   0.071   9.627   8.481  0.0483  0.2329  0.1182
   98POPC   C1A 1542   0.661   9.756   8.179  0.0543 -0.0986 -0.0918
   98POPC   D2A 1543   0.717   9.429   7.866 -0.1355 -0.1960 -0.0281
   98POPC   C3A 1544   0.952   9.265   7.527  0.2252  0.1152  0.2978
   98POPC   C4A 1545   1.411   9.372   7.606  0.0983 -0.1776 -0.2765
   98POPC   C1B 1546   0.042   9.998   8.231 -0.0503 -0.1247  0.0830
   98POPC   C2B 1547   0.064  10.421   8.163  0.1289 -0.2974  0.1819
   98POPC   C3B 1548   0.015  10.802   8.175 -0.0793 -0.1546  0.1337
   98POPC   C4B 1549   0.190  11.055   7.826  0.4569  0.0912 -0.1176
   99POPC   NC3 1550   6.077   2.494   8.057  0.3274 -0.1890 -0.2241
   99POPC   PO4 1551   5.636   2.493   8.081 -0.1779  0.1198 -0.0084
   99POPC   GL1 1552   5.241   2.455   7.877 -0.0304 -0.2505  0.3332
   99POPC   GL2 1553   5.373   2.719   7.570  0.1249  0.1318 -0.1292
   99POPC   C1A 1554   5.062   2.176   7.445 -0.0967 -0.1987  0.1646
   99POPC   D2A 1555   4.730   1.875   7.195  0.0582 -0.0711  0.0706
   99POPC   C3A 1556   4.921   1.550   6.973 -0.1970 -0.2553  0.0132
   99POPC   C4A 1557   4.925   1.254   6.579 -0.0772 -0.1292 -0.0367
   99POPC   C1B 1558   5.435   2.481   7.176 -0.0167  0.0336 -0.0941
   99POPC   C2B 1559   5.384   2.330   6.836 -0.2472 -0.1535  0.0182
   99POPC   C3B 1560   5.575   2.253   6.393 -0.1410  0.1147 -0.5036
   99POPC   C4B 1561   5.586   1.882   6.139  0.1115 -0.0110 -0.2564
  100POPC   NC3 1562   0.011   7.157   7.999  0.1275  0.1539  0.3090
  100POPC   PO4 1563  -0.134   6.826   7.927  0.1001 -0.0537 -0.1406
  100POPC   GL1 1564  -0.207   6.866   7.460 -0.1998 -0.1466 -0.1014
  100POPC   GL2 1565  -0.339   6.657   7.250 -0.2447  0.1708 -0.0367
  100POPC   C1A 1566  -0.278   7.178   7.217 -0.0490  0.3543  0.1200
  100POPC   D2A 1567  -0.103   7.462   7.049  0.0486 -0.0282  0.2895
  100POPC   C3A 1568  -0.434   7.813   7.017  0.0794  0.2889  0.0856
  100POPC   C4A 1569  -0.520   8.235   6.953  0.3449 -0.1275  0.0747
  100POPC   C1B 1570  -0.192   6.815   6.802 -0.2645  0.0472  0.1411
  100POPC   C2B 1571  -0.533   6.986   6.555 -0.0405  0.1852 -0.0011
  100POPC   C3B 1572  -0.568   7.014   6.157 -0.1639 -0.0358 -0.1635
  100POPC   C4B 1573  -0.426   6.668   5.808 -0.2756 -0.1340  0.0140
  101POPC   NC3 1574   6.438   5.397   7.995 -0.0069 -0.2988 -0.1022
  101POPC   PO4 1575   6.153   5.130   8.218 -0.2136  0.2565  0.0784
  101POPC   GL1 1576   6.260   4.959   7.829  0.0327 -0.1398 -0.1349
  101POPC   GL2 1577   6.062   5.089   7.556 -0.0991 -0.0564  0.1362
  101POPC   C1A 1578   6.520   4.817   7.508 -0.0912 -0.1037  0.2801
  101POPC   D2A 1579   6.529   4.459   7.200  0.1765 -0.0526 -0.1993
  101POPC   C3A 1580   6.872   4.492   6.824 -0.0285  0.5335 -0.1312
  101POPC   C4A 1581   7.167   4.382   6.491  0.1555 -0.3478  0.1833
  101POPC   C1B 1582   5.778   5.050   7.246 -0.1408 -0.0478 -0.0235
  101POPC   C2B 1583   5.583   4.757   6.912 -0.3579 -0.1701  0.0249
  101POPC   C3B 1584   5.780   4.336   6.603 -0.1221  0.2103  0.0469
  101POPC   C4B 1585   5.794   3.871   6.579  0.1851 -0.0567  0.2504
  102POPC   NC3 1586   4.969   7.446   8.194 -0.0276 -0.1087 -0.2667
  102POPC   PO4 1587   5.386   7.151   8.138  0.1160 -0.1835 -0.1637
  102POPC   GL1 1588   5.479   6.986   7.696  0.3646  0.0114 -0.1482
  102POPC   GL2 1589   5.142   6.885   7.603  0.0702 -0.0851  0.3591
  102POPC   C1A 1590   5.515   6.902   7.262 -0.0813  0.0214  0.4197
  102POPC   D2A 1591   5.841   6.815   6.955  0.1945  0.2123  0.3058
  102POPC   C3A 1592   6.021   6.409   6.993 -0.1065  0.0726  0.1594
  102POPC   C4A 1593   6.165   6.025   6.891  0.1466 -0.0084  0.3186
  102POPC   C1B 1594   5.201   6.532   7.373  0.2257 -0.0294  0.0186
  102POPC   C2B 1595   5.417   6.379   6.986  0.1648 -0.0337  0.0954
  102POPC   C3B 1596   5.697   6.245   6.650 -0.2573  0.2151 -0.0188
  102POPC   C4B 1597   5.653   5.980   6.254  0.1463 -0.1083 -0.2393
  103POPC   NC3 1598   7.709   0.690   8.595  0.0727  0.1363  0.2481
  103POPC   PO4 1599   8.054   0.811   8.326 -0.0519  0.0134 -0.0276
  103POPC   GL1 1600   8.014   0.629   7.896 -0.4359 -0.0140 -0.2430
  103POPC   GL2 1601   8.357   0.519   7.718 -0.1103  0.2010  0.1675
  103POPC   C1A 1602   7.912   0.580   7.432 -0.1819  0.1192 -0.2878
  103POPC   D2A 1603   8.104   0.687   7.071  0.0278  0.1164 -0.0539
  103POPC   C3A 1604   8.085   0.602   6.600 -0.1686  0.4228  0.3624
  103POPC   C4A 1605   7.839   0.855   6.420  0.0565  0.2099  0.1818
  103POPC   C1B 1606   8.530   0.613   7.327 -0.1039  0.0899  0.0551
  103POPC   C2B 1607   8.550   0.642   6.841 -0.3041 -0.0799  0.1537
  103POPC   C3B 1608   8.952   0.586   6.649  0.2001  0.2184  0.0693
  103POPC   C4B 1609   9.359   0.855   6.659 -0.0263  0.0421 -0.1004
  104POPC   NC3 1610   1.111   6.996   8.223  0.0322  0.0349 -0.2793
  104POPC   PO4 1611   1.460   6.977   7.979  0.0923 -0.1238 -0.3743
  104POPC   GL1 1612   1.726   7.290   7.644 -0.0972 -0.3666 -0.0580
  104POPC   GL2 1613   2.059   7.285   7.723  0.0171 -0.0750  0.3445
  104POPC   C1A 1614   1.857   7.583   7.310 -0.1794  0.0110  0.0467
  104POPC   D2A 1615   2.196   7.796   7.169 -0.2462  0.2268  0.0882
  104POPC   C3A 1616   1.981   7.879   6.756  0.2386 -0.2299 -0.3034
  104POPC   C4A 1617   2.004   8.033   6.311  0.0628 -0.0976 -0.0702
  104POPC   C1B 1618   2.093   6.996   7.363 -0.1507  0.1079 -0.2381
  104POPC   C2B 1619   2.119   6.843   6.900 -0.1300  0.5808  0.2065
  104POPC   C3B 1620   2.093   6.939   6.461 -0.0468  0.2048  0.0507
  104POPC   C4B 1621   2.209   6.932   6.086  0.2590  0.0673  0.0759
  105POPC   NC3 1622   4.570   8.284   7.910 -0.1266  0.0941 -0.1546
  105POPC   PO4 1623   4.380   8.039   8.156  0.1789 -0.2130  0.1059
  105POPC   GL1 1624   4.152   8.048   7.727 -0.0582 -0.1828 -0.0820
  105POPC   GL2 1625   4.324   7.887   7.544 -0.2470  0.2681 -0.6381
  105POPC   C1A 1626   4.083   8.305   7.287 -0.3305  0.0461 -0.0049
  105POPC   D2A 1627   4.284   8.341   6.912 -0.1580  0.1502 -0.0983
  105POPC   C3A 1628   4.413   8.063   6.603 -0.2998 -0.1726  0.0133
  105POPC   C4A 1629   4.128   7.810   6.381 -0.0187 -0.1817 -0.1690
  105POPC   C1B 1630   4.629   8.025   7.309 -0.0712 -0.0713 -0.0049
  105POPC   C2B 1631   4.831   8.162   6.990 -0.1112  0.0853  0.2816
  105POPC   C3B 1632   4.933   8.150   6.545 -0.0566  0.0569  0.1470
  105POPC   C4B 1633   5.186   8.369   6.301 -0.2703  0.2156 -0.1261
  106POPC   NC3 1634   5.671   6.731   8.100  0.1214 -0.1326 -0.2224
  106POPC   PO4 1635   5.520   6.311   8.187 -0.0612  0.1759  0.4343
  106POPC   GL1 1636   5.510   6.387   7.695  0.2775 -0.1898  0.1986
  106POPC   GL2 1637   5.797   6.611   7.581 -0.1555  0.1993  0.0568
  106POPC   C1A 1638   5.451   6.048   7.414  0.1610  0.1792  0.0500
  106POPC   D2A 1639   5.738   6.060   7.188  0.0729  0.2690  0.1775
  106POPC   C3A 1640   6.147   6.109   7.392 -0.0725 -0.0990  0.1993
  106POPC   C4A 1641   6.556   6.337   7.208  0.4698  0.0184 -0.3291
  106POPC   C1B 1642   6.221   6.682   7.389  0.1701 -0.1121 -0.0438
  106POPC   C2B 1643   6.358   6.946   7.087  0.1567 -0.2488 -0.1339
  106POPC   C3B 1644   6.172   7.232   6.784  0.0533  0.0578  0.0771
  106POPC   C4B 1645   5.887   7.102   6.502 -0.2377 -0.2800  0.3678
  107POPC   NC3 1646   5.799   0.922   8.308  0.1163  0.3218 -0.0669
  107POPC   PO4 1647   6.128   1.164   8.330  0.3093 -0.1117 -0.1829
  107POPC   GL1 1648   5.952   0.886   7.805 -0.0981  0.0152 -0.2381
  107POPC   GL2 1649   5.808   0.680   7.863  0.0564 -0.1096 -0.3618
  107POPC   C1A 1650   5.989   1.026   7.392  0.1603 -0.2756 -0.3183
  107POPC   D2A 1651   6.142   1.186   6.952  0.0448 -0.0087 -0.4540
  107POPC   C3A 1652   6.507   1.086   6.697 -0.0429  0.5732  0.0006
  107POPC   C4A 1653   6.903   1.162   6.841 -0.5736 -0.0047  0.1797
  107POPC   C1B 1654   5.676   0.535   7.515 -0.1699 -0.1025 -0.1270
  107POPC   C2B 1655   5.760   0.286   7.092 -0.0777  0.2154 -0.0396
  107POPC   C3B 1656   5.501   0.378   6.717  0.0182 -0.0900 -0.0351
  107POPC   C4B 1657   5.440   0.494   6.304  0.1682 -0.2471 -0.0987
  108POPC   NC3 1658   0.368   2.664   9.497 -0.0389 -0.1399  0.0230
  108POPC   PO4 1659   0.467   2.225   9.329 -0.2394 -0.0211 -0.0458
  108POPC   GL1 1660   0.461   1.893   9.028 -0.3515 -0.1610  0.1787
  108POPC   GL2 1661   0.603   1.619   9.101 -0.1762  0.0983 -0.0927
  108POPC   C1A 1662   0.634   1.787   8.627  0.1776 -0.1530 -0.3397
  108POPC   D2A 1663   0.793   1.588   8.332 -0.1294  0.2492  0.0329
  108POPC   C3A 1664   0.543   1.293   8.185 -0.0782 -0.0805 -0.1376
  108POPC   C4A 1665   0.486   0.962   7.958 -0.1788  0.1630  0.0999
  108POPC   C1B 1666   0.207   1.568   8.722  0.1133 -0.2265  0.1544
  108POPC   C2B 1667   0.157   1.585   8.356 -0.1530 -0.0136 -0.0202
  108POPC   C3B 1668   0.337   1.801   8.118  0.3225  0.2221  0.1106
  108POPC   C4B 1669   0.609   1.734   7.848 -0.0138  0.2516 -0.4017
  109POPC   NC3 1670   7.042   1.167   8.775 -0.1897 -0.1692  0.2156
  109POPC   PO4 1671   7.449   1.166   8.544  0.2069 -0.1219 -0.0876
  109POPC   GL1 1672   7.531   1.085   8.160 -0.0665  0.1606  0.0176
  109POPC   GL2 1673   7.539   0.842   8.122  0.2599  0.3070  0.1666
  109POPC   C1A 1674   7.959   1.244   7.757  0.1039  0.0389  0.5242
  109POPC   D2A 1675   8.180   1.099   7.359 -0.0638  0.0893 -0.0641
  109POPC   C3A 1676   8.037   1.199   6.903  0.0774  0.0417 -0.0299
  109POPC   C4A 1677   8.442   1.082   6.601  0.0413  0.3201 -0.0973
  109POPC   C1B 1678   7.642   0.893   7.721  0.1022  0.0782  0.0730
  109POPC   C2B 1679   7.538   0.799   7.248  0.0043 -0.0449  0.1830
  109POPC   C3B 1680   7.609   0.621   6.872 -0.4181 -0.1785  0.0017
  109POPC   C4B 1681   7.704   0.291   6.523  0.2215 -0.3461 -0.0899
  110POPC   NC3 1682   0.710   5.223   8.500  0.2796  0.0890  0.5279
  110POPC   PO4 1683   1.096   5.214   8.163  0.1060 -0.0851 -0.1264
  110POPC   GL1 1684   1.097   5.212   7.714 -0.0972  0.1632  0.2101
  110POPC   GL2 1685   0.808   5.067   7.514  0.0378  0.1651 -0.1525
  110POPC   C1A 1686   1.253   5.090   7.249 -0.0160  0.0236  0.1939
  110POPC   D2A 1687   1.188   5.228   6.790  0.1949 -0.0505 -0.0579
  110POPC   C3A 1688   1.403   5.602   6.681  0.2014 -0.0079 -0.1964
  110POPC   C4A 1689   1.486   5.832   7.095 -0.0220 -0.0758  0.5699
  110POPC   C1B 1690   0.726   5.147   7.088  0.0159  0.0672 -0.2955
  110POPC   C2B 1691   0.569   5.158   6.688 -0.2522  0.2786 -0.1266
  110POPC   C3B 1692   0.523   4.810   6.422 -0.0456 -0.1156  0.1679
  110POPC   C4B 1693   0.279   4.587   6.155 -0.0760 -0.4198 -0.0028
  111POPC   NC3 1694   1.810   7.296   8.174  0.1782 -0.3919 -0.2715
  111POPC   PO4 1695   1.931   7.817   8.054 -0.3041 -0.4825  0.0309
  111POPC   GL1 1696   1.588   7.794   7.829 -0.2361 -0.0139 -0.1163
  111POPC   GL2 1697   1.890   8.011   7.568  0.1157  0.0971 -0.0233
  111POPC   C1A 1698   1.349   7.716   7.483 -0.0816 -0.1294  0.2194
  111POPC   D2A 1699   1.264   7.924   7.150 -0.1035  0.3871 -0.2480
  111POPC   C3A 1700   1.382   7.769   6.785 -0.3184  0.2665  0.0148
  111POPC   C4A 1701   1.602   7.736   6.375 -0.0758 -0.2208 -0.1296
  111POPC   C1B 1702   1.786   8.043   7.200 -0.1542  0.2812  0.0411
  111POPC   C2B 1703   1.800   8.303   6.856  0.1000 -0.1695 -0.0755
  111POPC   C3B 1704   1.999   8.568   6.530  0.1371  0.0015  0.1319
  111POPC   C4B 1705   1.811   8.630   6.122 -0.2662  0.0093 -0.3352
  112POPC   NC3 1706   9.431   2.973   8.603 -0.2301 -0.3943 -0.0284
  112POPC   PO4 1707   9.147   3.080   8.288 -0.0869 -0.4315  0.0726
  112POPC   GL1 1708   9.385   3.118   7.851  0.1369  0.4632  0.0806
  112POPC   GL2 1709   9.143   3.204   7.629 -0.1489 -0.0698 -0.0452
  112POPC   C1A 1710   9.708   3.195   7.631  0.0119  0.1335  0.1467
  112POPC   D2A 1711  10.157   3.295   7.436 -0.1257  0.1588 -0.0564
  112POPC   C3A 1712  10.322   3.273   7.005 -0.1802 -0.1778 -0.5387
  112POPC   C4A 1713  10.350   3.468   6.592 -0.0155 -0.0024 -0.0904
  112POPC   C1B 1714   9.138   2.976   7.174  0.0008  0.0973  0.1470
  112POPC   C2B 1715   9.242   3.102   6.765  0.2446 -0.1165 -0.0938
  112POPC   C3B 1716   9.184   3.114   6.329 -0.3101 -0.3002 -0.2419
  112POPC   C4B 1717   9.236   3.408   6.010 -0.2980  0.2338 -0.3790
  113POPC   NC3 1718   6.508   3.364   8.040 -0.2316  0.2129 -0.3208
  113POPC   PO4 1719   6.078   3.116   8.097 -0.0308  0.0240 -0.1343
  113POPC   GL1 1720   6.174   3.256   7.706 -0.2065 -0.2552  0.0930
  113POPC   GL2 1721   6.423   3.383   7.475  0.0773 -0.0401 -0.2785
  113POPC   C1A 1722   6.136   3.076   7.257  0.0431 -0.0472 -0.1839
  113POPC   D2A 1723   6.122   2.901   6.799  0.2013  0.5147 -0.0685
  113POPC   C3A 1724   6.004   3.110   6.416  0.0280 -0.0820 -0.2087
  113POPC   C4A 1725   5.653   3.305   6.195  0.0550 -0.1077  0.1979
  113POPC   C1B 1726   6.587   2.949   7.348 -0.1051  0.0578  0.0346
  113POPC   C2B 1727   6.478   2.671   7.023 -0.2106 -0.0601 -0.1586
  113POPC   C3B 1728   6.458   2.622   6.564 -0.0091 -0.1691  0.0614
  113POPC   C4B 1729   6.281   2.760   6.188  0.4758  0.2167  0.2913
  114POPC   NC3 1730   4.247   4.088   8.838  0.0754  0.0607  0.2878
  114POPC   PO4 1731   4.255   4.368   8.530  0.1325  0.1690 -0.0303
  114POPC   GL1 1732   4.424   4.268   8.118  0.0842 -0.0553  0.0278
  114POPC   GL2 1733   4.512   3.896   8.020 -0.0851 -0.1296  0.2511
  114POPC   C1A 1734   4.691   4.213   7.692  0.1306 -0.0651  0.2850
  114POPC   D2A 1735   4.478   4.248   7.230  0.0548 -0.0649 -0.0136
  114POPC   C3A 1736   4.488   3.983   6.895 -0.1756  0.0855 -0.0336
  114POPC   C4A 1737   4.354   3.842   6.493 -0.1811 -0.1467  0.0009
  114POPC   C1B 1738   4.621   3.517   7.762  0.1350  0.1991  0.0445
  114POPC   C2B 1739   4.931   3.361   7.599  0.2646  0.2384  0.0255
  114POPC   C3B 1740   5.264   3.151   7.314 -0.0267 -0.2371 -0.0383
  114POPC   C4B 1741   5.662   3.054   7.089  0.3277 -0.0449  0.0345
  115POPC   NC3 1742   7.305   1.878   8.326  0.0070  0.1246  0.1057
  115POPC   PO4 1743   7.134   1.488   8.391  0.2731  0.0727  0.2254
  115POPC   GL1 1744   6.964   1.658   7.924 -0.2786  0.1642 -0.0635
  115POPC   GL2 1745   7.206   1.886   7.808 -0.4293  0.1817  0.2608
  115POPC   C1A 1746   6.788   1.435   7.613  0.0719  0.1040  0.0211
  115POPC   D2A 1747   7.059   1.280   7.276 -0.1092  0.1834  0.1276
  115POPC   C3A 1748   7.066   0.838   7.182  0.1451  0.1309 -0.1222
  115POPC   C4A 1749   7.169   0.521   7.072  0.1560 -0.3261 -0.0148
  115POPC   C1B 1750   6.915   1.969   7.509 -0.0240 -0.0620  0.2342
  115POPC   C2B 1751   6.704   2.253   7.243  0.3052  0.1521 -0.1341
  115POPC   C3B 1752   6.896   2.338   6.743  0.2927  0.0066 -0.2955
  115POPC   C4B 1753   7.112   2.092   6.417  0.0390 -0.1236 -0.2405
  116POPC   NC3 1754   2.907   1.869   8.959  0.0394 -0.1371  0.1354
  116POPC   PO4 1755   2.635   2.212   8.828  0.3489 -0.0239  0.5417
  116POPC   GL1 1756   2.307   1.950   8.725 -0.0950  0.1587 -0.1699
  116POPC   GL2 1757   2.183   1.711   8.875 -0.0532 -0.0110 -0.0638
  116POPC   C1A 1758   2.232   1.855   8.324  0.2222  0.4127 -0.0179
  116POPC   D2A 1759   2.392   1.878   7.951 -0.1086 -0.1097  0.3216
  116POPC   C3A 1760   2.472   1.518   7.659  0.2467  0.0339 -0.0138
  116POPC   C4A 1761   2.413   1.199   7.407  0.3329 -0.0529 -0.0944
  116POPC   C1B 1762   2.314   1.317   8.545 -0.2788 -0.1308 -0.0567
  116POPC   C2B 1763   2.522   1.370   8.153  0.0951  0.1988 -0.1501
  116POPC   C3B 1764   2.547   1.039   7.870  0.1149  0.5538  0.0836
  116POPC   C4B 1765   2.119   0.887   7.690 -0.0611  0.1437  0.2787
  117POPC   NC3 1766   0.156   5.202   7.950  0.0627 -0.1114 -0.2218
  117POPC   PO4 1767   0.514   4.898   8.061 -0.0775 -0.0723 -0.0984
  117POPC   GL1 1768   0.494   4.719   7.678 -0.0030  0.1566  0.3702
  117POPC   GL2 1769   0.347   4.929   7.510  0.0398  0.3354 -0.1446
  117POPC   C1A 1770   0.458   4.357   7.411  0.0480  0.1291  0.2772
  117POPC   D2A 1771   0.716   4.195   7.039  0.1817 -0.0626  0.1156
  117POPC   C3A 1772   0.865   3.691   7.059  0.0250 -0.0596  0.1851
  117POPC   C4A 1773   1.151   3.273   6.964 -0.1019  0.1828 -0.0045
  117POPC   C1B 1774   0.401   4.776   7.171  0.0819  0.0298  0.1832
  117POPC   C2B 1775   0.351   4.524   6.790 -0.1634 -0.2438  0.1890
  117POPC   C3B 1776   0.725   4.356   6.452  0.1096  0.0419  0.1856
  117POPC   C4B 1777   1.100   4.319   6.107 -0.1543 -0.0915  0.0413
  118POPC   NC3 1778   8.079   3.787   8.070 -0.2012 -0.0949 -0.1398
  118POPC   PO4 1779   7.914   4.158   8.259 -0.2360 -0.1961  0.0299
  118POPC   GL1 1780   7.589   3.932   7.873  0.0327 -0.0094  0.2739
  118POPC   GL2 1781   7.796   3.620   7.656 -0.0323 -0.2066 -0.3122
  118POPC   C1A 1782   7.616   4.038   7.473 -0.0075  0.0509  0.0717
  118POPC   D2A 1783   7.412   4.115   7.103  0.1368  0.0395  0.2139
  118POPC   C3A 1784   7.467   4.113   6.705  0.1055  0.0068 -0.1340
  118POPC   C4A 1785   7.648   3.938   6.332 -0.0487  0.0629  0.0311
  118POPC   C1B 1786   7.795   3.441   7.210  0.0295  0.2295 -0.4200
  118POPC   C2B 1787   8.017   3.242   6.901 -0.3486  0.1458  0.0371
  118POPC   C3B 1788   8.193   3.112   6.474  0.0929  0.1450 -0.2143
  118POPC   C4B 1789   8.232   2.946   6.109 -0.0302  0.0710  0.2756
  119POPC   NC3 1790   6.394   7.995   8.355 -0.1475 -0.1391 -0.0477
  119POPC   PO4 1791   6.048   7.596   8.291  0.1587  0.1191 -0.0378
  119POPC   GL1 1792   6.125   7.629   7.804  0.0170 -0.1138  0.0674
  119POPC   GL2 1793   5.866   7.552   7.603 -0.0535  0.0768 -0.0285
  119POPC   C1A 1794   6.300   7.906   7.502  0.0352  0.1735 -0.1188
  119POPC   D2A 1795   6.545   8.178   7.379 -0.0536 -0.1569  0.0271
  119POPC   C3A 1796   6.575   8.263   6.941  0.0944 -0.1200 -0.0328
  119POPC   C4A 1797   6.328   8.385   6.471 -0.2005 -0.3206  0.2461
  119POPC   C1B 1798   5.836   7.797   7.241 -0.1222 -0.1674 -0.0555
  119POPC   C2B 1799   5.906   7.634   6.830  0.0873 -0.5050  0.0276
  119POPC   C3B 1800   5.930   7.675   6.406 -0.0811  0.0517 -0.1483
  119POPC   C4B 1801   5.819   7.687   5.936  0.1906  0.0488 -0.0537
  120POPC   NC3 1802   8.434   4.394   8.261 -0.1948 -0.0988 -0.0060
  120POPC   PO4 1803   8.495   4.032   8.006  0.1287 -0.0143  0.1857
  120POPC   GL1 1804   8.492   4.006   7.532  0.2540 -0.3509 -0.1523
  120POPC   GL2 1805   8.713   4.041   7.230 -0.2058  0.1219 -0.4219
  120POPC   C1A 1806   8.076   3.990   7.316  0.2342 -0.1829 -0.1781
  120POPC   D2A 1807   7.865   3.879   7.028  0.1019 -0.2859 -0.1520
  120POPC   C3A 1808   7.974   3.691   6.699 -0.0047  0.2047  0.1300
  120POPC   C4A 1809   7.712   3.367   6.535 -0.0458  0.1041 -0.4070
  120POPC   C1B 1810   8.796   4.285   6.814 -0.0777  0.0289 -0.0370
  120POPC   C2B 1811   8.511   4.558   6.547  0.0698  0.0376 -0.0198
  120POPC   C3B 1812   8.273   4.925   6.333 -0.1834 -0.1994 -0.1848
  120POPC   C4B 1813   8.218   5.343   6.078 -0.1567 -0.1277 -0.1017
  121POPC   NC3 1814   8.029   9.162   8.371 -0.3671 -0.0099  0.2774
  121POPC   PO4 1815   8.320   9.272   8.505  0.1314  0.2416  0.0730
  121POPC   GL1 1816   8.472   9.190   8.103 -0.1041  0.0462 -0.1620
  121POPC   GL2 1817   8.649   9.400   7.908  0.2319  0.2430 -0.2446
  121POPC   C1A 1818   8.550   8.952   7.697 -0.1098 -0.2636 -0.1824
  121POPC   D2A 1819   8.952   8.822   7.467  0.1137 -0.0866  0.1948
  121POPC   C3A 1820   8.893   8.956   7.080  0.0503  0.0033 -0.0335
  121POPC   C4A 1821   9.051   9.146   6.732 -0.0179 -0.2799  0.0894
  121POPC   C1B 1822   8.213   9.367   7.679 -0.0370 -0.0683 -0.1112
  121POPC   C2B 1823   8.215   9.174   7.343 -0.3444  0.0003 -0.1073
  121POPC   C3B 1824   8.225   9.472   7.041  0.3092  0.1745  0.0001
  121POPC   C4B 1825   8.369   9.889   6.806 -0.3826 -0.3091 -0.2304
  122POPC   NC3 1826   3.151   7.861   8.225 -0.0144 -0.2293 -0.2855
  122POPC   PO4 1827   3.641   7.726   8.257  0.0128 -0.0530 -0.1324
  122POPC   GL1 1828   3.611   7.953   7.886 -0.1781  0.1217 -0.2990
  122POPC   GL2 1829   3.311   7.893   7.746 -0.1299  0.3047 -0.1558
  122POPC   C1A 1830   3.582   8.354   7.678  0.3219 -0.2036 -0.2164
  122POPC   D2A 1831   3.763   8.715   7.396  0.0442 -0.0240 -0.0089
  122POPC   C3A 1832   3.470   8.874   7.154  0.1121  0.0855  0.1731
  122POPC   C4A 1833   3.336   8.959   6.673  0.0965  0.1838  0.2095
  122POPC   C1B 1834   3.213   7.985   7.337 -0.2581 -0.2521 -0.0026
  122POPC   C2B 1835   3.177   7.879   6.972 -0.0070  0.0607  0.0936
  122POPC   C3B 1836   3.413   7.815   6.614  0.2121 -0.1239 -0.1311
  122POPC   C4B 1837   3.249   7.941   6.215 -0.3521  0.2962 -0.0433
  123POPC   NC3 1838   4.193   0.409   8.676 -0.0444 -0.1690  0.1741
  123POPC   PO4 1839   4.575   0.814   8.699  0.0683 -0.1893  0.1402
  123POPC   GL1 1840   4.780   0.900   8.223  0.0446  0.2838  0.2195
  123POPC   GL2 1841   4.587   1.015   8.025 -0.3708 -0.1493 -0.0840
  123POPC   C1A 1842   5.190   0.874   8.024  0.0892  0.0529  0.2578
  123POPC   D2A 1843   5.380   0.908   7.622 -0.0130 -0.0616  0.0531
  123POPC   C3A 1844   5.248   0.750   7.411 -0.0328  0.2036 -0.2549
  123POPC   C4A 1845   5.255   0.501   7.066  0.0494 -0.2279  0.0853
  123POPC   C1B 1846   4.354   0.742   7.779 -0.1364  0.0430 -0.0594
  123POPC   C2B 1847   4.400   0.420   7.556  0.4128  0.3067 -0.0261
  123POPC   C3B 1848   4.174   0.234   7.117 -0.0188 -0.1284 -0.0797
  123POPC   C4B 1849   4.103   0.534   6.789 -0.2185  0.2815 -0.2842
  124POPC   NC3 1850   7.806   8.363   8.406 -0.1370 -0.2017 -0.2901
  124POPC   PO4 1851   7.701   8.649   8.635 -0.2399 -0.2220  0.2086
  124POPC   GL1 1852   7.425   8.652   8.188 -0.1644  0.1301  0.1703
  124POPC   GL2 1853   7.142   8.412   8.025 -0.0413  0.2517 -0.2224
  124POPC   C1A 1854   7.412   8.824   7.753 -0.0739  0.3415  0.1562
  124POPC   D2A 1855   7.634   9.162   7.464  0.3745 -0.2551  0.3627
  124POPC   C3A 1856   7.795   9.560   7.361  0.0322  0.4712 -0.1644
  124POPC   C4A 1857   7.495   9.923   7.229 -0.1448  0.1055  0.2169
  124POPC   C1B 1858   7.080   8.516   7.545 -0.0325  0.0948  0.4238
  124POPC   C2B 1859   7.080   8.342   7.192 -0.2093 -0.1478  0.1431
  124POPC   C3B 1860   6.941   8.527   6.817 -0.1001 -0.3226 -0.1661
  124POPC   C4B 1861   6.651   8.757   6.813 -0.2037  0.0385  0.3065
  125POPC   NC3 1862   8.052   0.335   8.500 -0.0236  0.0427 -0.0770
  125POPC   PO4 1863   7.960  -0.078   8.156 -0.0630  0.1649 -0.1904
  125POPC   GL1 1864   8.166   0.119   7.853  0.0037 -0.2417 -0.0504
  125POPC   GL2 1865   7.901   0.166   7.682  0.0765 -0.2958  0.4296
  125POPC   C1A 1866   8.216   0.206   7.342 -0.1082  0.4110  0.4217
  125POPC   D2A 1867   7.938   0.246   7.043 -0.0766  0.4213  0.3121
  125POPC   C3A 1868   7.802  -0.109   6.755 -0.2853 -0.0246  0.1007
  125POPC   C4A 1869   7.775  -0.167   6.290  0.3083 -0.0291 -0.0105
  125POPC   C1B 1870   7.516   0.378   7.719  0.1352  0.3331 -0.4348
  125POPC   C2B 1871   7.126   0.485   7.578  0.0650  0.0672 -0.0315
  125POPC   C3B 1872   7.021   0.883   7.687 -0.0601  0.0777  0.1055
  125POPC   C4B 1873   7.255   1.240   7.757  0.1549 -0.0298  0.2039
  126POPC   NC3 1874   4.710   6.062   8.312 -0.0775 -0.3164  0.0170
  126POPC   PO4 1875   4.252   6.132   8.049 -0.0858  0.0688 -0.0590
  126POPC   GL1 1876   4.398   6.182   7.740 -0.2905 -0.0251 -0.0632
  126POPC   GL2 1877   4.095   6.344   7.609 -0.1657  0.3233  0.3833
  126POPC   C1A 1878   4.686   6.098   7.304  0.4816  0.1476 -0.0397
  126POPC   D2A 1879   4.915   5.983   6.948  0.0411 -0.2687 -0.1475
  126POPC   C3A 1880   5.342   5.924   6.905 -0.2317 -0.3106 -0.0500
  126POPC   C4A 1881   5.687   5.648   6.694  0.0224 -0.0742  0.0419
  126POPC   C1B 1882   4.131   6.445   7.106 -0.0537 -0.3780 -0.0538
  126POPC   C2B 1883   4.545   6.606   6.897 -0.0066  0.1824  0.0463
  126POPC   C3B 1884   4.596   6.951   6.729  0.2471  0.3528 -0.0647
  126POPC   C4B 1885   4.957   6.921   6.426  0.1502  0.0582  0.1192
  127POPC   NC3 1886   4.836   0.453   8.486 -0.1810  0.0652 -0.2236
  127POPC   PO4 1887   5.065   0.170   8.305 -0.2001 -0.0116 -0.2935
  127POPC   GL1 1888   4.990   0.395   8.011 -0.0204 -0.0752 -0.2828
  127POPC   GL2 1889   5.213   0.449   7.790 -0.0474  0.3075  0.0489
  127POPC   C1A 1890   4.824   0.707   7.716  0.1960 -0.1068  0.2326
  127POPC   D2A 1891   4.780   0.799   7.367  0.0797  0.0455 -0.2260
  127POPC   C3A 1892   4.658   0.485   7.127  0.0905  0.0382 -0.1923
  127POPC   C4A 1893   4.645   0.288   6.743  0.3869 -0.1079 -0.0817
  127POPC   C1B 1894   4.862   0.241   7.538 -0.0915  0.1466 -0.0561
  127POPC   C2B 1895   4.997   0.132   7.047  0.0869  0.1621 -0.1806
  127POPC   C3B 1896   5.037   0.138   6.562 -0.2946  0.3810  0.0652
  127POPC   C4B 1897   5.071   0.147   6.162  0.0334 -0.1783 -0.1797
  128POPC   NC3 1898   7.188   3.778   8.588 -0.0988 -0.0930  0.2462
  128POPC   PO4 1899   6.851   3.718   8.213 -0.1808 -0.1469 -0.0687
  128POPC   GL1 1900   6.955   3.554   7.841 -0.3415 -0.0412 -0.0388
  128POPC   GL2 1901   7.227   3.429   7.752 -0.3414 -0.0970  0.0776
  128POPC   C1A 1902   6.880   3.356   7.379 -0.3829 -0.0899 -0.2636
  128POPC   D2A 1903   6.991   3.160   7.139 -0.1393 -0.0747  0.0655
  128POPC   C3A 1904   7.022   3.385   6.895 -0.1288  0.2577 -0.1829
  128POPC   C4A 1905   6.737   3.533   6.570 -0.1158  0.2001  0.1313
  128POPC   C1B 1906   7.377   3.614   7.373  0.0751 -0.1075 -0.0114
  128POPC   C2B 1907   7.423   3.613   6.906 -0.4281 -0.0350 -0.3010
  128POPC   C3B 1908   7.254   3.688   6.527  0.2179 -0.1093  0.2318
  128POPC   C4B 1909   7.120   3.957   6.267 -0.1387  0.1508  0.0601
  129POPC   NC3 1910   0.152   7.759   8.052  0.1748 -0.2328  0.0044
  129POPC   PO4 1911   0.400   7.581   7.864 -0.0724  0.0192  0.1886
  129POPC   GL1 1912   0.399   7.617   7.468  0.2100  0.0276  0.0277
  129POPC   GL2 1913   0.567   7.231   7.551  0.1289  0.1292 -0.1205
  129POPC   C1A 1914   0.491   7.534   6.990 -0.2899 -0.0928  0.3840
  129POPC   D2A 1915   0.384   7.533   6.597 -0.0426 -0.0760  0.0571
  129POPC   C3A 1916   0.638   7.709   6.370 -0.0846  0.0363 -0.1161
  129POPC   C4A 1917   1.003   7.997   6.489  0.0882 -0.4364 -0.0056
  129POPC   C1B 1918   0.844   7.153   7.242 -0.2834  0.0407  0.2259
  129POPC   C2B 1919   0.640   7.006   6.849 -0.3208 -0.0740  0.2018
  129POPC   C3B 1920   0.786   6.941   6.404  0.0181 -0.1233 -0.2976
  129POPC   C4B 1921   1.055   6.764   6.217 -0.1366  0.1356  0.2291
  130POPC   NC3 1922   2.143   6.315   8.111  0.0855 -0.0879 -0.1286
  130POPC   PO4 1923   2.370   6.479   7.812 -0.0526  0.0611  0.0929
  130POPC   GL1 1924   2.345   6.477   7.398 -0.1576  0.0556  0.2053
  130POPC   GL2 1925   2.537   6.760   7.238  0.0375 -0.0142 -0.1688
  130POPC   C1A 1926   2.308   6.352   6.948 -0.0108  0.0375  0.0151
  130POPC   D2A 1927   2.465   6.496   6.530 -0.1743  0.1865  0.2996
  130POPC   C3A 1928   2.356   6.439   6.043 -0.3168  0.0496 -0.1201
  130POPC   C4A 1929   1.981   6.532   5.876 -0.1997  0.0630  0.0360
  130POPC   C1B 1930   2.604   6.847   6.866 -0.1806  0.0091 -0.1235
  130POPC   C2B 1931   2.706   7.208   6.620  0.0397  0.0830 -0.0384
  130POPC   C3B 1932   2.995   7.519   6.384  0.0170  0.1860  0.1761
  130POPC   C4B 1933   3.038   7.571   5.983 -0.1661 -0.2063  0.1677
  131POPC   NC3 1934   3.205   8.349   8.989  0.3873 -0.2768  0.1843
  131POPC   PO4 1935   3.478   8.121   8.650 -0.2951  0.0085  0.1325
  131POPC   GL1 1936   3.322   8.314   8.182 -0.0273  0.1656 -0.0004
  131POPC   GL2 1937   3.513   8.645   8.095  0.2314  0.0879  0.2834
  131POPC   C1A 1938   2.971   8.625   8.071  0.0759 -0.0439  0.1689
  131POPC   D2A 1939   2.674   8.689   7.735  0.0531  0.1891 -0.0180
  131POPC   C3A 1940   2.607   8.602   7.309  0.4026  0.0866 -0.0775
  131POPC   C4A 1941   2.788   8.151   7.178 -0.1714 -0.1332  0.1824
  131POPC   C1B 1942   3.463   8.874   7.726  0.2545  0.3449 -0.0089
  131POPC   C2B 1943   3.185   9.120   7.423 -0.1086  0.2243  0.3052
  131POPC   C3B 1944   3.021   9.058   7.049 -0.0424  0.0893  0.2650
  131POPC   C4B 1945   2.905   9.109   6.509  0.0466 -0.3380  0.1949
  132POPC   NC3 1946   2.365   4.228   8.311  0.1653 -0.3332  0.2641
  132POPC   PO4 1947   2.344   3.928   8.131 -0.1981  0.0213  0.1883
  132POPC   GL1 1948   2.289   3.818   7.725 -0.0651 -0.1068 -0.2319
  132POPC   GL2 1949   2.024   4.174   7.619 -0.0376  0.1221  0.0099
  132POPC   C1A 1950   2.076   3.675   7.362  0.0406  0.0510  0.0351
  132POPC   D2A 1951   2.016   3.491   6.991 -0.0122  0.0710 -0.1753
  132POPC   C3A 1952   2.403   3.140   6.715  0.0885 -0.0843  0.1830
  132POPC   C4A 1953   2.577   3.027   6.306 -0.4698 -0.1297 -0.1803
  132POPC   C1B 1954   1.955   4.358   7.161 -0.0158  0.0392  0.1133
  132POPC   C2B 1955   1.722   4.451   6.731 -0.0724  0.0634  0.0339
  132POPC   C3B 1956   1.432   4.728   6.678  0.0911  0.2428 -0.3584
  132POPC   C4B 1957   1.522   5.152   6.437  0.0740  0.3464 -0.0941
  133POPC   NC3 1958   1.246   3.396   8.602  0.3434  0.2985  0.2280
  133POPC   PO4 1959   1.090   3.723   8.215 -0.0391 -0.2725  0.0677
  133POPC   GL1 1960   1.311   3.459   8.024  0.2320 -0.0504  0.0205
  133POPC   GL2 1961   1.589   3.509   8.135 -0.1228  0.1706 -0.0656
  133POPC   C1A 1962   1.381   3.283   7.679  0.2330 -0.5014 -0.0743
  133POPC   D2A 1963   1.503   3.015   7.330 -0.0909 -0.1423  0.3334
  133POPC   C3A 1964   1.200   2.742   6.999  0.0793 -0.5144  0.0860
  133POPC   C4A 1965   0.893   2.430   6.752  0.0410 -0.0437 -0.0070
  133POPC   C1B 1966   1.943   3.358   7.774  0.1104 -0.0206 -0.0047
  133POPC   C2B 1967   2.019   3.156   7.474  0.1150 -0.2233  0.1481
  133POPC   C3B 1968   2.303   2.904   7.331  0.0437 -0.0118 -0.3108
  133POPC   C4B 1969   2.096   2.476   7.185 -0.2023  0.1841 -0.1118
  134POPC   NC3 1970   5.001   3.854   8.169  0.0543 -0.1161 -0.1484
  134POPC   PO4 1971   5.507   3.859   8.146 -0.1639  0.1022 -0.1840
  134POPC   GL1 1972   5.748   3.857   7.792 -0.0227 -0.0314  0.2431
  134POPC   GL2 1973   5.613   4.062   7.614  0.1046 -0.2394 -0.0149
  134POPC   C1A 1974   6.129   3.793   7.532 -0.1157 -0.2379  0.2420
  134POPC   D2A 1975   6.556   3.856   7.407 -0.0501 -0.0635 -0.2359
  134POPC   C3A 1976   6.641   3.680   7.047  0.1847 -0.1231 -0.1155
  134POPC   C4A 1977   6.505   3.266   6.936  0.2152  0.1003  0.2652
  134POPC   C1B 1978   5.528   3.771   7.172  0.0360  0.0898 -0.0705
  134POPC   C2B 1979   5.416   3.947   6.897 -0.0288 -0.1852  0.0693
  134POPC   C3B 1980   5.211   4.205   6.541  0.0581 -0.2609  0.1549
  134POPC   C4B 1981   4.895   4.386   6.262  0.0353  0.0281  0.2821
  135POPC   NC3 1982   7.443   3.056   8.419 -0.0006  0.2804  0.0470
  135POPC   PO4 1983   7.295   2.727   8.102 -0.1726 -0.2354  0.3489
  135POPC   GL1 1984   7.437   2.912   7.840 -0.1508  0.1138  0.1577
  135POPC   GL2 1985   7.606   2.627   7.663  0.1234  0.1927 -0.0221
  135POPC   C1A 1986   7.401   3.088   7.358 -0.3733  0.0588 -0.0380
  135POPC   D2A 1987   7.529   3.113   6.928  0.0972 -0.0076 -0.0312
  135POPC   C3A 1988   7.749   2.804   6.723  0.1125  0.1333  0.2565
  135POPC   C4A 1989   7.855   2.546   6.408  0.1096  0.0179  0.2213
  135POPC   C1B 1990   7.631   2.197   7.450  0.1840  0.2114  0.0942
  135POPC   C2B 1991   7.755   1.896   7.172  0.1145 -0.0054  0.2371
  135POPC   C3B 1992   8.164   1.659   7.006 -0.2470  0.1771 -0.2214
  135POPC   C4B 1993   8.531   1.504   6.865 -0.1685  0.1771  0.0860
  136POPC   NC3 1994   2.926   9.502   9.212  0.1028  0.0816  0.0834
  136POPC   PO4 1995   2.526   9.668   9.308 -0.2275  0.1127  0.1760
  136POPC   GL1 1996   2.575   9.880   8.972 -0.2022  0.2411  0.1496
  136POPC   GL2 1997   2.555  10.205   8.844 -0.2983 -0.1422 -0.0226
  136POPC   C1A 1998   2.553   9.822   8.496 -0.0771  0.0225 -0.0459
  136POPC   D2A 1999   2.704   9.649   8.119  0.3194 -0.0500 -0.0353
  136POPC   C3A 2000   2.709   9.459   7.706  0.0636  0.4311  0.0042
  136POPC   C4A 2001   2.682   9.094   7.494  0.1994 -0.0696  0.2005
  136POPC   C1B 2002   2.847  10.228   8.404  0.0868  0.2328  0.3562
  136POPC   C2B 2003   2.704  10.228   7.919  0.0898  0.2098 -0.1076
  136POPC   C3B 2004   2.447  10.012   7.642 -0.0835  0.4044 -0.0991
  136POPC   C4B 2005   2.089  10.117   7.546  0.0905  0.0460  0.0870
  137POPC   NC3 2006   1.386   6.153   7.707  0.0116 -0.2470  0.1092
  137POPC   PO4 2007   1.284   6.542   7.800  0.0817 -0.3453  0.4283
  137POPC   GL1 2008   1.330   6.508   7.268  0.0957 -0.0396  0.2528
  137POPC   GL2 2009   1.193   6.268   7.207  0.1430  0.3490 -0.0612
  137POPC   C1A 2010   1.639   6.451   6.845  0.1829  0.1079  0.0828
  137POPC   D2A 2011   1.904   6.472   6.582 -0.0240  0.1284 -0.0245
  137POPC   C3A 2012   2.007   6.176   6.247  0.2886  0.1473  0.2051
  137POPC   C4A 2013   1.637   5.966   5.890 -0.1113  0.1742  0.1737
  137POPC   C1B 2014   1.132   6.356   6.755  0.0848 -0.0650 -0.0149
  137POPC   C2B 2015   1.222   6.370   6.433  0.0668  0.1171 -0.1746
  137POPC   C3B 2016   1.459   6.368   6.060 -0.1783  0.2139 -0.2408
  137POPC   C4B 2017   1.512   6.615   5.809  0.0830  0.1715 -0.2245
  138POPC   NC3 2018   2.053   9.057   9.556 -0.1852 -0.1073  0.0781
  138POPC   PO4 2019   1.605   9.153   9.379 -0.1996  0.0454  0.2123
  138POPC   GL1 2020   1.557   9.497   9.096  0.0716  0.2373  0.1346
  138POPC   GL2 2021   1.345   9.820   9.141 -0.2332 -0.0918 -0.0828
  138POPC   C1A 2022   1.636   9.769   8.785  0.0979 -0.3036  0.0351
  138POPC   D2A 2023   1.516   9.913   8.363  0.1847  0.1115  0.3189
  138POPC   C3A 2024   1.147  10.069   8.277 -0.1405  0.2720 -0.0516
  138POPC   C4A 2025   1.298  10.456   8.248  0.1949 -0.1045 -0.1754
  138POPC   C1B 2026   1.295  10.101   8.778  0.3834 -0.3163  0.1705
  138POPC   C2B 2027   0.918  10.322   8.683 -0.1899 -0.0564  0.2224
  138POPC   C3B 2028   0.781  10.511   8.348 -0.1498 -0.3402  0.4214
  138POPC   C4B 2029   0.965  10.836   8.057  0.0598  0.2180  0.0614
  139POPC   NC3 2030   8.672   8.165   8.371 -0.3184  0.0378  0.0183
  139POPC   PO4 2031   8.370   8.455   8.436  0.0088  0.0829  0.1828
  139POPC   GL1 2032   8.156   8.598   7.943 -0.0667 -0.3551  0.0166
  139POPC   GL2 2033   7.900   8.611   7.974 -0.2139 -0.2126  0.0493
  139POPC   C1A 2034   8.142   8.281   7.569  0.0689 -0.0290  0.1701
  139POPC   D2A 2035   8.061   8.051   7.242  0.1199  0.0868  0.3664
  139POPC   C3A 2036   7.845   7.688   7.071 -0.2036 -0.0805 -0.5006
  139POPC   C4A 2037   7.768   7.517   6.834 -0.2099  0.0289  0.0586
  139POPC   C1B 2038   7.968   8.753   7.429 -0.1143  0.0193 -0.1454
  139POPC   C2B 2039   7.991   8.516   7.024 -0.1748 -0.2931  0.0026
  139POPC   C3B 2040   7.684   8.190   6.855 -0.0180  0.1223  0.1595
  139POPC   C4B 2041   7.623   7.917   6.594 -0.0519 -0.1497  0.1084
  140POPC   NC3 2042   4.940   1.128   8.822 -0.1831  0.1542  0.1317
  140POPC   PO4 2043   5.179   0.830   8.662 -0.0261 -0.1410 -0.0355
  140POPC   GL1 2044   5.305   1.170   8.356 -0.0957  0.0004 -0.1111
  140POPC   GL2 2045   5.058   1.363   8.246  0.1430 -0.0777  0.0578
  140POPC   C1A 2046   5.347   1.330   7.877  0.1962 -0.1307 -0.2144
  140POPC   D2A 2047   5.632   1.331   7.562  0.1122  0.2323 -0.0822
  140POPC   C3A 2048   5.536   1.480   7.175  0.1637 -0.1212 -0.4186
  140POPC   C4A 2049   5.332   1.294   6.864  0.4696 -0.2100  0.0380
  140POPC   C1B 2050   4.921   1.204   7.727  0.1735 -0.0689  0.0805
  140POPC   C2B 2051   4.623   1.387   7.535 -0.0579 -0.2731 -0.2311
  140POPC   C3B 2052   4.457   1.192   7.238 -0.4518  0.0899 -0.0331
  140POPC   C4B 2053   4.236   0.847   7.206 -0.1750  0.0094  0.0268
  141POPC   NC3 2054   5.851   5.843   8.216  0.3204 -0.1401 -0.2062
  141POPC   PO4 2055   5.825   5.494   7.989 -0.1609  0.0391  0.1692
  141POPC   GL1 2056   5.758   5.497   7.623  0.2157 -0.2515  0.1214
  141POPC   GL2 2057   5.975   5.577   7.391 -0.2392 -0.0367 -0.0078
  141POPC   C1A 2058   5.542   5.555   7.287 -0.0558 -0.1149  0.1614
  141POPC   D2A 2059   5.474   5.267   6.881 -0.1062 -0.1474  0.0899
  141POPC   C3A 2060   5.777   5.161   6.610  0.2927  0.1858 -0.0906
  141POPC   C4A 2061   6.101   4.894   6.606  0.0942 -0.1571  0.0389
  141POPC   C1B 2062   5.989   5.473   6.997 -0.1885  0.3646 -0.2414
  141POPC   C2B 2063   6.237   5.358   6.647 -0.1684 -0.0237 -0.1055
  141POPC   C3B 2064   6.093   5.337   6.313  0.0255  0.0313  0.2215
  141POPC   C4B 2065   5.762   5.430   5.964 -0.2022  0.2352 -0.0202
  142POPC   NC3 2066   9.425   8.577   8.648 -0.1641 -0.0739 -0.0673
  142POPC   PO4 2067   9.134   8.378   8.423 -0.0148  0.0195  0.3123
  142POPC   GL1 2068   9.452   8.443   8.069  0.3335 -0.1074 -0.0136
  142POPC   GL2 2069   9.590   8.758   8.067 -0.2525  0.2462 -0.2344
  142POPC   C1A 2070   9.742   8.449   7.688  0.0792  0.3477  0.1319
  142POPC   D2A 2071   9.932   8.456   7.325  0.0314 -0.2099 -0.3847
  142POPC   C3A 2072   9.770   8.399   6.840 -0.0466 -0.1505  0.1097
  142POPC   C4A 2073   9.581   8.572   6.449  0.0685 -0.0980  0.1932
  142POPC   C1B 2074   9.247   8.930   7.817 -0.3019 -0.1624 -0.1201
  142POPC   C2B 2075   9.062   9.244   7.570  0.2753  0.1684  0.0601
  142POPC   C3B 2076   8.650   9.380   7.273  0.2031  0.0268 -0.0166
  142POPC   C4B 2077   8.713   9.483   6.833 -0.2811  0.3367 -0.0798
  143POPC   NC3 2078   3.770   5.900   8.185 -0.1421  0.1227  0.0247
  143POPC   PO4 2079   3.305   5.930   8.147 -0.1908 -0.2890 -0.4097
  143POPC   GL1 2080   3.569   6.050   7.743  0.3091 -0.1930  0.2571
  143POPC   GL2 2081   3.748   5.788   7.595  0.2177 -0.0952  0.3258
  143POPC   C1A 2082   3.747   6.175   7.272 -0.0030  0.2786  0.1438
  143POPC   D2A 2083   3.680   6.372   6.831  0.2600 -0.1294  0.0468
  143POPC   C3A 2084   3.723   6.009   6.690  0.0453  0.0064  0.0735
  143POPC   C4A 2085   3.916   5.591   6.681  0.2507  0.0553 -0.1700
  143POPC   C1B 2086   3.878   5.602   7.193 -0.0451 -0.2051 -0.1107
  143POPC   C2B 2087   4.169   5.174   6.921  0.0710  0.0451  0.0836
  143POPC   C3B 2088   3.971   4.837   6.724 -0.2641  0.0809  0.2102
  143POPC   C4B 2089   3.655   4.787   6.529 -0.0631 -0.0238 -0.3476
  144POPC   NC3 2090   1.818   6.198   3.781  0.1636 -0.2066 -0.0303
  144POPC   PO4 2091   1.586   5.869   3.995 -0.3727 -0.0405  0.1401
  144POPC   GL1 2092   1.453   5.738   4.452 -0.1643 -0.0753  0.2100
  144POPC   GL2 2093   1.719   5.529   4.402  0.1075  0.4176  0.0300
  144POPC   C1A 2094   1.263   5.719   4.905  0.2077  0.0136 -0.1569
  144POPC   D2A 2095   1.067   5.649   5.329 -0.1902 -0.7084 -0.0355
  144POPC   C3A 2096   1.348   5.580   5.662  0.0982 -0.1553 -0.0215
  144POPC   C4A 2097   1.397   5.235   5.995 -0.3311 -0.0685 -0.1446
  144POPC   C1B 2098   1.691   5.285   4.741 -0.0927 -0.1757  0.1553
  144POPC   C2B 2099   1.954   5.176   5.090  0.1185 -0.1314 -0.0669
  144POPC   C3B 2100   2.039   4.758   5.071 -0.3635 -0.0902 -0.3837
  144POPC   C4B 2101   2.242   4.486   5.157 -0.1233  0.0537  0.0755
  145POPC   NC3 2102   4.560   8.784   3.785  0.1312  0.1166  0.2052
  145POPC   PO4 2103   4.973   8.854   3.926  0.3393 -0.2269 -0.0017
  145POPC   GL1 2104   5.068   8.834   4.346 -0.1558 -0.1471 -0.3005
  145POPC   GL2 2105   4.926   8.779   4.665  0.2180  0.0263 -0.3402
  145POPC   C1A 2106   5.331   8.806   4.871 -0.1047 -0.0662  0.0767
  145POPC   D2A 2107   5.106   8.788   5.352 -0.1037 -0.0948  0.0528
  145POPC   C3A 2108   5.130   9.287   5.550 -0.0663  0.2566 -0.0839
  145POPC   C4A 2109   5.327   9.430   5.927 -0.1592 -0.1258  0.0488
  145POPC   C1B 2110   4.866   8.450   4.957  0.0749 -0.1532  0.0476
  145POPC   C2B 2111   4.907   8.308   5.407 -0.0565  0.0993  0.1672
  145POPC   C3B 2112   4.651   7.994   5.655 -0.2037  0.3750  0.4062
  145POPC   C4B 2113   4.418   7.623   5.412 -0.0335  0.0149  0.2069
  146POPC   NC3 2114   8.000   6.283   3.734 -0.2048  0.2641  0.0839
  146POPC   PO4 2115   7.837   6.498   4.138  0.0365  0.5795  0.2558
  146POPC   GL1 2116   8.010   6.451   4.597  0.3966 -0.2081 -0.1351
  146POPC   GL2 2117   7.878   6.253   4.701  0.3287 -0.1150  0.3478
  146POPC   C1A 2118   8.297   6.561   4.944  0.3079  0.0575 -0.2765
  146POPC   D2A 2119   8.424   6.637   5.358  0.3158  0.1932 -0.0108
  146POPC   C3A 2120   8.338   6.401   5.681  0.1212  0.0805 -0.0845
  146POPC   C4A 2121   8.599   6.083   5.780 -0.1546 -0.3704  0.3108
  146POPC   C1B 2122   7.663   6.026   5.124  0.2267 -0.1414 -0.0525
  146POPC   C2B 2123   7.523   6.164   5.560 -0.0772 -0.1635 -0.0432
  146POPC   C3B 2124   7.698   6.164   6.105 -0.1383 -0.1276 -0.0095
  146POPC   C4B 2125   7.933   6.211   6.426  0.0226 -0.1787 -0.1978
  147POPC   NC3 2126   4.483   4.966   3.921  0.1839 -0.2558  0.0885
  147POPC   PO4 2127   4.229   5.196   4.199 -0.2666 -0.0916 -0.1376
  147POPC   GL1 2128   4.128   5.084   4.628 -0.1294 -0.2557  0.1183
  147POPC   GL2 2129   4.202   4.706   4.759 -0.1032 -0.1047  0.2616
  147POPC   C1A 2130   4.156   5.196   4.948  0.1085 -0.3337  0.0259
  147POPC   D2A 2131   3.917   5.097   5.375  0.1450 -0.1058 -0.1259
  147POPC   C3A 2132   4.128   4.822   5.618 -0.3000  0.2557 -0.1717
  147POPC   C4A 2133   4.425   4.594   5.959  0.2809 -0.2378  0.4238
  147POPC   C1B 2134   4.419   4.715   5.213  0.2590 -0.1862 -0.1547
  147POPC   C2B 2135   4.686   4.430   5.508 -0.0131  0.0722 -0.4334
  147POPC   C3B 2136   4.724   4.080   5.777 -0.0428  0.1692 -0.0022
  147POPC   C4B 2137   4.662   3.860   6.081 -0.1795 -0.1475  0.0142
  148POPC   NC3 2138   0.569   8.717   3.985 -0.0240  0.1447  0.0351
  148POPC   PO4 2139   0.146   8.914   3.984  0.2566 -0.1297  0.0278
  148POPC   GL1 2140   0.034   8.923   4.396  0.0444 -0.3392 -0.2729
  148POPC   GL2 2141  -0.204   9.151   4.428 -0.0131  0.2273 -0.1751
  148POPC   C1A 2142   0.058   8.881   4.876  0.2937  0.0658 -0.2652
  148POPC   D2A 2143   0.243   8.989   5.281 -0.0686 -0.0132  0.0890
  148POPC   C3A 2144   0.199   9.121   5.571 -0.1220 -0.0860 -0.1664
  148POPC   C4A 2145   0.426   9.154   5.994 -0.0272  0.1488  0.1360
  148POPC   C1B 2146  -0.033   9.347   4.718  0.0154  0.1128  0.1789
  148POPC   C2B 2147   0.340   9.361   4.935  0.0333  0.0797  0.3184
  148POPC   C3B 2148   0.710   9.187   5.043  0.2820 -0.0709  0.1393
  148POPC   C4B 2149   1.028   9.372   5.119 -0.1103 -0.0725 -0.3123
  149POPC   NC3 2150   1.345   3.919   3.290 -0.2044  0.1692  0.4458
  149POPC   PO4 2151   1.553   3.828   3.663  0.1927 -0.0327 -0.2340
  149POPC   GL1 2152   1.531   3.904   4.018  0.3773 -0.0541 -0.0186
  149POPC   GL2 2153   1.852   4.011   4.187 -0.1279 -0.3820 -0.2142
  149POPC   C1A 2154   1.483   3.994   4.497  0.0390 -0.2282 -0.0973
  149POPC   D2A 2155   1.483   3.803   4.913 -0.1427  0.0310  0.0902
  149POPC   C3A 2156   1.387   4.044   5.346 -0.1886  0.0555 -0.3178
  149POPC   C4A 2157   1.460   4.225   5.726  0.1803  0.1854  0.0488
  149POPC   C1B 2158   2.073   3.920   4.655  0.0846 -0.2065 -0.0388
  149POPC   C2B 2159   2.013   3.791   5.127  0.2239  0.1790 -0.1012
  149POPC   C3B 2160   1.750   3.563   5.283 -0.2642  0.0394  0.2424
  149POPC   C4B 2161   1.472   3.623   5.652  0.1457 -0.1239  0.0349
  150POPC   NC3 2162   3.132   8.282   3.990 -0.3484  0.0639 -0.3807
  150POPC   PO4 2163   3.077   7.766   4.068  0.2517 -0.1694  0.3036
  150POPC   GL1 2164   2.905   8.033   4.395  0.0615  0.0656 -0.3498
  150POPC   GL2 2165   2.743   8.274   4.355 -0.1220  0.0912  0.0758
  150POPC   C1A 2166   2.779   8.021   4.752 -0.3154 -0.1668 -0.1211
  150POPC   D2A 2167   2.840   8.345   5.163 -0.2109 -0.2095  0.4637
  150POPC   C3A 2168   2.768   8.215   5.564 -0.0020 -0.2587  0.2465
  150POPC   C4A 2169   2.856   8.174   5.965  0.2210 -0.0507  0.3571
  150POPC   C1B 2170   2.597   8.469   4.615  0.1046 -0.1552  0.2437
  150POPC   C2B 2171   2.428   8.632   4.986  0.0637 -0.0666  0.2819
  150POPC   C3B 2172   2.289   8.608   5.394 -0.0201  0.1515 -0.0997
  150POPC   C4B 2173   2.151   8.732   5.764  0.2170  0.1129  0.0559
  151POPC   NC3 2174   5.554   0.145   4.700  0.3850  0.1360  0.1129
  151POPC   PO4 2175   5.116   0.060   4.499  0.3317 -0.2488  0.1397
  151POPC   GL1 2176   4.959  -0.041   4.867 -0.0221 -0.1036  0.4056
  151POPC   GL2 2177   4.655   0.109   4.980  0.1839  0.2509  0.0219
  151POPC   C1A 2178   4.986   0.082   5.278 -0.1582  0.0112 -0.6157
  151POPC   D2A 2179   4.777   0.067   5.733 -0.5977 -0.4928  0.0974
  151POPC   C3A 2180   4.444   0.051   5.913  0.0315 -0.1410 -0.2723
  151POPC   C4A 2181   4.010   0.176   6.138 -0.4352 -0.0244 -0.1021
  151POPC   C1B 2182   4.356  -0.017   5.289  0.0155  0.1392  0.1455
  151POPC   C2B 2183   4.151  -0.277   5.616 -0.2709  0.0839 -0.0761
  151POPC   C3B 2184   4.173  -0.344   6.057  0.0171  0.0131 -0.2941
  151POPC   C4B 2185   4.131  -0.262   6.428 -0.0800  0.4378 -0.2312
  152POPC   NC3 2186   2.050   7.031   4.334  0.4621  0.0885 -0.1042
  152POPC   PO4 2187   1.576   6.867   4.356 -0.1231 -0.1945  0.0171
  152POPC   GL1 2188   1.559   7.005   4.758  0.0370 -0.3944 -0.2997
  152POPC   GL2 2189   1.515   6.844   5.056  0.0700 -0.0057  0.0150
  152POPC   C1A 2190   1.486   7.336   5.047  0.0424 -0.1178 -0.1053
  152POPC   D2A 2191   1.453   7.423   5.415  0.2514 -0.1289 -0.1272
  152POPC   C3A 2192   1.068   7.427   5.612 -0.0950  0.1962 -0.1252
  152POPC   C4A 2193   0.839   7.235   5.979 -0.0214 -0.3737 -0.0611
  152POPC   C1B 2194   1.739   6.576   5.399  0.3339  0.0304  0.0562
  152POPC   C2B 2195   1.949   6.130   5.426  0.1899 -0.5213  0.0734
  152POPC   C3B 2196   2.137   6.061   5.784 -0.1806  0.1518  0.1873
  152POPC   C4B 2197   2.486   5.871   5.960  0.0070  0.2462  0.0137
  153POPC   NC3 2198   2.445   1.957   3.144 -0.3427  0.1115 -0.3929
  153POPC   PO4 2199   2.483   1.670   3.032  0.1361  0.2156  0.0171
  153POPC   GL1 2200   2.320   1.627   3.473 -0.0098 -0.0951  0.1179
  153POPC   GL2 2201   2.436   1.434   3.743 -0.0803 -0.0790 -0.1919
  153POPC   C1A 2202   1.977   1.769   3.829 -0.1514 -0.1680  0.0154
  153POPC   D2A 2203   1.644   1.837   4.143 -0.1251  0.0122 -0.0903
  153POPC   C3A 2204   1.362   1.506   4.406  0.2603 -0.0109  0.0963
  153POPC   C4A 2205   1.357   1.061   4.517  0.0937 -0.1473 -0.3601
  153POPC   C1B 2206   2.434   1.306   4.174 -0.0004 -0.1105  0.1693
  153POPC   C2B 2207   2.598   1.107   4.535 -0.3038  0.0233  0.1596
  153POPC   C3B 2208   2.670   0.835   4.929  0.3388 -0.0908  0.1759
  153POPC   C4B 2209   2.766   0.383   4.941 -0.0105 -0.5169 -0.2213
  154POPC   NC3 2210   1.229   6.205   3.750 -0.0936 -0.2980  0.0452
  154POPC   PO4 2211   1.084   5.788   3.968 -0.1164  0.1420 -0.6342
  154POPC   GL1 2212   0.983   5.466   4.341  0.3279 -0.3714 -0.0612
  154POPC   GL2 2213   1.291   5.258   4.456  0.1212 -0.2381  0.0495
  154POPC   C1A 2214   0.775   5.550   4.809  0.0622  0.0563  0.0658
  154POPC   D2A 2215   0.607   5.530   5.263 -0.0954 -0.1479 -0.0983
  154POPC   C3A 2216   0.441   5.166   5.519  0.1781  0.1111 -0.0860
  154POPC   C4A 2217   0.302   4.972   5.885  0.1794  0.1228 -0.2876
  154POPC   C1B 2218   1.154   5.179   4.840 -0.1552  0.5069  0.2456
  154POPC   C2B 2219   1.437   5.262   5.238  0.0805  0.1140  0.1673
  154POPC   C3B 2220   1.798   5.170   5.560 -0.1075  0.0962 -0.2155
  154POPC   C4B 2221   2.195   5.028   5.485  0.3781 -0.0539  0.1523
  155POPC   NC3 2222   6.172   0.659   4.734 -0.1426  0.1767 -0.2791
  155POPC   PO4 2223   5.869   0.430   4.948  0.1541 -0.1062 -0.0205
  155POPC   GL1 2224   5.903   0.734   5.277  0.1181  0.5666 -0.0247
  155POPC   GL2 2225   5.624   0.625   5.366 -0.3281 -0.0189 -0.0321
  155POPC   C1A 2226   5.780   1.056   5.535 -0.4026 -0.2973 -0.2993
  155POPC   D2A 2227   5.890   1.174   5.942 -0.0367 -0.0945  0.0948
  155POPC   C3A 2228   5.759   1.450   6.254  0.1273 -0.0492 -0.1942
  155POPC   C4A 2229   5.798   1.317   6.628 -0.3044 -0.0776 -0.2157
  155POPC   C1B 2230   5.446   0.821   5.825  0.5095  0.0610  0.0880
  155POPC   C2B 2231   4.996   1.016   6.009  0.2073  0.1469 -0.1667
  155POPC   C3B 2232   4.580   0.957   6.249  0.0749 -0.0711 -0.1212
  155POPC   C4B 2233   4.445   0.782   6.637 -0.2688 -0.1040 -0.1319
  156POPC   NC3 2234   9.556   2.045   3.279  0.2152  0.1801  0.0285
  156POPC   PO4 2235   9.670   2.328   3.599  0.0285 -0.1361  0.0030
  156POPC   GL1 2236   9.967   2.214   3.914  0.1261  0.1434  0.0753
  156POPC   GL2 2237   9.689   2.114   4.137 -0.2416  0.1129  0.1703
  156POPC   C1A 2238  10.200   2.016   4.153  0.3263  0.2869  0.2988
  156POPC   D2A 2239  10.507   1.769   4.174 -0.0723 -0.1640 -0.1003
  156POPC   C3A 2240  10.849   1.951   4.232  0.0277 -0.0821  0.1702
  156POPC   C4A 2241  11.186   2.045   4.541  0.1214 -0.1316  0.0196
  156POPC   C1B 2242   9.846   2.392   4.349  0.1084  0.3114 -0.0683
  156POPC   C2B 2243   9.964   2.546   4.725 -0.1439 -0.0981  0.0961
  156POPC   C3B 2244  10.310   2.657   4.934 -0.1286  0.1928  0.0901
  156POPC   C4B 2245  10.436   2.645   5.327 -0.1355  0.0866  0.0254
  157POPC   NC3 2246   6.588   7.635   4.214  0.1302  0.1551 -0.0033
  157POPC   PO4 2247   6.272   7.453   4.187 -0.0992  0.3912 -0.2504
  157POPC   GL1 2248   6.265   7.273   4.598 -0.0181  0.0580 -0.0882
  157POPC   GL2 2249   6.543   7.484   4.732 -0.2916 -0.1876  0.0842
  157POPC   C1A 2250   6.385   7.394   5.245  0.2132  0.0697 -0.0035
  157POPC   D2A 2251   6.169   7.481   5.652  0.2528  0.1807  0.0063
  157POPC   C3A 2252   5.748   7.469   5.456 -0.4261  0.2912 -0.1419
  157POPC   C4A 2253   5.406   7.559   5.737  0.1107  0.1733  0.0280
  157POPC   C1B 2254   6.919   7.467   5.039 -0.1277  0.0015 -0.1111
  157POPC   C2B 2255   6.866   7.233   5.403  0.1086 -0.0565  0.2476
  157POPC   C3B 2256   6.475   6.968   5.643 -0.0962 -0.1381  0.0040
  157POPC   C4B 2257   6.337   6.779   6.097  0.2346 -0.0227  0.2064
  158POPC   NC3 2258   5.467   3.527   4.469  0.2337  0.0772 -0.3513
  158POPC   PO4 2259   5.671   3.254   4.240  0.2640  0.3165  0.1255
  158POPC   GL1 2260   5.746   3.214   4.792 -0.0083  0.0921  0.2767
  158POPC   GL2 2261   6.066   3.340   4.872  0.0083  0.1463 -0.0885
  158POPC   C1A 2262   5.648   2.907   5.123 -0.0589 -0.0921 -0.1194
  158POPC   D2A 2263   5.464   2.855   5.603 -0.3133  0.2075 -0.1735
  158POPC   C3A 2264   5.358   2.977   6.019 -0.4660  0.1336 -0.0153
  158POPC   C4A 2265   5.267   3.127   6.415  0.0099  0.1441 -0.1627
  158POPC   C1B 2266   6.200   3.028   5.113  0.1478  0.0167  0.1098
  158POPC   C2B 2267   6.384   3.219   5.594  0.0805  0.2972 -0.0808
  158POPC   C3B 2268   6.591   3.033   5.935 -0.2012 -0.0114 -0.3957
  158POPC   C4B 2269   6.566   3.106   6.363  0.0403  0.1325  0.4992
  159POPC   NC3 2270   2.191   8.003   4.087  0.0148 -0.3305  0.1167
  159POPC   PO4 2271   1.810   7.980   3.917 -0.1911 -0.1893  0.0238
  159POPC   GL1 2272   1.805   7.883   4.376 -0.2223  0.0266 -0.1576
  159POPC   GL2 2273   1.576   7.673   4.280  0.2682  0.0609  0.2806
  159POPC   C1A 2274   1.993   8.045   4.798  0.0031 -0.2232  0.1759
  159POPC   D2A 2275   2.418   8.094   5.048 -0.2945 -0.4989  0.0143
  159POPC   C3A 2276   2.254   8.083   5.538 -0.1642  0.1551 -0.2077
  159POPC   C4A 2277   2.275   8.212   5.926 -0.0683 -0.3112  0.0873
  159POPC   C1B 2278   1.471   7.785   4.713  0.1679  0.0959  0.1829
  159POPC   C2B 2279   1.552   7.845   5.108 -0.0638  0.0434 -0.0306
  159POPC   C3B 2280   1.662   7.864   5.411  0.1217  0.2760  0.0518
  159POPC   C4B 2281   1.658   8.083   5.935  0.0528 -0.2200 -0.2347
  160POPC   NC3 2282   8.131   9.471   4.255 -0.0767  0.0963  0.0471
  160POPC   PO4 2283   8.255   9.871   4.501  0.0630 -0.1369  0.0097
  160POPC   GL1 2284   7.922   9.902   4.948 -0.1069  0.0369  0.3583
  160POPC   GL2 2285   8.137  10.063   5.254 -0.2352  0.1004 -0.0804
  160POPC   C1A 2286   7.590   9.770   5.263  0.2534 -0.0237 -0.1161
  160POPC   D2A 2287   7.265   9.446   5.407  0.1333  0.0389  0.3356
  160POPC   C3A 2288   6.844   9.266   5.524  0.1418 -0.1886 -0.3070
  160POPC   C4A 2289   6.556   9.330   5.889 -0.2457 -0.1337  0.1040
  160POPC   C1B 2290   7.960   9.950   5.624 -0.2174 -0.3910  0.2522
  160POPC   C2B 2291   7.656   9.672   5.794  0.1182  0.1223  0.2386
  160POPC   C3B 2292   7.387   9.976   6.103 -0.1216  0.2829 -0.0844
  160POPC   C4B 2293   7.458  10.431   6.193 -0.0946 -0.1025 -0.0564
  161POPC   NC3 2294   5.714   6.237   4.052  0.3419 -0.1715  0.1834
  161POPC   PO4 2295   5.613   6.011   4.394  0.0928 -0.0363  0.0226
  161POPC   GL1 2296   5.386   5.905   4.644 -0.0272  0.1724 -0.0031
  161POPC   GL2 2297   5.499   5.692   4.834 -0.1733 -0.0896 -0.1540
  161POPC   C1A 2298   5.154   5.939   5.021  0.0291 -0.3122 -0.2799
  161POPC   D2A 2299   5.127   5.752   5.404  0.4161 -0.0184 -0.3093
  161POPC   C3A 2300   5.550   5.662   5.466 -0.0664 -0.1123 -0.2280
  161POPC   C4A 2301   5.966   5.583   5.541  0.0730 -0.0704 -0.0716
  161POPC   C1B 2302   5.617   6.053   5.159 -0.2423 -0.0586  0.2182
  161POPC   C2B 2303   5.550   6.232   5.543 -0.2157 -0.1037  0.2713
  161POPC   C3B 2304   5.454   6.432   5.898  0.2482  0.2782 -0.3508
  161POPC   C4B 2305   5.372   6.490   6.336 -0.1461  0.0737  0.0967
  162POPC   NC3 2306   0.199   2.710   3.746 -0.2989 -0.1536  0.0849
  162POPC   PO4 2307   0.532   2.736   3.514 -0.0661  0.2658  0.0540
  162POPC   GL1 2308   0.594   2.589   3.973 -0.0001  0.1406 -0.0688
  162POPC   GL2 2309   0.852   2.335   4.056 -0.0173 -0.1560 -0.2068
  162POPC   C1A 2310   0.648   2.740   4.444 -0.3510 -0.1909  0.0057
  162POPC   D2A 2311   0.897   3.115   4.606  0.1608  0.2330  0.0462
  162POPC   C3A 2312   0.902   3.000   5.006  0.1039 -0.2519 -0.0743
  162POPC   C4A 2313   0.883   3.234   5.490 -0.1897 -0.0176  0.2081
  162POPC   C1B 2314   0.660   2.254   4.494 -0.0165 -0.2703  0.1143
  162POPC   C2B 2315   0.600   2.168   4.895  0.0551  0.0470  0.1979
  162POPC   C3B 2316   0.228   2.245   5.143  0.0757  0.1002 -0.0909
  162POPC   C4B 2317  -0.056   2.121   5.474 -0.1805 -0.3087  0.2768
  163POPC   NC3 2318   7.422   4.039   3.806 -0.0631  0.1392 -0.0489
  163POPC   PO4 2319   7.204   3.958   4.231 -0.3506 -0.3099 -0.3764
  163POPC   GL1 2320   7.064   4.080   4.700 -0.1619  0.3594 -0.0218
  163POPC   GL2 2321   7.070   4.375   4.796 -0.2585  0.3283 -0.2047
  163POPC   C1A 2322   6.850   3.897   5.007 -0.1352 -0.0677  0.1709
  163POPC   D2A 2323   6.719   3.572   5.349 -0.1485 -0.0159  0.1351
  163POPC   C3A 2324   6.596   3.606   5.734 -0.0450 -0.4287  0.0327
  163POPC   C4A 2325   6.795   3.536   6.102  0.0953  0.1611  0.1663
  163POPC   C1B 2326   7.332   4.201   5.159 -0.3096  0.1026 -0.4332
  163POPC   C2B 2327   7.542   4.314   5.502 -0.0797  0.3030 -0.3650
  163POPC   C3B 2328   7.446   4.406   5.906 -0.1629 -0.0438  0.2335
  163POPC   C4B 2329   7.606   4.457   6.364  0.0228  0.0662  0.3235
  164POPC   NC3 2330   9.346   1.027   3.411 -0.1095  0.1922 -0.1622
  164POPC   PO4 2331   9.741   1.050   3.274 -0.1686 -0.0702  0.1694
  164POPC   GL1 2332   9.836   0.952   3.744 -0.2095 -0.1966  0.0925
  164POPC   GL2 2333   9.517   0.964   3.991  0.4436  0.0898 -0.4609
  164POPC   C1A 2334  10.097   0.854   4.007 -0.0576 -0.0118 -0.1131
  164POPC   D2A 2335  10.283   0.976   4.313 -0.2682 -0.2869  0.1661
  164POPC   C3A 2336  10.119   1.396   4.387 -0.2938 -0.2229  0.1745
  164POPC   C4A 2337   9.879   1.658   4.109  0.1177  0.0406 -0.1537
  164POPC   C1B 2338   9.703   0.770   4.393  0.2514  0.2257  0.1590
  164POPC   C2B 2339   9.575   0.449   4.784 -0.2909 -0.3658  0.0125
  164POPC   C3B 2340   9.791   0.132   4.849  0.3014 -0.0184  0.1357
  164POPC   C4B 2341  10.050  -0.007   4.556 -0.1790 -0.3063  0.1585
  165POPC   NC3 2342   5.881   5.557   4.483 -0.1238  0.1065 -0.0777
  165POPC   PO4 2343   5.598   5.253   4.694  0.1266 -0.0291  0.1429
  165POPC   GL1 2344   5.863   5.373   5.007  0.0786  0.3130  0.2673
  165POPC   GL2 2345   6.132   5.519   4.875  0.0878  0.0295  0.1254
  165POPC   C1A 2346   6.126   5.198   5.357 -0.0405  0.2687 -0.2161
  165POPC   D2A 2347   6.400   5.385   5.631 -0.2008  0.1007  0.2893
  165POPC   C3A 2348   6.305   5.622   5.955 -0.0889 -0.0104 -0.1494
  165POPC   C4A 2349   6.155   5.815   6.329  0.0264  0.1445  0.0636
  165POPC   C1B 2350   6.344   5.631   5.225  0.1310 -0.2144  0.0976
  165POPC   C2B 2351   6.550   5.952   5.577  0.2472 -0.0353  0.0375
  165POPC   C3B 2352   6.542   6.033   6.000 -0.2684  0.0726 -0.1994
  165POPC   C4B 2353   6.349   6.279   6.297  0.1046  0.4092 -0.2024
  166POPC   NC3 2354   5.833   9.237   4.777  0.1055  0.1214  0.0609
  166POPC   PO4 2355   5.913   9.571   4.859 -0.0723 -0.0272  0.0404
  166POPC   GL1 2356   6.191   9.284   5.134 -0.0385 -0.2687  0.2196
  166POPC   GL2 2357   6.206   9.465   5.315 -0.0688  0.5478 -0.2679
  166POPC   C1A 2358   6.477   8.965   5.363 -0.0262  0.3910 -0.1147
  166POPC   D2A 2359   6.844   8.697   5.441  0.2171  0.0715  0.2683
  166POPC   C3A 2360   7.269   8.925   5.618  0.3936  0.1881 -0.0568
  166POPC   C4A 2361   7.591   9.043   5.427  0.0744  0.1551 -0.2933
  166POPC   C1B 2362   6.064   9.558   5.730  0.0574  0.2443 -0.3853
  166POPC   C2B 2363   6.346   9.823   5.874 -0.1569 -0.0859 -0.0042
  166POPC   C3B 2364   6.570  10.159   5.999 -0.2577  0.0230  0.0707
  166POPC   C4B 2365   6.465  10.396   6.306  0.0674 -0.1367 -0.2424
  167POPC   NC3 2366   4.086   5.693   4.422 -0.0596 -0.0161  0.2233
  167POPC   PO4 2367   4.481   5.775   4.586 -0.2701 -0.0037  0.2132
  167POPC   GL1 2368   4.676   5.926   5.002 -0.2348 -0.1548  0.0936
  167POPC   GL2 2369   4.677   6.317   4.910 -0.0265  0.3616  0.2123
  167POPC   C1A 2370   4.636   5.865   5.331  0.0982  0.0503  0.2078
  167POPC   D2A 2371   4.800   5.632   5.729 -0.0739  0.0628 -0.2583
  167POPC   C3A 2372   4.776   5.864   6.147  0.3320  0.0172 -0.0422
  167POPC   C4A 2373   4.590   6.004   6.489  0.1097 -0.4343  0.2547
  167POPC   C1B 2374   4.640   6.362   5.408 -0.1123 -0.1413  0.0234
  167POPC   C2B 2375   4.535   6.368   5.885  0.0757 -0.1993  0.0152
  167POPC   C3B 2376   4.381   6.560   6.254  0.1737  0.0948 -0.1157
  167POPC   C4B 2377   4.132   6.752   6.542 -0.2583 -0.1335 -0.4130
  168POPC   NC3 2378   4.951   5.830   4.416 -0.0319 -0.1548 -0.2743
  168POPC   PO4 2379   4.941   6.179   4.487 -0.3923 -0.1933 -0.0681
  168POPC   GL1 2380   5.213   6.409   4.736 -0.0055  0.1084  0.0925
  168POPC   GL2 2381   5.261   6.683   4.732 -0.0159  0.3739 -0.2207
  168POPC   C1A 2382   5.258   6.399   5.123  0.2157  0.0520 -0.2302
  168POPC   D2A 2383   5.105   6.517   5.486 -0.2373  0.1001  0.1237
  168POPC   C3A 2384   5.016   6.134   5.673  0.0360 -0.1655  0.0757
  168POPC   C4A 2385   5.225   5.955   5.938  0.1775 -0.1457 -0.4319
  168POPC   C1B 2386   5.477   6.896   5.013  0.0492  0.0392 -0.0536
  168POPC   C2B 2387   5.622   6.724   5.438  0.1583 -0.1478 -0.1970
  168POPC   C3B 2388   5.873   6.669   5.807 -0.1443  0.0539 -0.2120
  168POPC   C4B 2389   5.866   6.572   6.155 -0.0184  0.1447 -0.3243
  169POPC   NC3 2390   8.436   7.723   4.337 -0.2427  0.2565 -0.0364
  169POPC   PO4 2391   8.374   7.224   4.351 -0.0292  0.1725 -0.0246
  169POPC   GL1 2392   8.101   6.965   4.623 -0.0416  0.1058 -0.0954
  169POPC   GL2 2393   7.849   7.103   4.733  0.1719  0.1111 -0.1011
  169POPC   C1A 2394   8.076   6.987   5.155 -0.0380  0.1223 -0.1079
  169POPC   D2A 2395   7.810   6.923   5.477 -0.0295 -0.1814  0.0324
  169POPC   C3A 2396   7.801   6.750   5.839 -0.0384 -0.0555 -0.2390
  169POPC   C4A 2397   7.880   6.642   6.190 -0.0803  0.2962  0.1176
  169POPC   C1B 2398   7.723   6.746   4.893 -0.1253 -0.0412 -0.0797
  169POPC   C2B 2399   7.452   6.553   5.272  0.1006  0.1088  0.2890
  169POPC   C3B 2400   7.230   6.670   5.634  0.1735  0.1611 -0.0555
  169POPC   C4B 2401   7.012   6.951   5.886  0.2004 -0.3619 -0.0310
  170POPC   NC3 2402   4.934   3.678   4.205 -0.1022  0.1751  0.1160
  170POPC   PO4 2403   4.465   3.791   4.297  0.0910 -0.0243 -0.0260
  170POPC   GL1 2404   4.238   3.869   4.690  0.0925  0.1304  0.2665
  170POPC   GL2 2405   4.474   3.902   4.826  0.1284 -0.1762  0.1048
  170POPC   C1A 2406   4.122   3.847   5.169 -0.3335  0.1032 -0.0407
  170POPC   D2A 2407   3.757   3.615   5.206  0.1906 -0.2221 -0.1731
  170POPC   C3A 2408   3.669   3.424   5.607  0.0398  0.0227  0.1363
  170POPC   C4A 2409   3.480   3.508   5.967  0.3793 -0.1702  0.7254
  170POPC   C1B 2410   4.348   4.256   5.067 -0.1305 -0.2916  0.2396
  170POPC   C2B 2411   4.183   4.329   5.484  0.2571 -0.2796 -0.0685
  170POPC   C3B 2412   3.894   4.404   5.814  0.1422  0.0819 -0.0893
  170POPC   C4B 2413   3.994   4.573   6.234  0.0447 -0.2894  0.0127
  171POPC   NC3 2414   0.096   3.021   3.304  0.1455 -0.0661  0.1864
  171POPC   PO4 2415  -0.225   2.988   3.674  0.1213  0.2938 -0.1783
  171POPC   GL1 2416  -0.198   3.111   4.087 -0.1236 -0.2083  0.0941
  171POPC   GL2 2417  -0.335   3.364   4.213 -0.1842 -0.0535  0.1628
  171POPC   C1A 2418   0.025   2.948   4.344 -0.2489  0.0485 -0.2197
  171POPC   D2A 2419   0.344   3.062   4.669  0.0949 -0.1108 -0.2639
  171POPC   C3A 2420   0.210   2.898   5.086  0.0214  0.2451 -0.0629
  171POPC   C4A 2421   0.324   3.087   5.354 -0.4075 -0.0005 -0.2489
  171POPC   C1B 2422  -0.286   3.275   4.595 -0.0680 -0.2106 -0.1546
  171POPC   C2B 2423  -0.176   3.150   4.943 -0.1436  0.0115 -0.1267
  171POPC   C3B 2424  -0.186   3.065   5.357  0.0006 -0.2195 -0.3002
  171POPC   C4B 2425   0.026   2.979   5.759 -0.1120  0.1926 -0.0959
  172POPC   NC3 2426   8.996   8.377   4.462  0.0088 -0.0564 -0.2212
  172POPC   PO4 2427   9.237   8.001   4.387 -0.0710 -0.0691 -0.0049
  172POPC   GL1 2428   9.306   8.088   4.758 -0.0344  0.1617 -0.0202
  172POPC   GL2 2429   9.265   7.782   4.894  0.0260 -0.0673  0.1902
  172POPC   C1A 2430   9.379   8.269   5.142 -0.2954  0.0483  0.1490
  172POPC   D2A 2431   9.329   8.700   5.305 -0.0869  0.1227  0.0573
  172POPC   C3A 2432   9.455   8.724   5.642 -0.1735 -0.2430  0.1509
  172POPC   C4A 2433   9.792   8.823   5.964  0.1182 -0.1952  0.1894
  172POPC   C1B 2434   9.519   7.862   5.325  0.2731  0.0687  0.0195
  172POPC   C2B 2435   9.554   8.200   5.637 -0.2354  0.0465  0.2423
  172POPC   C3B 2436   9.415   8.412   6.009  0.0287  0.0014 -0.1697
  172POPC   C4B 2437   9.124   8.589   6.005  0.0240  0.1895 -0.0509
  173POPC   NC3 2438   6.615   1.549   4.444  0.0074 -0.1536  0.3293
  173POPC   PO4 2439   6.772   1.286   4.614  0.0922  0.0082  0.1119
  173POPC   GL1 2440   6.698   1.343   5.030  0.0277  0.1684 -0.2295
  173POPC   GL2 2441   6.888   1.618   5.165 -0.2014 -0.1600 -0.2159
  173POPC   C1A 2442   6.779   1.331   5.501  0.1372 -0.1870 -0.1498
  173POPC   D2A 2443   6.691   0.928   5.770 -0.0300 -0.3932 -0.0604
  173POPC   C3A 2444   6.236   0.781   5.823 -0.0733 -0.0680 -0.1017
  173POPC   C4A 2445   5.851   0.708   6.125  0.0095  0.3414  0.0734
  173POPC   C1B 2446   7.151   1.648   5.588 -0.4964 -0.0054  0.0626
  173POPC   C2B 2447   7.207   1.842   6.031 -0.0414  0.0227  0.0476
  173POPC   C3B 2448   7.609   1.632   6.332  0.1665  0.1191 -0.2370
  173POPC   C4B 2449   7.777   1.612   6.710 -0.0473 -0.0427 -0.0098
  174POPC   NC3 2450   3.628   3.095   4.038  0.2175  0.1283 -0.2051
  174POPC   PO4 2451   3.966   2.655   4.179  0.1169  0.0537  0.4853
  174POPC   GL1 2452   3.816   2.923   4.537 -0.1020  0.2200  0.1694
  174POPC   GL2 2453   3.518   2.939   4.520  0.3103  0.0615 -0.0892
  174POPC   C1A 2454   3.831   2.671   4.948  0.1923 -0.1609  0.2677
  174POPC   D2A 2455   4.220   2.768   5.146  0.1769 -0.1390 -0.0538
  174POPC   C3A 2456   4.165   2.857   5.573 -0.1464 -0.1355 -0.2570
  174POPC   C4A 2457   4.464   2.855   5.850  0.1041 -0.1559 -0.0944
  174POPC   C1B 2458   3.194   2.770   4.842  0.1754 -0.3162 -0.1535
  174POPC   C2B 2459   3.112   2.800   5.214 -0.0898  0.1447 -0.1044
  174POPC   C3B 2460   3.244   2.761   5.626  0.0166 -0.1896  0.0944
  174POPC   C4B 2461   3.675   2.959   5.886  0.2707 -0.0350  0.0378
  175POPC   NC3 2462   1.304   2.161   3.150 -0.2241  0.0966 -0.4099
  175POPC   PO4 2463   1.637   2.430   3.267 -0.1216  0.1980  0.0384
  175POPC   GL1 2464   1.883   2.580   3.588 -0.3395  0.1265 -0.1284
  175POPC   GL2 2465   1.764   2.756   3.880  0.0645 -0.1128 -0.0779
  175POPC   C1A 2466   1.854   2.272   4.041  0.0852 -0.0956  0.1504
  175POPC   D2A 2467   1.939   2.094   4.494 -0.4839 -0.2112  0.2426
  175POPC   C3A 2468   2.185   2.315   4.796 -0.3872  0.4305  0.0403
  175POPC   C4A 2469   2.158   2.474   5.229 -0.0012  0.0175  0.3141
  175POPC   C1B 2470   1.612   2.935   4.321  0.4281  0.1366 -0.0343
  175POPC   C2B 2471   1.588   3.113   4.551 -0.1598 -0.1555  0.1827
  175POPC   C3B 2472   1.287   3.306   4.876 -0.3054  0.0212 -0.0179
  175POPC   C4B 2473   1.382   3.239   5.328  0.2054 -0.3305 -0.4319
  176POPC   NC3 2474   4.158   7.217   4.329  0.2000  0.1122  0.0488
  176POPC   PO4 2475   4.075   7.724   4.472 -0.0265 -0.0360  0.1003
  176POPC   GL1 2476   3.642   7.861   4.746  0.2445 -0.3231 -0.2404
  176POPC   GL2 2477   3.301   7.718   4.706 -0.2905  0.0020  0.0350
  176POPC   C1A 2478   3.596   7.779   5.150 -0.0901 -0.1069 -0.2130
  176POPC   D2A 2479   3.441   7.783   5.607  0.0102 -0.0412 -0.0776
  176POPC   C3A 2480   3.686   8.169   5.805  0.1009  0.1954 -0.1477
  176POPC   C4A 2481   3.711   8.493   5.647  0.0565  0.1212 -0.4512
  176POPC   C1B 2482   3.072   7.821   5.105 -0.0629  0.0940  0.0073
  176POPC   C2B 2483   2.746   7.747   5.438 -0.1157 -0.0870  0.1513
  176POPC   C3B 2484   2.547   7.733   5.833  0.2071  0.2116  0.1637
  176POPC   C4B 2485   2.553   7.342   6.091 -0.0525  0.0065 -0.1200
  177POPC   NC3 2486   4.597   3.294   4.279  0.0666 -0.0875 -0.2130
  177POPC   PO4 2487   4.740   3.331   4.634  0.4472 -0.0142  0.0989
  177POPC   GL1 2488   4.778   3.398   4.981  0.0282 -0.0458  0.0803
  177POPC   GL2 2489   4.500   3.335   5.036  0.2970  0.0492 -0.3191
  177POPC   C1A 2490   4.856   3.183   5.349 -0.1946  0.1836 -0.1122
  177POPC   D2A 2491   4.940   2.973   5.829 -0.0381 -0.0335  0.1355
  177POPC   C3A 2492   4.801   2.778   6.278 -0.0267 -0.0166  0.2603
  177POPC   C4A 2493   4.816   2.836   6.658  0.0873  0.0965  0.1781
  177POPC   C1B 2494   4.309   3.326   5.389 -0.0497  0.2605 -0.0042
  177POPC   C2B 2495   4.114   3.287   5.769  0.2411  0.0951  0.0551
  177POPC   C3B 2496   3.937   3.633   5.981 -0.3455 -0.2197  0.2789
  177POPC   C4B 2497   3.633   3.991   6.125 -0.1419 -0.2896 -0.2349
  178POPC   NC3 2498   5.286   6.476   4.268 -0.3217 -0.0457 -0.2266
  178POPC   PO4 2499   5.621   6.681   4.203  0.1124 -0.0136  0.0610
  178POPC   GL1 2500   5.681   6.549   4.609  0.2681  0.0483  0.1127
  178POPC   GL2 2501   5.738   6.484   4.936  0.1991 -0.2445  0.0293
  178POPC   C1A 2502   6.084   6.781   4.789  0.1643 -0.1375  0.1918
  178POPC   D2A 2503   6.300   6.859   5.180  0.0655 -0.0359  0.1418
  178POPC   C3A 2504   6.015   6.996   5.447  0.1040  0.0645 -0.2018
  178POPC   C4A 2505   5.804   7.194   5.897 -0.0758  0.1563 -0.1009
  178POPC   C1B 2506   6.034   6.528   5.349  0.1665  0.0878  0.1466
  178POPC   C2B 2507   6.316   6.451   5.675 -0.1779  0.2071 -0.0561
  178POPC   C3B 2508   6.748   6.511   5.916  0.4824 -0.1415 -0.2342
  178POPC   C4B 2509   6.845   6.305   6.316  0.1225  0.3813 -0.0469
  179POPC   NC3 2510   5.739   5.001   4.277  0.1311  0.1819 -0.3336
  179POPC   PO4 2511   5.356   5.000   4.196  0.3181  0.2311 -0.1526
  179POPC   GL1 2512   5.349   4.751   4.462  0.3165  0.0357 -0.1767
  179POPC   GL2 2513   5.215   4.878   4.826 -0.1403 -0.1342 -0.4567
  179POPC   C1A 2514   5.186   4.370   4.772 -0.2503  0.0202 -0.1771
  179POPC   D2A 2515   5.221   4.447   5.229  0.1187 -0.1435 -0.3221
  179POPC   C3A 2516   5.254   4.201   5.608 -0.4806 -0.0099  0.0429
  179POPC   C4A 2517   5.116   4.010   6.078 -0.1733 -0.2620 -0.1321
  179POPC   C1B 2518   4.984   4.916   5.316  0.2405  0.0137  0.3146
  179POPC   C2B 2519   5.069   5.278   5.578  0.1682 -0.2473 -0.2107
  179POPC   C3B 2520   5.231   5.471   5.857  0.1369  0.1827  0.0437
  179POPC   C4B 2521   5.396   5.588   6.302  0.0752  0.0715 -0.1700
  180POPC   NC3 2522   1.799   8.243   3.336  0.2946  0.0663 -0.3402
  180POPC   PO4 2523   2.112   8.313   3.640 -0.1268  0.0301 -0.2691
  180POPC   GL1 2524   2.102   8.607   4.020  0.0127 -0.2257 -0.0934
  180POPC   GL2 2525   2.330   8.678   4.232  0.2091 -0.1934 -0.1675
  180POPC   C1A 2526   1.730   8.672   4.219  0.0267 -0.1812  0.1468
  180POPC   D2A 2527   1.599   8.915   4.567 -0.0746 -0.0931  0.0477
  180POPC   C3A 2528   1.641   9.387   4.624 -0.0317 -0.1864  0.1390
  180POPC   C4A 2529   1.575   9.825   4.331  0.1694 -0.0285 -0.1807
  180POPC   C1B 2530   2.093   8.581   4.558  0.0994 -0.1978  0.0821
  180POPC   C2B 2531   1.950   8.877   4.888  0.4546  0.0231 -0.1081
  180POPC   C3B 2532   1.743   9.115   5.043 -0.0181 -0.0877 -0.0737
  180POPC   C4B 2533   1.466   9.514   5.190  0.0587  0.0259 -0.3350
  181POPC   NC3 2534   5.794   7.716   4.253  0.3167 -0.0368  0.1016
  181POPC   PO4 2535   5.421   7.992   4.168 -0.3760  0.1175  0.0196
  181POPC   GL1 2536   5.337   7.817   4.594  0.0025  0.0973 -0.2877
  181POPC   GL2 2537   5.498   7.543   4.633  0.2058 -0.2093  0.2589
  181POPC   C1A 2538   5.232   8.096   4.866 -0.2297 -0.1689  0.0252
  181POPC   D2A 2539   5.316   8.349   5.131 -0.3873 -0.1170 -0.0232
  181POPC   C3A 2540   5.634   8.555   5.449 -0.0129 -0.4915  0.0663
  181POPC   C4A 2541   5.590   8.889   5.303 -0.1564 -0.0853 -0.0519
  181POPC   C1B 2542   5.476   7.432   5.012 -0.1084 -0.0942  0.0948
  181POPC   C2B 2543   5.259   7.242   5.342 -0.1892  0.0540  0.1438
  181POPC   C3B 2544   5.326   7.037   5.660  0.1771 -0.1605 -0.0477
  181POPC   C4B 2545   5.430   6.904   6.097  0.0262  0.0083  0.1146
  182POPC   NC3 2546   9.640   5.674   3.839 -0.0473  0.1515 -0.1077
  182POPC   PO4 2547   9.248   5.643   4.009  0.0223  0.1562  0.2868
  182POPC   GL1 2548   9.200   5.819   4.464  0.1281 -0.3576 -0.0621
  182POPC   GL2 2549   8.951   6.037   4.588 -0.0735  0.0831 -0.2873
  182POPC   C1A 2550   9.518   5.766   4.813  0.1102  0.0811  0.0286
  182POPC   D2A 2551   9.450   5.897   5.314 -0.2834  0.1375  0.1385
  182POPC   C3A 2552   9.563   6.286   5.625 -0.0614  0.2384 -0.1603
  182POPC   C4A 2553   9.650   6.352   6.155  0.0563  0.1244 -0.0263
  182POPC   C1B 2554   9.006   6.084   5.087 -0.1840 -0.1858  0.1164
  182POPC   C2B 2555   9.030   5.984   5.555  0.2165 -0.0149  0.2876
  182POPC   C3B 2556   9.482   5.866   5.808  0.1201 -0.2211  0.0168
  182POPC   C4B 2557   9.562   5.413   5.937  0.1188 -0.1717 -0.2413
  183POPC   NC3 2558   2.081   4.994   3.834 -0.3056 -0.0794  0.0104
  183POPC   PO4 2559   2.558   4.914   3.940 -0.0992  0.3999 -0.0268
  183POPC   GL1 2560   2.451   4.721   4.350  0.2485  0.0847 -0.0595
  183POPC   GL2 2561   2.517   4.530   4.574  0.1818 -0.1307  0.3174
  183POPC   C1A 2562   2.239   4.905   4.626 -0.4248  0.1107  0.1673
  183POPC   D2A 2563   2.468   5.009   5.064  0.1190 -0.0278  0.2225
  183POPC   C3A 2564   2.355   5.423   5.238  0.0530 -0.1161 -0.0623
  183POPC   C4A 2565   2.403   5.784   5.392 -0.0302  0.2548 -0.0899
  183POPC   C1B 2566   2.697   4.593   4.818 -0.4705  0.1011  0.0699
  183POPC   C2B 2567   3.120   4.676   4.867  0.3306  0.2346 -0.5434
  183POPC   C3B 2568   3.325   4.420   5.218  0.1005  0.0590 -0.1834
  183POPC   C4B 2569   3.404   4.285   5.678  0.3746 -0.0280 -0.0441
  184POPC   NC3 2570   6.170   8.402   4.400  0.0707  0.0173  0.0639
  184POPC   PO4 2571   6.654   8.454   4.393 -0.2389  0.1273  0.0526
  184POPC   GL1 2572   6.481   8.247   4.759  0.1802  0.0903  0.3617
  184POPC   GL2 2573   6.693   7.969   4.711 -0.3074 -0.2493  0.1875
  184POPC   C1A 2574   6.220   7.978   5.073 -0.2326 -0.0386 -0.1777
  184POPC   D2A 2575   5.925   7.937   5.474 -0.1284  0.1649  0.2643
  184POPC   C3A 2576   6.222   7.963   5.774 -0.0195 -0.0855  0.1571
  184POPC   C4A 2577   6.372   7.877   6.169 -0.1459 -0.0083  0.2064
  184POPC   C1B 2578   6.707   7.908   5.080  0.1132  0.0973  0.1440
  184POPC   C2B 2579   6.691   7.705   5.515 -0.0458  0.3267  0.1046
  184POPC   C3B 2580   6.599   7.407   5.871 -0.0144  0.2672  0.2173
  184POPC   C4B 2581   6.217   7.332   6.191  0.2083  0.0326  0.1863
  185POPC   NC3 2582   4.858   1.151   4.808  0.0401 -0.1077 -0.0578
  185POPC   PO4 2583   4.392   1.246   4.773 -0.2714 -0.1289  0.2092
  185POPC   GL1 2584   4.448   1.273   5.163 -0.0894  0.1668  0.1608
  185POPC   GL2 2585   4.780   1.310   5.281  0.1102  0.2814  0.2273
  185POPC   C1A 2586   4.291   1.408   5.537 -0.1643  0.0869 -0.0258
  185POPC   D2A 2587   4.135   1.142   5.833 -0.0785 -0.0807  0.0962
  185POPC   C3A 2588   4.098   1.247   6.312  0.0622  0.0819  0.0064
  185POPC   C4A 2589   3.923   0.965   6.654  0.0558  0.0572 -0.0663
  185POPC   C1B 2590   4.792   1.381   5.723 -0.2456  0.0368  0.0726
  185POPC   C2B 2591   4.653   1.392   6.117 -0.0785  0.1093  0.0545
  185POPC   C3B 2592   4.593   1.681   6.436 -0.0743 -0.0413  0.2804
  185POPC   C4B 2593   4.936   1.851   6.584  0.1019 -0.1830  0.1769
  186POPC   NC3 2594   7.858   2.392   3.915  0.0525 -0.1590 -0.0644
  186POPC   PO4 2595   7.662   2.730   3.988  0.1483  0.2210 -0.1379
  186POPC   GL1 2596   7.972   2.685   4.413  0.0041  0.1143 -0.1826
  186POPC   GL2 2597   8.261   2.541   4.416  0.0632 -0.1848 -0.0765
  186POPC   C1A 2598   8.042   2.790   4.800  0.1020 -0.3575 -0.1893
  186POPC   D2A 2599   8.137   2.872   5.240 -0.0625 -0.0839 -0.0960
  186POPC   C3A 2600   8.039   2.786   5.647  0.1258  0.2106  0.0349
  186POPC   C4A 2601   8.158   2.468   5.990 -0.0219  0.0487  0.1514
  186POPC   C1B 2602   8.358   2.305   4.824 -0.1556 -0.1169  0.3235
  186POPC   C2B 2603   8.661   2.054   5.081  0.0036 -0.0220  0.1095
  186POPC   C3B 2604   8.663   1.793   5.451 -0.1087  0.0136  0.0847
  186POPC   C4B 2605   8.975   1.837   5.934 -0.1221  0.0408  0.1656
  187POPC   NC3 2606   7.054   2.561   4.587 -0.1162  0.2878  0.0309
  187POPC   PO4 2607   7.136   2.201   4.447  0.1178  0.4992  0.0056
  187POPC   GL1 2608   7.364   2.111   4.769  0.0766 -0.1820  0.3642
  187POPC   GL2 2609   7.479   1.768   4.866  0.0341 -0.0232 -0.1276
  187POPC   C1A 2610   7.243   2.005   5.225  0.0562  0.2253 -0.0072
  187POPC   D2A 2611   7.184   2.235   5.578 -0.0165 -0.0661  0.5160
  187POPC   C3A 2612   7.012   2.301   5.953 -0.2533  0.0828 -0.1182
  187POPC   C4A 2613   6.690   2.448   6.178 -0.2166  0.3841 -0.0150
  187POPC   C1B 2614   7.664   1.703   5.240 -0.0314  0.0053 -0.1908
  187POPC   C2B 2615   8.103   1.632   5.517  0.0470  0.0749 -0.2215
  187POPC   C3B 2616   8.492   1.517   5.847  0.3777 -0.1027 -0.1452
  187POPC   C4B 2617   8.698   1.432   6.224 -0.1541 -0.3546 -0.0984
  188POPC   NC3 2618   1.705   9.474   2.627  0.0783  0.0047  0.0592
  188POPC   PO4 2619   1.303   9.258   2.960 -0.0663 -0.0274 -0.1038
  188POPC   GL1 2620   1.398   9.533   3.265  0.0151 -0.1809  0.1441
  188POPC   GL2 2621   1.674   9.413   3.447 -0.1161 -0.2422 -0.3964
  188POPC   C1A 2622   1.209   9.724   3.760  0.0043  0.0422 -0.0969
  188POPC   D2A 2623   1.071   9.895   4.172  0.0947 -0.1508  0.0506
  188POPC   C3A 2624   0.820  10.261   4.060 -0.2083 -0.1450 -0.0202
  188POPC   C4A 2625   0.873  10.593   3.834  0.1065  0.5437  0.1867
  188POPC   C1B 2626   1.707   9.873   3.648 -0.0941 -0.1747  0.3196
  188POPC   C2B 2627   1.775  10.336   3.727  0.0194  0.3216 -0.0090
  188POPC   C3B 2628   1.790  10.655   4.106  0.0493 -0.2596 -0.3478
  188POPC   C4B 2629   2.142  10.590   4.307 -0.1300 -0.0772 -0.0335
  189POPC   NC3 2630   1.705   7.162   3.983 -0.0597 -0.0672 -0.2095
  189POPC   PO4 2631   2.039   7.504   4.147 -0.2584  0.1726 -0.3312
  189POPC   GL1 2632   2.074   7.536   4.564  0.0177  0.1434 -0.1939
  189POPC   GL2 2633   1.890   7.392   4.690  0.2561 -0.2204  0.2149
  189POPC   C1A 2634   2.481   7.619   4.676  0.0784  0.1160  0.3966
  189POPC   D2A 2635   2.862   7.475   4.765  0.0920 -0.1815 -0.0193
  189POPC   C3A 2636   2.982   7.248   5.066 -0.1071 -0.0368 -0.0449
  189POPC   C4A 2637   2.993   7.302   5.508  0.2296  0.0977  0.2620
  189POPC   C1B 2638   1.989   7.540   5.046 -0.1710 -0.0867  0.0841
  189POPC   C2B 2639   2.056   7.600   5.576 -0.3792 -0.0464  0.2156
  189POPC   C3B 2640   2.011   7.682   5.984  0.0928  0.1940  0.2292
  189POPC   C4B 2641   2.170   7.587   6.428  0.4425 -0.3351 -0.0914
  190POPC   NC3 2642   9.414   3.474   3.705 -0.1439  0.0990 -0.2598
  190POPC   PO4 2643   9.348   4.047   3.778 -0.0239 -0.0860 -0.1004
  190POPC   GL1 2644   9.286   4.120   4.173 -0.1163  0.1769 -0.0374
  190POPC   GL2 2645   9.348   4.346   4.466 -0.0982 -0.2171  0.2584
  190POPC   C1A 2646   9.364   3.795   4.527 -0.1847  0.0241 -0.0399
  190POPC   D2A 2647   9.505   3.724   4.900  0.1474  0.1263  0.1973
  190POPC   C3A 2648   9.856   3.469   4.807  0.0845 -0.1085 -0.1339
  190POPC   C4A 2649   9.900   3.425   4.364 -0.0344  0.1843 -0.1046
  190POPC   C1B 2650   9.610   4.244   4.879  0.3197  0.0369  0.2777
  190POPC   C2B 2651   9.572   4.291   5.265  0.1502 -0.0646 -0.0018
  190POPC   C3B 2652   9.541   4.129   5.601 -0.0785 -0.0951 -0.0799
  190POPC   C4B 2653   9.436   3.896   5.968 -0.3668 -0.0471  0.2021
  191POPC   NC3 2654   6.461   1.736   4.865 -0.0523 -0.3275  0.0576
  191POPC   PO4 2655   6.550   2.065   4.575  0.1794  0.0504 -0.2102
  191POPC   GL1 2656   6.692   2.208   4.998  0.1198 -0.1359  0.0320
  191POPC   GL2 2657   6.890   2.517   5.042  0.2490 -0.0704 -0.1379
  191POPC   C1A 2658   6.653   1.952   5.435  0.0164 -0.0872  0.1854
  191POPC   D2A 2659   6.642   1.986   5.862 -0.1330 -0.3447  0.0744
  191POPC   C3A 2660   6.719   1.517   6.046 -0.1877  0.0975  0.0960
  191POPC   C4A 2661   6.809   1.094   6.311 -0.1504 -0.0395  0.3291
  191POPC   C1B 2662   6.654   2.540   5.430  0.2870  0.0354 -0.0447
  191POPC   C2B 2663   6.413   2.408   5.751  0.0777 -0.1967 -0.1491
  191POPC   C3B 2664   5.962   2.557   5.824 -0.0826 -0.0436 -0.1554
  191POPC   C4B 2665   5.778   2.726   6.249 -0.1725  0.1726  0.1584
  192POPC   NC3 2666   2.799   7.298   4.165 -0.0271 -0.2444  0.2564
  192POPC   PO4 2667   2.434   7.022   4.064 -0.1261 -0.0076  0.2012
  192POPC   GL1 2668   2.513   7.082   4.503 -0.2317  0.0835 -0.1097
  192POPC   GL2 2669   2.737   6.885   4.536 -0.2644  0.2415  0.0853
  192POPC   C1A 2670   2.487   7.144   4.882  0.2327 -0.1348  0.0702
  192POPC   D2A 2671   2.390   7.406   5.257 -0.5332  0.1367 -0.1315
  192POPC   C3A 2672   2.317   7.193   5.636  0.0401  0.0524 -0.2016
  192POPC   C4A 2673   2.204   6.858   5.613 -0.0452 -0.0445  0.0986
  192POPC   C1B 2674   2.737   6.752   5.030 -0.2949  0.2729 -0.0627
  192POPC   C2B 2675   2.655   6.951   5.342  0.0550 -0.1115 -0.1265
  192POPC   C3B 2676   2.658   6.786   5.693 -0.0289 -0.0822 -0.0750
  192POPC   C4B 2677   2.687   6.774   6.126 -0.2009  0.0679  0.1816
  193POPC   NC3 2678   3.408   6.855   3.874  0.1933 -0.1901 -0.3465
  193POPC   PO4 2679   3.155   6.726   4.131 -0.0214  0.3503 -0.0398
  193POPC   GL1 2680   3.168   6.629   4.555  0.0289 -0.2050 -0.1433
  193POPC   GL2 2681   3.307   6.374   4.759 -0.0186 -0.0994 -0.0407
  193POPC   C1A 2682   3.214   6.832   4.945  0.1239  0.1412  0.2416
  193POPC   D2A 2683   3.487   7.148   4.997 -0.1478 -0.1995  0.0745
  193POPC   C3A 2684   3.451   7.360   5.297  0.1727  0.1168 -0.1220
  193POPC   C4A 2685   3.442   7.326   5.808  0.1675 -0.0279  0.1066
  193POPC   C1B 2686   3.354   6.119   5.125  0.2227  0.0905 -0.0513
  193POPC   C2B 2687   3.296   6.218   5.571 -0.2097  0.0460  0.1556
  193POPC   C3B 2688   3.366   6.067   5.949 -0.0771  0.1329  0.1411
  193POPC   C4B 2689   3.555   5.945   6.254  0.1400  0.2986  0.3805
  194POPC   NC3 2690   2.324   6.266   4.206  0.1014 -0.3811  0.3505
  194POPC   PO4 2691   2.347   6.628   4.386  0.2559 -0.1474  0.3743
  194POPC   GL1 2692   2.308   6.682   4.756  0.2578 -0.2455  0.0855
  194POPC   GL2 2693   1.901   6.565   4.770  0.0109  0.0835  0.0876
  194POPC   C1A 2694   2.303   6.556   5.225  0.0549 -0.4992 -0.3803
  194POPC   D2A 2695   2.508   6.300   5.588 -0.1852  0.2298 -0.1255
  194POPC   C3A 2696   2.857   6.303   5.827  0.3416 -0.1271 -0.5038
  194POPC   C4A 2697   3.130   6.578   5.939 -0.0932  0.1427  0.0677
  194POPC   C1B 2698   1.990   7.009   4.958 -0.1148  0.2608 -0.2824
  194POPC   C2B 2699   1.847   7.129   5.424 -0.0417 -0.1042 -0.0803
  194POPC   C3B 2700   1.834   7.181   5.793  0.1857 -0.0355 -0.0113
  194POPC   C4B 2701   1.796   7.309   6.244 -0.0903 -0.1539 -0.2958
  195POPC   NC3 2702   2.053   3.822   3.728  0.1085 -0.4259  0.0731
  195POPC   PO4 2703   2.334   3.550   3.935 -0.2550 -0.0270  0.0053
  195POPC   GL1 2704   2.346   3.632   4.330  0.0408 -0.2619  0.3338
  195POPC   GL2 2705   2.476   3.407   4.462  0.0680  0.2349  0.3680
  195POPC   C1A 2706   2.584   3.933   4.574  0.0723 -0.0895  0.0544
  195POPC   D2A 2707   2.478   4.101   4.842  0.2209 -0.2499 -0.3092
  195POPC   C3A 2708   2.443   3.988   5.200  0.1239 -0.3267  0.0208
  195POPC   C4A 2709   2.394   3.854   5.591  0.1520 -0.1390 -0.1716
  195POPC   C1B 2710   2.323   3.509   4.873 -0.3389  0.0520  0.1931
  195POPC   C2B 2711   2.275   3.421   5.274 -0.1188 -0.1090  0.1700
  195POPC   C3B 2712   2.208   3.397   5.735  0.1150  0.0665  0.2129
  195POPC   C4B 2713   2.184   3.043   5.988 -0.1440  0.0835 -0.2081
  196POPC   NC3 2714   4.042   2.021   4.381  0.0679  0.1653 -0.3087
  196POPC   PO4 2715   4.336   1.831   4.637 -0.0397  0.0295  0.0404
  196POPC   GL1 2716   4.249   1.721   5.091 -0.0559 -0.0049  0.1442
  196POPC   GL2 2717   4.440   1.812   5.286  0.5626 -0.0804 -0.0065
  196POPC   C1A 2718   3.926   1.811   5.373  0.0779 -0.0839 -0.0870
  196POPC   D2A 2719   3.797   2.152   5.613  0.0914  0.1213  0.1012
  196POPC   C3A 2720   3.820   2.084   6.011  0.0317 -0.0865 -0.1743
  196POPC   C4A 2721   3.656   2.094   6.341  0.3670 -0.1027 -0.1639
  196POPC   C1B 2722   4.444   1.850   5.712 -0.2193  0.1105  0.1911
  196POPC   C2B 2723   4.127   1.722   5.952 -0.0003 -0.3425 -0.2885
  196POPC   C3B 2724   3.683   1.563   6.091 -0.1824  0.1771  0.1938
  196POPC   C4B 2725   3.314   1.389   5.758  0.1312 -0.0407 -0.0155
  197POPC   NC3 2726   1.034   2.967   3.393  0.2522 -0.0385 -0.2665
  197POPC   PO4 2727   0.755   3.316   3.492  0.1305  0.0888 -0.0647
  197POPC   GL1 2728   0.752   3.107   3.870  0.0870  0.0370  0.2942
  197POPC   GL2 2729   0.571   3.161   4.196  0.3335 -0.2899  0.0235
  197POPC   C1A 2730   1.057   2.844   4.156  0.1964 -0.2763  0.0187
  197POPC   D2A 2731   1.120   2.636   4.583  0.2148  0.1778  0.2010
  197POPC   C3A 2732   1.272   2.714   5.010  0.2004 -0.2224 -0.1972
  197POPC   C4A 2733   1.590   2.716   5.309 -0.1986 -0.1897 -0.0633
  197POPC   C1B 2734   0.948   3.433   4.244 -0.0729 -0.2514  0.0615
  197POPC   C2B 2735   1.386   3.456   4.223 -0.1060  0.0868  0.0055
  197POPC   C3B 2736   1.771   3.541   4.415 -0.1258  0.2980 -0.2191
  197POPC   C4B 2737   1.871   3.456   4.802  0.0536  0.1250  0.2678
  198POPC   NC3 2738   0.698   7.585   4.148 -0.0990 -0.5094 -0.0254
  198POPC   PO4 2739   0.736   7.146   4.333 -0.0347 -0.2438  0.2339
  198POPC   GL1 2740   0.825   7.357   4.687  0.4055 -0.1631 -0.0071
  198POPC   GL2 2741   1.147   7.405   4.686  0.0833  0.2348  0.1666
  198POPC   C1A 2742   0.997   7.135   5.075 -0.1214  0.1169  0.0567
  198POPC   D2A 2743   1.194   6.909   5.503  0.2524 -0.1053  0.1598
  198POPC   C3A 2744   1.364   7.113   5.899 -0.2174 -0.2517 -0.1690
  198POPC   C4A 2745   1.503   7.597   5.846  0.0463  0.3658 -0.1166
  198POPC   C1B 2746   1.082   7.622   5.045 -0.3715 -0.0109  0.3252
  198POPC   C2B 2747   1.170   7.840   5.395 -0.1296  0.1347  0.1534
  198POPC   C3B 2748   1.235   7.974   5.716  0.1489 -0.4837  0.2500
  198POPC   C4B 2749   1.177   8.181   5.997 -0.0159 -0.0084 -0.0803
  199POPC   NC3 2750   0.439   4.492   3.531  0.2217  0.2811 -0.1651
  199POPC   PO4 2751   0.842   4.579   3.828  0.0393 -0.0467 -0.0500
  199POPC   GL1 2752   1.058   4.339   4.260 -0.1795  0.0725 -0.1532
  199POPC   GL2 2753   1.000   3.912   4.239  0.0996 -0.2550 -0.0447
  199POPC   C1A 2754   1.071   4.231   4.637  0.0440  0.3678  0.3951
  199POPC   D2A 2755   1.275   4.383   4.974 -0.1857 -0.3334 -0.0909
  199POPC   C3A 2756   1.106   4.429   5.487 -0.1723 -0.1892 -0.0021
  199POPC   C4A 2757   1.192   4.762   5.739 -0.0323 -0.3574 -0.2336
  199POPC   C1B 2758   1.020   3.754   4.726  0.0221 -0.2031  0.2991
  199POPC   C2B 2759   1.057   3.653   5.207 -0.3991  0.3237  0.3258
  199POPC   C3B 2760   0.918   3.810   5.683 -0.1349 -0.1493  0.3504
  199POPC   C4B 2761   0.670   4.050   5.958 -0.0715  0.0390 -0.0137
  200POPC   NC3 2762   6.120   3.249   4.127  0.2640  0.2874 -0.2369
  200POPC   PO4 2763   6.434   3.296   4.513 -0.1321  0.0077 -0.2326
  200POPC   GL1 2764   6.577   3.428   4.930  0.1883 -0.1379 -0.1300
  200POPC   GL2 2765   6.901   3.331   4.849 -0.2556  0.1849 -0.0105
  200POPC   C1A 2766   6.252   3.567   5.242 -0.0007 -0.0955  0.3581
  200POPC   D2A 2767   6.032   3.567   5.695 -0.2760 -0.1134  0.2740
  200POPC   C3A 2768   6.145   3.944   5.879  0.0110 -0.0418  0.3320
  200POPC   C4A 2769   6.207   4.412   6.078 -0.0433 -0.1049 -0.0723
  200POPC   C1B 2770   7.209   3.463   5.166  0.1297 -0.2119  0.0123
  200POPC   C2B 2771   7.146   3.663   5.563 -0.2534  0.2192  0.0281
  200POPC   C3B 2772   7.295   3.960   5.817  0.1329 -0.2642  0.1001
  200POPC   C4B 2773   7.758   4.044   5.810 -0.1434 -0.0063  0.0037
  201POPC   NC3 2774   3.258   1.045   3.731 -0.0008  0.1111 -0.1857
  201POPC   PO4 2775   3.033   1.340   3.741  0.0508 -0.1855  0.1790
  201POPC   GL1 2776   2.834   1.766   3.926 -0.2240  0.1536 -0.3824
  201POPC   GL2 2777   2.530   1.931   3.849  0.1342  0.4510 -0.0722
  201POPC   C1A 2778   2.813   1.765   4.344 -0.0360  0.3324 -0.4301
  201POPC   D2A 2779   2.850   1.524   4.716 -0.1693 -0.0727 -0.0598
  201POPC   C3A 2780   2.907   1.789   5.046 -0.1973  0.1290  0.1170
  201POPC   C4A 2781   3.035   1.775   5.568  0.4415  0.0211 -0.0194
  201POPC   C1B 2782   2.286   1.791   4.224  0.1075 -0.0307  0.0632
  201POPC   C2B 2783   2.233   1.777   4.691  0.1636  0.1907  0.2645
  201POPC   C3B 2784   2.408   1.435   4.942  0.3257 -0.2496  0.1604
  201POPC   C4B 2785   2.829   1.228   5.243  0.1517 -0.0880 -0.2115
  202POPC   NC3 2786   0.258   4.932   4.299  0.2011 -0.1873 -0.1234
  202POPC   PO4 2787   0.758   5.092   4.111 -0.1202 -0.0662  0.1114
  202POPC   GL1 2788   0.800   4.964   4.581  0.0273  0.1106 -0.1451
  202POPC   GL2 2789   0.525   4.843   4.675 -0.1702  0.1973  0.0934
  202POPC   C1A 2790   0.856   4.545   4.907  0.0616 -0.1927  0.0918
  202POPC   D2A 2791   0.877   4.103   5.144  0.1009  0.3380 -0.0120
  202POPC   C3A 2792   0.543   4.195   5.458 -0.0999 -0.1911 -0.3907
  202POPC   C4A 2793   0.179   4.497   5.631  0.0179  0.0376 -0.2802
  202POPC   C1B 2794   0.302   4.705   4.917  0.2191  0.0022 -0.0962
  202POPC   C2B 2795   0.456   4.666   5.253  0.0186 -0.0663 -0.5380
  202POPC   C3B 2796   0.709   4.776   5.562 -0.0505  0.2146  0.1232
  202POPC   C4B 2797   0.724   4.591   5.906 -0.1981 -0.0420  0.1199
  203POPC   NC3 2798   6.798   3.611   4.410  0.1493  0.0681  0.0882
  203POPC   PO4 2799   7.205   3.427   4.260  0.1142  0.0157  0.1849
  203POPC   GL1 2800   7.349   3.615   4.616 -0.0024  0.0750  0.2280
  203POPC   GL2 2801   7.411   3.287   4.688  0.1682 -0.0026  0.0461
  203POPC   C1A 2802   7.529   3.835   4.859 -0.3561 -0.2756  0.1168
  203POPC   D2A 2803   7.624   3.819   5.312 -0.0041  0.0657 -0.1856
  203POPC   C3A 2804   7.626   3.514   5.479 -0.2278 -0.2390 -0.2571
  203POPC   C4A 2805   8.023   3.376   5.315  0.1665  0.2657  0.1343
  203POPC   C1B 2806   7.652   3.341   4.922  0.2831  0.1248 -0.1644
  203POPC   C2B 2807   7.598   3.009   5.245 -0.3426  0.0404  0.2331
  203POPC   C3B 2808   7.585   3.076   5.745  0.1342  0.2418  0.0074
  203POPC   C4B 2809   7.634   2.998   6.205 -0.0327 -0.0665  0.1559
  204POPC   NC3 2810   8.719   6.872   4.522 -0.1814 -0.1202  0.2858
  204POPC   PO4 2811   9.150   7.037   4.541  0.0507  0.0371  0.0824
  204POPC   GL1 2812   9.335   7.259   4.898 -0.1601 -0.2559 -0.0155
  204POPC   GL2 2813   8.973   7.349   4.941 -0.0901  0.1491  0.0365
  204POPC   C1A 2814   9.669   7.272   5.124  0.1606 -0.0676 -0.2172
  204POPC   D2A 2815   9.979   7.474   5.422  0.0453 -0.4085 -0.1859
  204POPC   C3A 2816   9.977   7.318   5.874  0.1871 -0.2779  0.1042
  204POPC   C4A 2817  10.107   7.140   6.194  0.0770  0.1672  0.0054
  204POPC   C1B 2818   9.175   7.491   5.336  0.2432  0.1567 -0.1307
  204POPC   C2B 2819   9.532   7.496   5.666  0.2323 -0.4667 -0.0897
  204POPC   C3B 2820   9.487   7.437   6.055 -0.0898  0.2982 -0.2274
  204POPC   C4B 2821   9.582   7.386   6.551  0.3063 -0.0627 -0.0200
  205POPC   NC3 2822   9.395   6.745   4.249  0.1850  0.0668 -0.5027
  205POPC   PO4 2823   8.936   6.494   4.252 -0.1077 -0.3652 -0.0024
  205POPC   GL1 2824   9.068   6.543   4.732 -0.0173 -0.2402 -0.1596
  205POPC   GL2 2825   9.410   6.244   4.676  0.0881 -0.2210  0.0661
  205POPC   C1A 2826   9.021   6.713   5.101 -0.0209 -0.3928 -0.0874
  205POPC   D2A 2827   8.874   6.561   5.499  0.0390  0.0658 -0.2481
  205POPC   C3A 2828   8.582   6.188   5.308  0.1708 -0.1306  0.1730
  205POPC   C4A 2829   8.398   6.096   4.934  0.0321  0.2310 -0.0255
  205POPC   C1B 2830   9.417   6.369   5.141 -0.2378  0.1387  0.3455
  205POPC   C2B 2831   9.717   6.721   5.286  0.0487 -0.2108 -0.0611
  205POPC   C3B 2832   9.758   6.890   5.691  0.0570 -0.2380 -0.3749
  205POPC   C4B 2833   9.680   6.965   6.268 -0.1497 -0.0169  0.0185
  206POPC   NC3 2834   7.105   0.076   4.832  0.2076  0.3245  0.2164
  206POPC   PO4 2835   6.804   0.298   4.880 -0.1303 -0.0025  0.0478
  206POPC   GL1 2836   6.956   0.406   5.264  0.0800 -0.2465  0.0002
  206POPC   GL2 2837   6.719   0.474   5.576  0.1002  0.1017 -0.1350
  206POPC   C1A 2838   7.157   0.578   5.739 -0.0763 -0.0336  0.0794
  206POPC   D2A 2839   7.013   0.628   6.147  0.1343 -0.4230  0.3440
  206POPC   C3A 2840   6.865   0.233   6.401 -0.0069  0.1509 -0.0099
  206POPC   C4A 2841   6.535  -0.046   6.271  0.2091  0.0424 -0.0547
  206POPC   C1B 2842   7.047   0.112   5.695  0.0560  0.1744  0.1583
  206POPC   C2B 2843   7.189  -0.164   5.984  0.1662 -0.1667  0.0638
  206POPC   C3B 2844   7.162  -0.622   6.126  0.3108  0.0984 -0.1950
  206POPC   C4B 2845   7.216  -1.060   6.087 -0.0738  0.1776  0.0195
  207POPC   NC3 2846   9.137   4.464   3.636  0.1796 -0.0813  0.2632
  207POPC   PO4 2847   9.065   4.653   4.015 -0.0645 -0.1021 -0.0034
  207POPC   GL1 2848   8.999   4.738   4.374  0.0550 -0.0575  0.2342
  207POPC   GL2 2849   8.827   4.564   4.598 -0.0496  0.4593  0.0001
  207POPC   C1A 2850   8.988   4.932   4.837 -0.2469  0.0114  0.2513
  207POPC   D2A 2851   8.827   5.071   5.190 -0.1711 -0.3083 -0.0675
  207POPC   C3A 2852   8.759   5.142   5.650  0.1155 -0.2588  0.0260
  207POPC   C4A 2853   8.727   5.082   6.095  0.1065 -0.0408  0.0791
  207POPC   C1B 2854   9.055   4.298   4.859 -0.0156  0.1695  0.2879
  207POPC   C2B 2855   9.094   3.941   5.108 -0.1642 -0.0064 -0.5413
  207POPC   C3B 2856   9.026   3.946   5.682  0.1324 -0.1487  0.2520
  207POPC   C4B 2857   8.922   4.317   5.904 -0.1092  0.2587 -0.0424
  208POPC   NC3 2858   7.470   4.765   4.530  0.1023 -0.0319 -0.0890
  208POPC   PO4 2859   7.066   4.576   4.389  0.0589 -0.2413  0.1056
  208POPC   GL1 2860   6.988   4.860   4.732 -0.2375 -0.0025 -0.0064
  208POPC   GL2 2861   6.838   5.129   4.683  0.1823  0.0647  0.1258
  208POPC   C1A 2862   6.980   4.857   5.173  0.1577 -0.1901  0.0288
  208POPC   D2A 2863   7.042   4.832   5.574  0.0377 -0.2798 -0.3851
  208POPC   C3A 2864   6.875   5.145   5.848  0.3720 -0.0614  0.1349
  208POPC   C4A 2865   6.951   5.219   6.238  0.0331  0.1389  0.1720
  208POPC   C1B 2866   6.559   5.152   5.058  0.5446 -0.3994 -0.1788
  208POPC   C2B 2867   6.522   4.897   5.418  0.0072 -0.4556 -0.1642
  208POPC   C3B 2868   6.282   4.520   5.557  0.1365  0.2656  0.2936
  208POPC   C4B 2869   6.515   4.125   5.605  0.2703  0.0603 -0.1517
  209POPC   NC3 2870   4.658   0.280   4.536  0.2020 -0.0521  0.0313
  209POPC   PO4 2871   4.594   0.756   4.680 -0.1278  0.0184  0.0983
  209POPC   GL1 2872   4.291   0.769   5.012 -0.1377 -0.0391  0.0031
  209POPC   GL2 2873   4.013   0.923   5.139 -0.1221 -0.0552  0.0196
  209POPC   C1A 2874   4.379   0.860   5.460  0.2920  0.2532  0.2076
  209POPC   D2A 2875   4.662   0.824   5.757  0.4584  0.2279  0.1351
  209POPC   C3A 2876   4.761   0.495   6.004 -0.1004  0.1700  0.0271
  209POPC   C4A 2877   4.442   0.348   6.314  0.3606 -0.1423  0.1375
  209POPC   C1B 2878   3.854   0.761   5.604 -0.1308 -0.2686 -0.1607
  209POPC   C2B 2879   3.508   0.483   5.838 -0.0550  0.0497  0.0133
  209POPC   C3B 2880   3.029   0.493   6.114  0.1376  0.1954 -0.2886
  209POPC   C4B 2881   2.772   0.530   6.515 -0.1849  0.3630 -0.1999
  210POPC   NC3 2882   8.869   5.964   4.101 -0.0904  0.0095 -0.2661
  210POPC   PO4 2883   8.505   5.818   4.408 -0.1054 -0.2455 -0.1754
  210POPC   GL1 2884   8.693   5.705   4.946  0.2266 -0.1000 -0.0596
  210POPC   GL2 2885   8.781   5.371   4.793 -0.2727  0.3642  0.0941
  210POPC   C1A 2886   8.712   5.573   5.402 -0.2765  0.0365  0.1496
  210POPC   D2A 2887   8.411   5.626   5.776  0.2555  0.1169  0.1076
  210POPC   C3A 2888   8.179   5.997   5.990 -0.1334  0.0038 -0.0705
  210POPC   C4A 2889   8.345   6.395   6.241 -0.1464  0.1843 -0.3089
  210POPC   C1B 2890   9.106   5.558   5.095  0.5435 -0.2587  0.0439
  210POPC   C2B 2891   9.197   5.499   5.501 -0.2427 -0.2885 -0.1721
  210POPC   C3B 2892   9.092   5.505   5.931 -0.0455  0.0535 -0.4334
  210POPC   C4B 2893   9.219   5.851   6.297 -0.1757 -0.0136 -0.1020
  211POPC   NC3 2894   0.613   5.774   4.157  0.2588  0.0780 -0.0672
  211POPC   PO4 2895   0.314   6.148   4.080  0.2317 -0.3179  0.0398
  211POPC   GL1 2896   0.161   6.259   4.412 -0.0396  0.2020  0.1788
  211POPC   GL2 2897   0.455   6.003   4.570 -0.5690 -0.2180 -0.0801
  211POPC   C1A 2898   0.161   6.267   4.894  0.0207 -0.0683  0.1418
  211POPC   D2A 2899   0.139   6.211   5.231  0.1313 -0.1218 -0.1742
  211POPC   C3A 2900   0.160   5.975   5.499 -0.1915  0.0131 -0.1126
  211POPC   C4A 2901   0.259   5.636   5.771  0.0789 -0.0993 -0.0277
  211POPC   C1B 2902   0.270   5.783   4.982  0.0447 -0.0717 -0.2143
  211POPC   C2B 2903   0.060   5.515   5.232 -0.2140 -0.2412 -0.0292
  211POPC   C3B 2904  -0.278   5.170   5.043  0.2641  0.0143 -0.0175
  211POPC   C4B 2905  -0.055   4.767   5.257  0.3343 -0.0219 -0.0304
  212POPC   NC3 2906   4.857   4.742   4.377 -0.0752 -0.2378 -0.0587
  212POPC   PO4 2907   4.563   4.874   4.447 -0.3234  0.1078 -0.0272
  212POPC   GL1 2908   4.638   5.030   4.857  0.0365 -0.1916  0.2687
  212POPC   GL2 2909   4.596   5.336   4.772 -0.0229  0.2173  0.1813
  212POPC   C1A 2910   5.021   5.422   4.988  0.1121  0.0224 -0.0872
  212POPC   D2A 2911   5.376   5.192   5.137  0.0107 -0.3903 -0.0461
  212POPC   C3A 2912   5.548   5.114   5.642  0.3513 -0.1715  0.2143
  212POPC   C4A 2913   5.453   5.055   6.160  0.1096  0.0676 -0.1463
  212POPC   C1B 2914   4.549   5.261   5.257 -0.1484  0.0761 -0.0514
  212POPC   C2B 2915   4.603   5.098   5.680  0.3039  0.0243  0.0075
  212POPC   C3B 2916   4.621   5.112   6.110 -0.0987  0.3823 -0.1563
  212POPC   C4B 2917   4.516   4.856   6.412 -0.3110  0.3721 -0.1528
  213POPC   NC3 2918   8.668   1.705   3.578  0.0954  0.1571  0.1609
  213POPC   PO4 2919   8.215   1.961   3.593  0.3146  0.1556  0.1909
  213POPC   GL1 2920   8.323   2.065   3.963  0.2385 -0.0098 -0.0575
  213POPC   GL2 2921   8.074   2.131   4.285 -0.1536 -0.0278  0.1461
  213POPC   C1A 2922   8.521   1.925   4.353 -0.1151  0.0211 -0.0815
  213POPC   D2A 2923   8.472   1.591   4.718  0.0522 -0.1125 -0.1602
  213POPC   C3A 2924   8.842   1.587   4.928 -0.3102 -0.1773 -0.0028
  213POPC   C4A 2925   9.255   1.514   4.936 -0.0958 -0.1784  0.0362
  213POPC   C1B 2926   7.793   2.340   4.770 -0.1199 -0.4741  0.0654
  213POPC   C2B 2927   7.850   2.343   5.228  0.0855 -0.0130 -0.1811
  213POPC   C3B 2928   7.820   2.127   5.567 -0.2431 -0.1146  0.1700
  213POPC   C4B 2929   7.570   1.874   5.755  0.1318  0.1534 -0.0191
  214POPC   NC3 2930   0.007   4.241   4.011 -0.1648  0.0869  0.0424
  214POPC   PO4 2931   0.261   4.087   3.852  0.1590  0.1311 -0.2520
  214POPC   GL1 2932   0.464   4.126   4.270 -0.2136 -0.1286 -0.0764
  214POPC   GL2 2933   0.587   4.384   4.504 -0.1109  0.1455 -0.1430
  214POPC   C1A 2934   0.564   3.697   4.525  0.0074 -0.0963 -0.0278
  214POPC   D2A 2935   0.631   3.541   4.883  0.1912 -0.2518 -0.0424
  214POPC   C3A 2936   0.532   3.692   5.308  0.0069 -0.0749 -0.2415
  214POPC   C4A 2937   0.290   3.871   5.733 -0.0261 -0.0861 -0.0185
  214POPC   C1B 2938   0.452   4.140   4.940 -0.0656 -0.1160  0.0503
  214POPC   C2B 2939   0.161   3.951   5.125 -0.1491  0.3488  0.0434
  214POPC   C3B 2940   0.032   3.541   5.283 -0.0077  0.2294 -0.1789
  214POPC   C4B 2941  -0.152   3.445   5.692 -0.1646 -0.2402 -0.0659
  215POPC   NC3 2942   6.361   9.021   4.317  0.1056 -0.2624 -0.1292
  215POPC   PO4 2943   6.031   8.872   4.469  0.0428  0.1103  0.0533
  215POPC   GL1 2944   6.002   8.719   4.789  0.1911 -0.1134 -0.0821
  215POPC   GL2 2945   5.786   8.545   4.826  0.1753 -0.1271 -0.3302
  215POPC   C1A 2946   6.088   8.749   5.255  0.1188 -0.0649  0.1995
  215POPC   D2A 2947   6.022   9.000   5.615 -0.0225  0.2118 -0.0164
  215POPC   C3A 2948   6.320   8.887   5.795 -0.2485  0.2591  0.0432
  215POPC   C4A 2949   6.751   8.876   5.856 -0.2140 -0.0683 -0.2159
  215POPC   C1B 2950   5.894   8.335   5.103 -0.0201  0.0400 -0.0976
  215POPC   C2B 2951   6.133   8.423   5.622 -0.2769  0.0262  0.1280
  215POPC   C3B 2952   6.428   8.407   5.974 -0.2202 -0.4165  0.0208
  215POPC   C4B 2953   6.784   8.583   6.266  0.0148 -0.3219  0.1193
  216POPC   NC3 2954   6.180   5.406   4.088  0.3606  0.1980 -0.2496
  216POPC   PO4 2955   6.393   5.484   4.407 -0.1664  0.2812  0.1327
  216POPC   GL1 2956   6.632   5.660   4.821 -0.1884 -0.1602  0.1413
  216POPC   GL2 2957   7.014   5.551   4.883 -0.2583  0.1995  0.0837
  216POPC   C1A 2958   6.781   6.006   5.062 -0.0178  0.1195  0.0073
  216POPC   D2A 2959   6.750   6.342   5.403 -0.1680  0.0092 -0.1850
  216POPC   C3A 2960   6.838   6.678   5.236  0.1398  0.0312  0.0487
  216POPC   C4A 2961   6.703   7.010   4.942 -0.0372 -0.1561 -0.1471
  216POPC   C1B 2962   7.372   5.607   5.180  0.1670  0.0107 -0.0885
  216POPC   C2B 2963   7.724   5.657   5.536  0.1345 -0.0398 -0.0702
  216POPC   C3B 2964   7.825   5.671   5.910  0.1343 -0.2055 -0.0446
  216POPC   C4B 2965   7.938   5.721   6.346  0.0632  0.2475 -0.1168
  217POPC   NC3 2966   3.757   4.875   4.407 -0.3859  0.5128 -0.0279
  217POPC   PO4 2967   3.818   4.359   4.500 -0.1531 -0.2017  0.0541
  217POPC   GL1 2968   3.658   4.549   4.853 -0.2674  0.0145  0.2676
  217POPC   GL2 2969   3.713   4.860   4.906  0.2140  0.0394  0.0151
  217POPC   C1A 2970   3.763   4.585   5.359  0.2239 -0.0630 -0.1130
  217POPC   D2A 2971   3.620   4.755   5.717 -0.0862 -0.4317  0.2106
  217POPC   C3A 2972   3.480   4.565   6.105  0.0656 -0.1182 -0.3482
  217POPC   C4A 2973   3.297   4.379   6.250  0.2508 -0.0949  0.1144
  217POPC   C1B 2974   3.461   4.959   5.316  0.2610  0.0148 -0.0665
  217POPC   C2B 2975   3.525   5.241   5.724 -0.0206  0.0376  0.1295
  217POPC   C3B 2976   3.320   5.463   6.026  0.0426  0.1966  0.2620
  217POPC   C4B 2977   3.081   5.717   6.126 -0.3321 -0.0530  0.2571
  218POPC   NC3 2978   4.147   9.293   4.496  0.3275  0.0586  0.1062
  218POPC   PO4 2979   3.890   9.424   4.184 -0.1761 -0.0398  0.1813
  218POPC   GL1 2980   3.570   9.459   4.415 -0.0338 -0.0176  0.2321
  218POPC   GL2 2981   3.260   9.169   4.392  0.0700 -0.3688 -0.0983
  218POPC   C1A 2982   3.583   9.654   4.785  0.1582 -0.0040  0.1800
  218POPC   D2A 2983   3.637  10.116   4.852  0.2327 -0.0815  0.4509
  218POPC   C3A 2984   3.296  10.124   4.749  0.0960  0.3754  0.0348
  218POPC   C4A 2985   2.965  10.422   4.533  0.1720  0.0545 -0.0341
  218POPC   C1B 2986   3.287   9.229   4.959 -0.0186 -0.0100  0.1657
  218POPC   C2B 2987   3.478   9.365   5.312 -0.0661 -0.1555 -0.0784
  218POPC   C3B 2988   3.602   9.346   5.781 -0.2879  0.3122 -0.1832
  218POPC   C4B 2989   3.298   9.178   6.136 -0.3400  0.1133 -0.2634
  219POPC   NC3 2990   0.559   2.225   3.527 -0.2205  0.1038  0.3819
  219POPC   PO4 2991   0.951   2.394   3.419  0.0529 -0.0817 -0.0581
  219POPC   GL1 2992   1.061   2.044   3.668 -0.1397  0.0251  0.3518
  219POPC   GL2 2993   1.393   2.126   3.853  0.0163 -0.1372 -0.1920
  219POPC   C1A 2994   1.202   1.676   3.846  0.1188  0.0517 -0.0298
  219POPC   D2A 2995   1.498   1.359   3.969  0.1845  0.0131  0.0404
  219POPC   C3A 2996   1.851   1.427   4.295 -0.1410 -0.0277  0.0222
  219POPC   C4A 2997   2.011   1.231   4.626 -0.0518 -0.3375  0.1000
  219POPC   C1B 2998   1.414   2.447   4.233  0.3090 -0.2320 -0.0651
  219POPC   C2B 2999   1.610   2.549   4.663  0.0608 -0.0460  0.1403
  219POPC   C3B 3000   1.901   2.743   4.864  0.0117 -0.0012  0.3134
  219POPC   C4B 3001   1.877   3.107   5.128  0.1085 -0.0436 -0.0768
  220POPC   NC3 3002   3.659   8.920   4.439 -0.1537 -0.2487  0.0968
  220POPC   PO4 3003   3.287   8.685   4.237  0.1117 -0.0015 -0.0299
  220POPC   GL1 3004   3.498   8.515   4.691  0.0802  0.1504  0.0228
  220POPC   GL2 3005   3.535   8.711   4.950  0.2006 -0.0623 -0.0121
  220POPC   C1A 3006   3.339   8.221   4.983 -0.1331  0.1397 -0.0765
  220POPC   D2A 3007   3.415   8.230   5.370 -0.2595  0.1243 -0.1557
  220POPC   C3A 3008   3.228   8.367   5.695 -0.2056  0.3151 -0.3208
  220POPC   C4A 3009   3.175   8.647   5.985  0.1205 -0.0600  0.1890
  220POPC   C1B 3010   3.231   8.727   5.202  0.1954 -0.0319 -0.2362
  220POPC   C2B 3011   2.845   8.694   5.497 -0.0902 -0.0444  0.0306
  220POPC   C3B 3012   2.669   8.639   5.805  0.0500  0.0645 -0.0394
  220POPC   C4B 3013   2.425   8.607   6.201 -0.0867 -0.1496  0.5095
  221POPC   NC3 3014   8.523   3.208   3.861  0.1949  0.3209 -0.0676
  221POPC   PO4 3015   8.606   2.885   4.093  0.1271 -0.0238 -0.0402
  221POPC   GL1 3016   8.894   2.869   4.437 -0.3266 -0.1087  0.1234
  221POPC   GL2 3017   9.202   2.894   4.404  0.1454  0.0982  0.0585
  221POPC   C1A 3018   9.063   2.971   4.885  0.2060  0.0600  0.0013
  221POPC   D2A 3019   9.073   2.718   5.221  0.0390 -0.3359  0.0060
  221POPC   C3A 3020   9.137   2.288   5.173 -0.1439 -0.1702  0.3627
  221POPC   C4A 3021   9.127   1.965   5.365 -0.1173  0.1124 -0.0503
  221POPC   C1B 3022   9.452   2.646   4.759  0.0375  0.2330  0.0658
  221POPC   C2B 3023   9.548   2.623   5.150  0.2532  0.3027  0.0108
  221POPC   C3B 3024   9.360   2.568   5.607  0.0701 -0.0879 -0.1313
  221POPC   C4B 3025   9.323   2.212   5.941 -0.0910 -0.0280  0.0742
  222POPC   NC3 3026   4.993   2.840   4.512  0.1096  0.0888 -0.0869
  222POPC   PO4 3027   5.177   3.134   4.415 -0.1099 -0.1609  0.0360
  222POPC   GL1 3028   5.180   3.165   4.874  0.0689 -0.0673  0.4214
  222POPC   GL2 3029   5.346   3.404   5.004 -0.1294 -0.1139  0.1592
  222POPC   C1A 3030   5.163   2.845   5.192  0.0012  0.1551 -0.0370
  222POPC   D2A 3031   4.837   2.647   5.498 -0.1078  0.4423 -0.1157
  222POPC   C3A 3032   5.003   2.499   5.826 -0.2017 -0.1552 -0.0593
  222POPC   C4A 3033   5.429   2.458   5.893  0.0586  0.1825 -0.1099
  222POPC   C1B 3034   5.147   3.571   5.302  0.0673 -0.0919 -0.1040
  222POPC   C2B 3035   4.906   3.613   5.659 -0.4282 -0.1279  0.6854
  222POPC   C3B 3036   4.621   3.400   5.844  0.1534 -0.2163 -0.0360
  222POPC   C4B 3037   4.407   3.408   6.125  0.3771 -0.2400 -0.2005
  223POPC   NC3 3038   7.911   7.808   4.633 -0.2713 -0.0311  0.1308
  223POPC   PO4 3039   8.130   7.535   4.669 -0.2512 -0.0060  0.0673
  223POPC   GL1 3040   8.502   7.472   4.804  0.0434 -0.1674  0.1894
  223POPC   GL2 3041   8.464   7.678   4.969 -0.0055 -0.2351 -0.0128
  223POPC   C1A 3042   8.505   7.174   5.075 -0.1465  0.0255  0.2668
  223POPC   D2A 3043   8.711   7.103   5.349 -0.1641 -0.1285 -0.0590
  223POPC   C3A 3044   8.561   6.941   5.737  0.0073  0.1444  0.1359
  223POPC   C4A 3045   8.324   6.955   6.033  0.1435 -0.0063 -0.1996
  223POPC   C1B 3046   8.606   7.578   5.321 -0.0179 -0.1321 -0.3297
  223POPC   C2B 3047   8.708   7.503   5.703  0.3297 -0.3421  0.2634
  223POPC   C3B 3048   9.018   7.185   5.732  0.1988 -0.1961 -0.1166
  223POPC   C4B 3049   9.291   6.998   5.450 -0.2688 -0.2804  0.0325
  224POPC   NC3 3050   9.463   0.591   3.684 -0.0604  0.1712  0.0134
  224POPC   PO4 3051   9.231   0.527   4.015 -0.1076  0.0341  0.0189
  224POPC   GL1 3052   9.067   0.717   4.346 -0.3297  0.0304 -0.0165
  224POPC   GL2 3053   9.098   0.565   4.652  0.0414  0.1217  0.0217
  224POPC   C1A 3054   9.271   1.011   4.620  0.1402  0.1037 -0.1083
  224POPC   D2A 3055   9.384   0.937   5.113  0.2270  0.0457  0.0626
  224POPC   C3A 3056   9.472   1.200   5.495 -0.1788 -0.2230  0.3033
  224POPC   C4A 3057   9.424   1.643   5.670 -0.0621 -0.0823  0.2042
  224POPC   C1B 3058   9.097   0.437   5.057 -0.0250  0.0160 -0.0999
  224POPC   C2B 3059   9.409   0.444   5.406  0.1013  0.1741 -0.1922
  224POPC   C3B 3060   9.467   0.307   5.801 -0.0347 -0.0506 -0.4428
  224POPC   C4B 3061   9.820   0.355   6.127  0.3858 -0.1165 -0.1679
  225POPC   NC3 3062   4.200   1.752   3.578 -0.3263 -0.1454 -0.0330
  225POPC   PO4 3063   3.890   1.728   4.004  0.1008  0.0829  0.1572
  225POPC   GL1 3064   3.613   1.747   4.294  0.5437 -0.0107 -0.2780
  225POPC   GL2 3065   3.283   1.969   4.354 -0.0391  0.0203 -0.1047
  225POPC   C1A 3066   3.345   1.599   4.679 -0.1892 -0.1163 -0.2494
  225POPC   D2A 3067   3.138   1.114   4.813 -0.0600  0.0662 -0.0040
  225POPC   C3A 3068   3.496   0.869   4.954 -0.0706 -0.5478  0.1556
  225POPC   C4A 3069   3.558   0.539   5.344 -0.1952  0.2625  0.1716
  225POPC   C1B 3070   3.288   2.110   4.812 -0.0397 -0.3820  0.1304
  225POPC   C2B 3071   3.056   2.214   5.280  0.2122  0.0892 -0.2622
  225POPC   C3B 3072   3.298   2.250   5.621 -0.0572  0.0784 -0.2537
  225POPC   C4B 3073   3.285   1.882   5.990 -0.4393  0.2448 -0.0808
  226POPC   NC3 3074   4.068   0.966   4.153  0.1261  0.1024  0.0708
  226POPC   PO4 3075   3.804   0.943   3.793 -0.1924  0.2016  0.1241
  226POPC   GL1 3076   3.575   0.825   4.055  0.1771 -0.2159 -0.3917
  226POPC   GL2 3077   3.619   0.860   4.279  0.0759  0.2535 -0.0970
  226POPC   C1A 3078   3.304   0.464   4.162 -0.0822 -0.1535  0.1256
  226POPC   D2A 3079   3.231   0.060   4.329 -0.0427  0.0097  0.1758
  226POPC   C3A 3080   3.060  -0.028   4.655 -0.3362  0.4162  0.0860
  226POPC   C4A 3081   3.165  -0.055   5.067  0.1663 -0.3711  0.0372
  226POPC   C1B 3082   3.548   1.161   4.556 -0.0870  0.1875 -0.1379
  226POPC   C2B 3083   3.760   1.377   5.029  0.0835 -0.2034 -0.0539
  226POPC   C3B 3084   3.763   1.281   5.483  0.0761  0.0416 -0.2464
  226POPC   C4B 3085   3.686   1.090   6.017 -0.1255 -0.0800  0.0824
  227POPC   NC3 3086   4.876   2.024   4.530  0.0150  0.2508  0.0889
  227POPC   PO4 3087   4.685   2.425   4.641 -0.3847 -0.1657 -0.1133
  227POPC   GL1 3088   4.440   2.275   5.023 -0.1344  0.1581  0.1422
  227POPC   GL2 3089   4.060   2.253   4.954 -0.2043 -0.0791 -0.2423
  227POPC   C1A 3090   4.210   2.357   5.447 -0.0523  0.2959 -0.1948
  227POPC   D2A 3091   4.031   2.512   5.923  0.0237 -0.2787  0.2202
  227POPC   C3A 3092   4.104   3.005   6.187 -0.1128 -0.1787 -0.1158
  227POPC   C4A 3093   4.291   3.109   6.605  0.0209  0.0067 -0.0372
  227POPC   C1B 3094   3.648   2.201   5.128 -0.0361  0.3659 -0.2395
  227POPC   C2B 3095   3.400   1.806   5.189 -0.2757  0.0885 -0.0458
  227POPC   C3B 3096   3.295   1.412   5.283  0.3476 -0.0601 -0.0243
  227POPC   C4B 3097   3.262   0.938   5.427 -0.1359 -0.0025 -0.2797
  228POPC   NC3 3098   7.179   0.779   4.992  0.1437  0.2088 -0.3118
  228POPC   PO4 3099   7.564   0.934   4.840 -0.0267  0.3349  0.0403
  228POPC   GL1 3100   7.736   0.790   5.114 -0.2265 -0.4015 -0.0366
  228POPC   GL2 3101   7.537   0.682   5.445 -0.1658  0.0564 -0.0218
  228POPC   C1A 3102   7.956   1.085   5.355 -0.4311 -0.0461 -0.2698
  228POPC   D2A 3103   8.131   1.193   5.810 -0.2129  0.0665 -0.2456
  228POPC   C3A 3104   8.380   1.003   6.097 -0.1309  0.2669 -0.0112
  228POPC   C4A 3105   8.533   0.587   6.363  0.0501 -0.0842 -0.0187
  228POPC   C1B 3106   7.829   0.731   5.759  0.4195 -0.3366  0.0168
  228POPC   C2B 3107   8.088   0.572   6.051 -0.2157  0.1171 -0.1594
  228POPC   C3B 3108   8.172   0.207   6.242  0.3089  0.1096  0.0427
  228POPC   C4B 3109   8.269  -0.189   6.546  0.0644  0.3257  0.3494
  229POPC   NC3 3110   5.585   1.416   4.993  0.1126 -0.0880 -0.1276
  229POPC   PO4 3111   6.006   1.549   4.972 -0.0993 -0.1618 -0.1570
  229POPC   GL1 3112   6.225   1.643   5.331 -0.2274 -0.2054  0.0036
  229POPC   GL2 3113   6.165   1.974   5.340  0.0318 -0.0500  0.1872
  229POPC   C1A 3114   6.297   1.368   5.746  0.0348  0.1530  0.3097
  229POPC   D2A 3115   6.338   1.173   6.192  0.1282 -0.2794  0.0989
  229POPC   C3A 3116   6.087   0.906   6.473 -0.1220 -0.2964 -0.1940
  229POPC   C4A 3117   5.935   0.559   6.672 -0.1074  0.0223 -0.0096
  229POPC   C1B 3118   6.168   1.933   5.772  0.1436 -0.0824  0.1274
  229POPC   C2B 3119   6.263   1.742   6.161  0.0529  0.2058  0.0517
  229POPC   C3B 3120   5.953   1.895   6.556  0.2472 -0.0819  0.3189
  229POPC   C4B 3121   5.719   1.942   6.923 -0.0666  0.2265  0.3783
  230POPC   NC3 3122   2.450   8.691   3.696  0.2188 -0.3784  0.3865
  230POPC   PO4 3123   2.776   8.672   3.997  0.2624 -0.2143 -0.0600
  230POPC   GL1 3124   2.865   9.005   4.220 -0.0572 -0.3100 -0.0450
  230POPC   GL2 3125   2.922   8.820   4.549 -0.1756  0.0905  0.1108
  230POPC   C1A 3126   2.821   9.266   4.590 -0.1535 -0.3065  0.2100
  230POPC   D2A 3127   2.667   9.470   5.036  0.2162  0.2578  0.1945
  230POPC   C3A 3128   2.785   9.654   5.416 -0.0560 -0.0244  0.1797
  230POPC   C4A 3129   2.954  10.081   5.490 -0.1289  0.1985 -0.1318
  230POPC   C1B 3130   2.793   8.981   4.966  0.0793  0.3058  0.0318
  230POPC   C2B 3131   2.344   9.061   5.232  0.2196  0.3668 -0.1647
  230POPC   C3B 3132   2.026   9.028   5.450  0.0817 -0.1961  0.0267
  230POPC   C4B 3133   1.703   8.860   5.495  0.1285  0.0020 -0.1736
  231POPC   NC3 3134   6.565   4.662   4.322 -0.2327 -0.2732 -0.0339
  231POPC   PO4 3135   6.237   4.768   4.239 -0.0378  0.0944  0.1636
  231POPC   GL1 3136   6.020   4.653   4.624  0.0718  0.2048  0.1783
  231POPC   GL2 3137   5.826   4.837   4.797  0.2844  0.0690  0.0177
  231POPC   C1A 3138   6.137   4.298   5.007 -0.0887  0.1416 -0.2679
  231POPC   D2A 3139   6.098   4.028   5.374 -0.0388  0.1010  0.0554
  231POPC   C3A 3140   5.729   4.195   5.756 -0.1954  0.0570 -0.0392
  231POPC   C4A 3141   5.499   4.281   6.136 -0.1477 -0.1759 -0.0719
  231POPC   C1B 3142   5.636   4.573   5.039 -0.0716 -0.1883 -0.2935
  231POPC   C2B 3143   5.683   4.239   5.244  0.1344 -0.0911 -0.1647
  231POPC   C3B 3144   5.572   3.809   5.533 -0.3357 -0.0072 -0.4698
  231POPC   C4B 3145   5.557   3.737   6.020  0.0068  0.3066  0.2034
  232POPC   NC3 3146   9.087   2.845   3.939  0.0895 -0.1368  0.0599
  232POPC   PO4 3147   8.943   3.325   3.673 -0.1807  0.0483  0.3261
  232POPC   GL1 3148   8.880   3.297   4.181 -0.2682  0.1800  0.0176
  232POPC   GL2 3149   8.598   3.559   4.269 -0.0193 -0.0371  0.0609
  232POPC   C1A 3150   9.011   3.484   4.553  0.2081  0.0269 -0.0156
  232POPC   D2A 3151   8.926   3.443   4.971 -0.3174 -0.1149  0.1200
  232POPC   C3A 3152   9.165   3.379   5.326  0.1569 -0.0528  0.1832
  232POPC   C4A 3153   8.831   3.368   5.675  0.0421 -0.0035 -0.1827
  232POPC   C1B 3154   8.640   3.202   4.645 -0.0216  0.1621 -0.0323
  232POPC   C2B 3155   8.545   2.890   4.840  0.1562  0.0375 -0.1103
  232POPC   C3B 3156   8.587   2.523   5.225 -0.1977 -0.1560 -0.0130
  232POPC   C4B 3157   8.809   2.267   5.572  0.0958 -0.2605 -0.1142
  233POPC   NC3 3158   3.671   3.752   3.729 -0.1472  0.0216 -0.0159
  233POPC   PO4 3159   3.335   3.495   3.926  0.1275 -0.0451  0.0397
  233POPC   GL1 3160   3.238   3.537   4.318 -0.2697 -0.3104  0.0450
  233POPC   GL2 3161   2.949   3.576   4.444 -0.1697  0.1930 -0.2897
  233POPC   C1A 3162   3.295   3.335   4.723 -0.0706 -0.0788  0.1274
  233POPC   D2A 3163   3.382   3.308   5.134  0.1365 -0.2498  0.1873
  233POPC   C3A 3164   3.217   3.277   5.552  0.1234 -0.0583 -0.0617
  233POPC   C4A 3165   3.129   3.168   5.928  0.0636  0.3444  0.0138
  233POPC   C1B 3166   2.857   3.674   4.846  0.0988  0.3278 -0.0130
  233POPC   C2B 3167   2.773   3.593   5.292  0.2473 -0.0479 -0.0673
  233POPC   C3B 3168   2.758   3.555   5.670 -0.2699 -0.0431 -0.0386
  233POPC   C4B 3169   2.572   3.628   6.053 -0.0976  0.2206 -0.2024
  234POPC   NC3 3170   4.893   9.390   4.152 -0.0572 -0.1334  0.3521
  234POPC   PO4 3171   4.574   9.501   4.395  0.1202 -0.2403  0.0484
  234POPC   GL1 3172   4.565   9.381   4.718  0.0616  0.0964  0.0479
  234POPC   GL2 3173   4.357   9.293   4.920  0.3487 -0.2074 -0.1623
  234POPC   C1A 3174   4.834   9.260   5.045 -0.1830  0.0562  0.0476
  234POPC   D2A 3175   4.735   9.370   5.377 -0.0798 -0.1264 -0.3938
  234POPC   C3A 3176   4.578   9.152   5.772 -0.0204  0.0601  0.3233
  234POPC   C4A 3177   4.436   8.796   5.993 -0.1038 -0.3100  0.2679
  234POPC   C1B 3178   4.084   9.093   5.189 -0.1214  0.1331 -0.0470
  234POPC   C2B 3179   4.124   8.954   5.645 -0.0363  0.0922  0.2586
  234POPC   C3B 3180   3.981   8.934   6.059 -0.3813  0.2131  0.0733
  234POPC   C4B 3181   3.680   8.669   6.092  0.1950 -0.4086 -0.0793
  235POPC   NC3 3182   5.581   4.117   3.782  0.3314  0.1046  0.1989
  235POPC   PO4 3183   5.388   4.021   4.190  0.1859 -0.1117 -0.2055
  235POPC   GL1 3184   5.489   4.024   4.569 -0.0908 -0.0350  0.1498
  235POPC   GL2 3185   5.809   3.976   4.699 -0.1861 -0.0839 -0.0043
  235POPC   C1A 3186   5.341   3.943   5.017  0.2699 -0.1111  0.0685
  235POPC   D2A 3187   4.875   4.139   5.092 -0.1751 -0.3776 -0.3664
  235POPC   C3A 3188   4.605   3.877   5.297 -0.1393  0.2391 -0.0849
  235POPC   C4A 3189   4.340   3.765   5.640 -0.1027  0.2505  0.0556
  235POPC   C1B 3190   5.789   3.720   5.040 -0.1088  0.3925  0.1406
  235POPC   C2B 3191   5.684   3.343   5.321 -0.0178  0.0088 -0.0864
  235POPC   C3B 3192   5.344   3.392   5.710 -0.1619  0.2420  0.0094
  235POPC   C4B 3193   5.048   3.497   6.094 -0.0939 -0.1151 -0.1629
  236POPC   NC3 3194   7.443   7.874   4.153  0.1239  0.0668 -0.2281
  236POPC   PO4 3195   7.228   7.829   4.527  0.0209 -0.2561  0.0981
  236POPC   GL1 3196   7.183   7.881   4.896 -0.1162  0.0132 -0.2193
  236POPC   GL2 3197   7.486   7.997   5.048  0.1961  0.1957  0.3106
  236POPC   C1A 3198   7.158   7.811   5.395  0.0605 -0.0050  0.0335
  236POPC   D2A 3199   7.115   7.589   5.786  0.2223  0.2179  0.0492
  236POPC   C3A 3200   7.425   7.656   6.098  0.0712  0.1307  0.1052
  236POPC   C4A 3201   7.758   7.598   6.294 -0.1831  0.0345 -0.2526
  236POPC   C1B 3202   7.616   7.963   5.436 -0.1124  0.2218  0.0218
  236POPC   C2B 3203   7.402   7.988   5.759  0.0527  0.1444 -0.0505
  236POPC   C3B 3204   7.339   8.141   6.156 -0.2648 -0.1176  0.0419
  236POPC   C4B 3205   7.308   8.302   6.547 -0.0323 -0.0096 -0.1549
  237POPC   NC3 3206   2.753   9.418   3.124  0.0393 -0.0677  0.0900
  237POPC   PO4 3207   2.610   9.035   3.338  0.2075  0.0747  0.0260
  237POPC   GL1 3208   2.562   9.174   3.824  0.0124 -0.0360 -0.2578
  237POPC   GL2 3209   2.547   9.520   3.717 -0.1678 -0.0515  0.1209
  237POPC   C1A 3210   2.406   9.199   4.232 -0.0244 -0.2430 -0.0172
  237POPC   D2A 3211   2.369   9.018   4.658 -0.2310  0.1696  0.3990
  237POPC   C3A 3212   2.117   9.392   4.926  0.2306  0.0975  0.3742
  237POPC   C4A 3213   1.845   9.707   4.998  0.0258 -0.2940 -0.0502
  237POPC   C1B 3214   2.089   9.501   3.783  0.2587 -0.0570 -0.0094
  237POPC   C2B 3215   1.655   9.464   3.969  0.2536  0.3084  0.2712
  237POPC   C3B 3216   1.277   9.460   4.329 -0.0162  0.1764  0.2139
  237POPC   C4B 3217   1.269   9.738   4.748  0.0922  0.0847  0.3801
  238POPC   NC3 3218   4.444   6.306   4.492  0.1122 -0.0358  0.0212
  238POPC   PO4 3219   4.000   6.216   4.389  0.0421 -0.1396 -0.0774
  238POPC   GL1 3220   4.094   6.051   4.799  0.0241 -0.1025 -0.2381
  238POPC   GL2 3221   4.182   5.780   4.952 -0.4327  0.0392  0.2413
  238POPC   C1A 3222   3.844   6.027   5.124 -0.1672 -0.1962 -0.1230
  238POPC   D2A 3223   3.766   5.998   5.537 -0.1278  0.0043  0.0435
  238POPC   C3A 3224   3.785   5.718   5.711  0.2750  0.1082  0.2346
  238POPC   C4A 3225   3.857   5.633   6.082  0.0696  0.0775  0.2143
  238POPC   C1B 3226   4.173   5.646   5.392  0.1059  0.1587 -0.0511
  238POPC   C2B 3227   4.158   5.333   5.766 -0.0815 -0.2534  0.0554
  238POPC   C3B 3228   3.985   5.129   6.123 -0.1832 -0.2489  0.1759
  238POPC   C4B 3229   3.627   5.252   6.352 -0.0638 -0.2438 -0.1898
  239POPC   NC3 3230   9.201   5.137   3.981  0.1221 -0.2505  0.1830
  239POPC   PO4 3231   9.610   5.206   4.059 -0.2208  0.0995 -0.1353
  239POPC   GL1 3232   9.413   5.067   4.451 -0.0445  0.1959  0.0971
  239POPC   GL2 3233   9.274   5.328   4.515 -0.0969 -0.0569  0.2928
  239POPC   C1A 3234   9.436   4.741   4.847  0.2818 -0.0525  0.1377
  239POPC   D2A 3235   9.203   4.669   5.274  0.2056  0.0883  0.1582
  239POPC   C3A 3236   9.233   5.029   5.563 -0.0426 -0.4218 -0.1351
  239POPC   C4A 3237   9.660   5.191   5.563  0.2579 -0.1727  0.0625
  239POPC   C1B 3238   9.779   5.370   4.662  0.1518  0.3336 -0.1369
  239POPC   C2B 3239  10.066   5.216   4.992  0.2709 -0.0011  0.2017
  239POPC   C3B 3240  10.458   5.085   5.082 -0.1143 -0.0561 -0.0642
  239POPC   C4B 3241  10.860   4.821   5.220 -0.1181  0.1472  0.0906
  240POPC   NC3 3242   1.908   5.994   4.430 -0.0316  0.3879  0.2527
  240POPC   PO4 3243   2.250   6.046   4.623  0.0753  0.3269 -0.1931
  240POPC   GL1 3244   2.056   5.925   5.005  0.0058 -0.0798  0.0815
  240POPC   GL2 3245   1.698   5.956   4.918 -0.0460 -0.2602 -0.0410
  240POPC   C1A 3246   1.868   5.653   5.435 -0.3551  0.2902  0.0732
  240POPC   D2A 3247   2.060   5.541   5.838  0.1677 -0.0361 -0.0032
  240POPC   C3A 3248   1.952   5.679   6.245 -0.2629 -0.0323 -0.1437
  240POPC   C4A 3249   2.401   5.849   6.452 -0.1133  0.3035  0.0644
  240POPC   C1B 3250   1.459   6.199   5.268  0.0827  0.1584  0.1236
  240POPC   C2B 3251   1.199   6.210   5.647 -0.0682 -0.1359 -0.0539
  240POPC   C3B 3252   1.132   6.021   6.082  0.0521 -0.2623  0.2234
  240POPC   C4B 3253   1.050   5.896   6.487  0.2653  0.0410  0.2758
  241POPC   NC3 3254   8.227   5.477   4.589  0.1068  0.0598 -0.1948
  241POPC   PO4 3255   8.198   5.141   4.235 -0.0897  0.0989  0.3952
  241POPC   GL1 3256   8.148   4.856   4.490 -0.2353 -0.0523 -0.0328
  241POPC   GL2 3257   8.262   5.036   4.857 -0.0783 -0.1766  0.0159
  241POPC   C1A 3258   8.069   4.560   4.889 -0.0553  0.1340 -0.0386
  241POPC   D2A 3259   7.897   4.306   5.144  0.3512 -0.2913 -0.1864
  241POPC   C3A 3260   8.104   4.410   5.596 -0.2312  0.0145 -0.0969
  241POPC   C4A 3261   7.913   4.508   5.985  0.0875 -0.0765  0.1120
  241POPC   C1B 3262   8.366   5.290   5.192  0.0546  0.1090  0.0854
  241POPC   C2B 3263   8.177   5.653   5.281  0.0194  0.0205  0.1025
  241POPC   C3B 3264   8.097   6.019   5.484  0.1470  0.0636  0.1948
  241POPC   C4B 3265   7.904   6.399   5.308 -0.2348  0.0979  0.0818
  242POPC   NC3 3266   3.302   2.596   4.248 -0.0788  0.0044  0.1323
  242POPC   PO4 3267   3.127   3.009   4.139 -0.2100  0.3334  0.2188
  242POPC   GL1 3268   2.767   2.910   4.314 -0.3784 -0.0720  0.2217
  242POPC   GL2 3269   2.827   3.081   4.561 -0.1251 -0.1155  0.3122
  242POPC   C1A 3270   2.519   2.684   4.638 -0.3234 -0.1264  0.3267
  242POPC   D2A 3271   2.699   2.557   5.008  0.1194 -0.2436 -0.0644
  242POPC   C3A 3272   2.673   2.518   5.440 -0.2277 -0.0645  0.2704
  242POPC   C4A 3273   2.784   2.296   5.770  0.0430  0.0435 -0.3879
  242POPC   C1B 3274   2.834   3.153   4.973  0.1379  0.1768 -0.0407
  242POPC   C2B 3275   2.697   3.098   5.362 -0.3977  0.0434  0.1105
  242POPC   C3B 3276   2.700   2.958   5.749  0.0438 -0.1170 -0.4731
  242POPC   C4B 3277   2.921   2.691   6.015  0.0926 -0.1282 -0.2282
  243POPC   NC3 3278   3.484   6.287   4.305  0.0115 -0.1211  0.0606
  243POPC   PO4 3279   3.121   5.962   4.439 -0.1156  0.0167  0.1540
  243POPC   GL1 3280   2.941   5.918   4.917  0.0526  0.0042  0.1026
  243POPC   GL2 3281   2.644   5.944   4.897  0.0559  0.3942  0.1318
  243POPC   C1A 3282   2.871   5.572   5.221 -0.0018 -0.0605 -0.0851
  243POPC   D2A 3283   2.977   5.227   5.562 -0.0494  0.1895 -0.1893
  243POPC   C3A 3284   2.742   4.948   5.894  0.4315 -0.1337 -0.0492
  243POPC   C4A 3285   2.341   4.809   5.964 -0.0351  0.0372  0.0728
  243POPC   C1B 3286   2.846   6.210   5.266 -0.0390 -0.1148  0.0059
  243POPC   C2B 3287   3.090   6.597   5.307 -0.2610  0.1889 -0.3167
  243POPC   C3B 3288   3.332   6.826   5.516 -0.0452 -0.0467  0.0847
  243POPC   C4B 3289   3.717   7.006   5.554  0.1856 -0.2886 -0.0243
  244POPC   NC3 3290   4.427   8.001   4.173 -0.0795  0.0922 -0.3832
  244POPC   PO4 3291   4.507   7.538   4.422 -0.1525  0.1546  0.0598
  244POPC   GL1 3292   4.315   7.487   4.833 -0.2195  0.1160  0.1381
  244POPC   GL2 3293   4.167   7.773   4.969  0.1557  0.1658  0.1005
  244POPC   C1A 3294   3.957   7.444   5.294 -0.2528 -0.2358 -0.1220
  244POPC   D2A 3295   4.039   7.435   5.698 -0.2562  0.1322  0.1025
  244POPC   C3A 3296   4.387   7.233   5.718  0.1719  0.1996 -0.1832
  244POPC   C4A 3297   4.669   7.015   6.021  0.2609 -0.0248  0.2649
  244POPC   C1B 3298   4.713   7.911   5.073 -0.0010 -0.3385 -0.2868
  244POPC   C2B 3299   5.088   7.858   5.364  0.0297  0.1959 -0.0697
  244POPC   C3B 3300   5.434   8.094   5.541 -0.3941  0.1458  0.0453
  244POPC   C4B 3301   5.566   8.204   5.959  0.2781 -0.0436 -0.1699
  245POPC   NC3 3302   8.305   4.040   4.049 -0.0197  0.2169  0.0208
  245POPC   PO4 3303   8.154   3.532   3.982 -0.2301 -0.1718 -0.0477
  245POPC   GL1 3304   8.169   3.698   4.440 -0.0177  0.1691 -0.1053
  245POPC   GL2 3305   7.913   3.549   4.599 -0.3373 -0.5014 -0.1017
  245POPC   C1A 3306   8.536   3.725   4.724  0.2702  0.0067  0.0719
  245POPC   D2A 3307   8.642   3.785   5.210 -0.0937 -0.2938 -0.1080
  245POPC   C3A 3308   8.702   4.196   5.430 -0.0660  0.1912  0.1109
  245POPC   C4A 3309   8.788   4.688   5.529 -0.1328  0.2906 -0.1065
  245POPC   C1B 3310   8.171   3.354   4.837 -0.1092 -0.1046 -0.1254
  245POPC   C2B 3311   8.455   3.311   5.126 -0.2740 -0.0449 -0.2872
  245POPC   C3B 3312   8.697   2.974   5.357  0.1863 -0.0345  0.1884
  245POPC   C4B 3313   8.529   2.682   5.739 -0.2969  0.1922 -0.0931
  246POPC   NC3 3314   7.404   1.448   3.664  0.0945 -0.0666  0.1388
  246POPC   PO4 3315   7.692   1.396   4.086  0.0216 -0.1362  0.1052
  246POPC   GL1 3316   7.893   1.400   4.564 -0.1114  0.4547  0.0026
  246POPC   GL2 3317   7.938   1.812   4.677  0.3266 -0.1480 -0.3976
  246POPC   C1A 3318   8.088   1.337   4.943  0.1790  0.0213 -0.0596
  246POPC   D2A 3319   8.499   1.365   5.224 -0.1748  0.2541  0.1170
  246POPC   C3A 3320   8.621   1.053   5.611  0.1408 -0.0610  0.2317
  246POPC   C4A 3321   8.773   0.715   5.888 -0.0352 -0.3205 -0.1324
  246POPC   C1B 3322   8.133   1.905   5.043  0.0090  0.3543 -0.1495
  246POPC   C2B 3323   8.301   2.154   5.412 -0.0344 -0.0920 -0.0035
  246POPC   C3B 3324   8.465   2.035   5.835 -0.0362 -0.1185 -0.3398
  246POPC   C4B 3325   8.665   1.920   6.328 -0.3482  0.0643  0.1034
  247POPC   NC3 3326   8.152   1.470   3.722  0.3129 -0.1622  0.1745
  247POPC   PO4 3327   8.601   1.253   3.789  0.2634 -0.0998  0.0946
  247POPC   GL1 3328   8.647   1.385   4.244 -0.2824 -0.1950 -0.1462
  247POPC   GL2 3329   8.648   0.978   4.216  0.2025  0.1524  0.2370
  247POPC   C1A 3330   8.821   1.239   4.616 -0.0145 -0.0916  0.0841
  247POPC   D2A 3331   8.879   1.093   5.125 -0.1596  0.1625  0.1159
  247POPC   C3A 3332   8.976   1.379   5.439  0.0968  0.1808  0.0381
  247POPC   C4A 3333   9.060   1.297   5.837 -0.0181 -0.2675 -0.0735
  247POPC   C1B 3334   9.111   1.202   4.193  0.1251  0.1223  0.2775
  247POPC   C2B 3335   9.515   1.371   4.456 -0.0482 -0.0173 -0.3540
  247POPC   C3B 3336   9.639   1.665   4.537 -0.6447 -0.0758 -0.0773
  247POPC   C4B 3337   9.890   1.924   4.664  0.1282 -0.6079 -0.1726
  248POPC   NC3 3338   6.522   6.997   3.901  0.0644  0.1556  0.0397
  248POPC   PO4 3339   6.666   6.617   3.836 -0.0531 -0.2880  0.1227
  248POPC   GL1 3340   6.826   6.641   4.268 -0.3219  0.0398  0.0798
  248POPC   GL2 3341   6.505   6.655   4.453 -0.0629 -0.0439  0.1420
  248POPC   C1A 3342   6.905   6.671   4.628 -0.4028 -0.4492 -0.1222
  248POPC   D2A 3343   7.178   6.696   4.877  0.1475 -0.0358  0.2160
  248POPC   C3A 3344   7.267   7.012   5.175  0.1113  0.0470  0.0607
  248POPC   C4A 3345   7.346   7.223   5.541 -0.0273 -0.2532  0.1453
  248POPC   C1B 3346   6.485   6.479   4.890  0.5036 -0.0924 -0.0630
  248POPC   C2B 3347   6.285   6.178   5.125 -0.1969 -0.0310  0.0060
  248POPC   C3B 3348   6.089   6.043   5.495  0.1716 -0.1072  0.1555
  248POPC   C4B 3349   5.944   6.175   5.882 -0.3485 -0.2639 -0.2902
  249POPC   NC3 3350   5.039   8.350   4.067 -0.0511  0.1249  0.2239
  249POPC   PO4 3351   4.626   8.494   4.185  0.3427  0.1417  0.0460
  249POPC   GL1 3352   4.480   8.489   4.643  0.0413 -0.1712 -0.1881
  249POPC   GL2 3353   4.373   8.272   4.711  0.0665  0.1594  0.1569
  249POPC   C1A 3354   4.491   8.770   5.021 -0.1929  0.3276 -0.1461
  249POPC   D2A 3355   4.620   8.864   5.388 -0.0833  0.1140  0.0140
  249POPC   C3A 3356   4.824   8.604   5.754 -0.1306 -0.0052 -0.0858
  249POPC   C4A 3357   5.202   8.503   5.823 -0.0878  0.3015  0.3229
  249POPC   C1B 3358   4.356   8.275   5.140  0.2242 -0.4696 -0.3531
  249POPC   C2B 3359   4.360   8.422   5.604 -0.0101  0.1143 -0.1321
  249POPC   C3B 3360   4.108   8.425   5.990 -0.0381  0.0685 -0.2451
  249POPC   C4B 3361   4.152   8.540   6.345 -0.1115 -0.0455 -0.1048
  250POPC   NC3 3362   0.678   1.071   2.975  0.1911  0.1305 -0.1386
  250POPC   PO4 3363   1.035   1.337   3.043 -0.0265  0.0591 -0.0787
  250POPC   GL1 3364   1.367   1.316   3.364 -0.3030  0.0899 -0.0141
  250POPC   GL2 3365   1.407   0.970   3.602 -0.1925 -0.0786 -0.1568
  250POPC   C1A 3366   1.659   1.422   3.540 -0.0553 -0.0528  0.0156
  250POPC   D2A 3367   1.966   1.297   3.835 -0.2664  0.1230  0.2453
  250POPC   C3A 3368   2.213   0.946   3.816 -0.0624 -0.4889  0.0076
  250POPC   C4A 3369   2.552   0.814   4.091 -0.3563 -0.0743 -0.1912
  250POPC   C1B 3370   1.323   0.868   4.040 -0.4623 -0.1441  0.0454
  250POPC   C2B 3371   1.385   0.576   4.260 -0.0693 -0.0904 -0.0994
  250POPC   C3B 3372   1.599   0.582   4.622 -0.3250  0.0280 -0.1144
  250POPC   C4B 3373   1.635   0.919   4.903 -0.1292 -0.2708  0.0378
  251POPC   NC3 3374   7.731   9.225   4.576 -0.0217  0.0357 -0.3012
  251POPC   PO4 3375   7.758   8.887   4.872  0.0478 -0.2697 -0.1529
  251POPC   GL1 3376   8.009   8.850   5.162  0.1430  0.0754 -0.1279
  251POPC   GL2 3377   8.292   9.038   5.140 -0.0485  0.3381  0.0937
  251POPC   C1A 3378   8.100   8.918   5.601 -0.0871  0.0479  0.1509
  251POPC   D2A 3379   8.493   8.937   5.824 -0.0578  0.0104 -0.0643
  251POPC   C3A 3380   8.853   9.048   6.053  0.1222 -0.0786 -0.0452
  251POPC   C4A 3381   9.332   9.079   6.023  0.0789  0.1264 -0.0505
  251POPC   C1B 3382   8.655   9.179   5.406  0.0843 -0.1084 -0.2655
  251POPC   C2B 3383   8.801   9.449   5.636 -0.4057 -0.0102 -0.1054
  251POPC   C3B 3384   9.149   9.586   5.870 -0.1318 -0.2271 -0.0268
  251POPC   C4B 3385   9.258   9.674   6.259  0.0397  0.1567 -0.0016
  252POPC   NC3 3386   7.717   3.130   4.338 -0.2340 -0.1603 -0.1183
  252POPC   PO4 3387   7.376   2.882   4.392  0.4037 -0.0878 -0.0604
  252POPC   GL1 3388   7.402   2.792   4.854 -0.1588  0.1792  0.2317
  252POPC   GL2 3389   7.149   2.910   4.962 -0.3686 -0.5133  0.0020
  252POPC   C1A 3390   7.404   2.462   5.121  0.0407 -0.1257  0.0283
  252POPC   D2A 3391   7.567   2.540   5.584 -0.1523  0.0825  0.2752
  252POPC   C3A 3392   7.524   2.364   6.006  0.1537 -0.1092  0.0863
  252POPC   C4A 3393   7.371   2.608   6.364 -0.3581 -0.1120  0.1166
  252POPC   C1B 3394   7.132   2.682   5.419 -0.1964 -0.0996 -0.0403
  252POPC   C2B 3395   7.202   2.772   5.874  0.0096 -0.1460  0.1670
  252POPC   C3B 3396   6.990   2.946   6.186 -0.1549  0.1480 -0.0159
  252POPC   C4B 3397   7.163   3.145   6.517 -0.1914 -0.3962 -0.0407
  253POPC   NC3 3398   5.787   4.382   4.318  0.1606  0.0889  0.4040
  253POPC   PO4 3399   6.262   4.289   4.343 -0.1095  0.0546  0.1170
  253POPC   GL1 3400   6.549   4.354   4.729  0.0134 -0.0854  0.1429
  253POPC   GL2 3401   6.516   4.659   4.881  0.0115 -0.1176 -0.0508
  253POPC   C1A 3402   6.775   4.339   5.186  0.0906 -0.0861 -0.0266
  253POPC   D2A 3403   7.050   4.312   5.551 -0.0645 -0.2033  0.1157
  253POPC   C3A 3404   6.933   4.289   5.936  0.0976 -0.5266 -0.1176
  253POPC   C4A 3405   6.662   4.013   6.120  0.1469  0.1683 -0.0700
  253POPC   C1B 3406   6.177   4.780   5.143  0.1249  0.0399  0.1724
  253POPC   C2B 3407   5.869   4.767   5.458 -0.1652  0.0501  0.0161
  253POPC   C3B 3408   5.449   4.633   5.601  0.0005 -0.1635 -0.0221
  253POPC   C4B 3409   4.978   4.699   5.818 -0.3763  0.1833  0.0660
  254POPC   NC3 3410   2.935   4.132   3.640 -0.4654  0.2889 -0.2806
  254POPC   PO4 3411   3.309   4.096   3.805 -0.1418 -0.0849  0.1605
  254POPC   GL1 3412   3.232   4.168   4.238  0.0675  0.0693  0.3212
  254POPC   GL2 3413   3.458   3.968   4.398 -0.2221 -0.0381 -0.1183
  254POPC   C1A 3414   3.023   4.214   4.649 -0.0609  0.0549 -0.2128
  254POPC   D2A 3415   2.960   4.091   5.122  0.2171 -0.0026 -0.1471
  254POPC   C3A 3416   2.762   4.285   5.535 -0.1906 -0.1625  0.0424
  254POPC   C4A 3417   2.524   4.665   5.488  0.1734 -0.3396 -0.2553
  254POPC   C1B 3418   3.346   3.845   4.894 -0.3481 -0.3288 -0.2752
  254POPC   C2B 3419   3.260   3.753   5.393  0.1052  0.0142  0.0532
  254POPC   C3B 3420   3.174   3.842   5.801  0.0521 -0.2421 -0.1548
  254POPC   C4B 3421   2.759   4.079   6.077 -0.5238 -0.2979  0.1119
  255POPC   NC3 3422   9.251   9.318   3.827 -0.1333  0.2121 -0.0144
  255POPC   PO4 3423   9.016   9.345   4.230 -0.0796 -0.3915  0.1241
  255POPC   GL1 3424   9.124   9.288   4.715  0.0231 -0.1669 -0.0745
  255POPC   GL2 3425   8.853   9.168   4.859  0.2526 -0.0123 -0.3977
  255POPC   C1A 3426   9.390   9.198   5.099  0.2838 -0.1785 -0.0242
  255POPC   D2A 3427   9.264   9.198   5.568  0.2671  0.0526  0.1179
  255POPC   C3A 3428   8.939   8.861   5.611 -0.2431 -0.0058 -0.2207
  255POPC   C4A 3429   9.014   8.366   5.567  0.2699  0.0258  0.0834
  255POPC   C1B 3430   8.840   8.830   5.109  0.1774  0.0595  0.2207
  255POPC   C2B 3431   8.521   8.661   5.415 -0.3142 -0.5057 -0.1609
  255POPC   C3B 3432   8.562   8.456   5.794  0.0593 -0.0819  0.0855
  255POPC   C4B 3433   8.658   8.554   6.160 -0.1693  0.2227 -0.0738
  256POPC   NC3 3434   9.667   7.908   4.207 -0.0707  0.2291 -0.1806
  256POPC   PO4 3435   9.857   7.521   4.169 -0.0540  0.0508  0.1201
  256POPC   GL1 3436  10.054   7.389   4.518 -0.3369 -0.1169 -0.2059
  256POPC   GL2 3437   9.790   7.606   4.645 -0.0373 -0.1945 -0.2459
  256POPC   C1A 3438  10.118   7.274   4.870  0.2313  0.0395  0.3782
  256POPC   D2A 3439  10.211   7.093   5.220  0.1308  0.1812 -0.0179
  256POPC   C3A 3440  10.219   6.883   5.558  0.1007 -0.2331 -0.2362
  256POPC   C4A 3441  10.529   6.512   5.783  0.0976 -0.0981 -0.2208
  256POPC   C1B 3442   9.908   7.767   4.998 -0.1885  0.0690 -0.0059
  256POPC   C2B 3443   9.969   8.031   5.412  0.0743  0.0471 -0.2299
  256POPC   C3B 3444   9.923   7.858   5.727  0.0267 -0.1620  0.1504
  256POPC   C4B 3445   9.883   7.771   6.164 -0.2728  0.0415 -0.0493
  257POPC   NC3 3446   7.397   1.363   4.560  0.1566  0.0461  0.0693
  257POPC   PO4 3447   7.142   1.261   4.881 -0.0038  0.2390  0.0634
  257POPC   GL1 3448   7.378   1.331   5.187 -0.0448  0.1859 -0.3075
  257POPC   GL2 3449   7.184   1.077   5.458  0.0819 -0.3598  0.1273
  257POPC   C1A 3450   7.623   1.388   5.631  0.0429  0.1275  0.1184
  257POPC   D2A 3451   7.638   1.205   6.057 -0.1148 -0.3187  0.1704
  257POPC   C3A 3452   8.005   1.302   6.354 -0.4447  0.1376  0.1985
  257POPC   C4A 3453   8.294   1.653   6.472 -0.0831 -0.0205 -0.0920
  257POPC   C1B 3454   7.121   1.147   5.900  0.0733 -0.0768  0.0006
  257POPC   C2B 3455   7.282   1.191   6.394 -0.0679  0.0761  0.1578
  257POPC   C3B 3456   7.562   1.160   6.721  0.2118  0.2390 -0.0420
  257POPC   C4B 3457   7.632   1.285   7.157  0.0167 -0.0390  0.0439
  258POPC   NC3 3458   6.784   2.309   3.808 -0.0435 -0.0313  0.3559
  258POPC   PO4 3459   6.677   2.436   4.268  0.0698 -0.1104  0.1869
  258POPC   GL1 3460   6.572   2.628   4.664  0.3496  0.0351 -0.0683
  258POPC   GL2 3461   6.597   2.913   4.816 -0.1694 -0.0904 -0.2325
  258POPC   C1A 3462   6.256   2.575   5.023  0.0019 -0.1647 -0.1860
  258POPC   D2A 3463   6.003   2.583   5.316 -0.2322  0.2020  0.0839
  258POPC   C3A 3464   5.946   2.995   5.554 -0.0032 -0.1635 -0.0008
  258POPC   C4A 3465   6.080   3.149   5.924  0.0124 -0.0468 -0.0974
  258POPC   C1B 3466   6.692   2.985   5.188  0.0036 -0.1414 -0.0985
  258POPC   C2B 3467   6.892   3.117   5.549 -0.0833 -0.0092 -0.1080
  258POPC   C3B 3468   7.101   3.244   5.842 -0.1293 -0.0326 -0.0166
  258POPC   C4B 3469   7.467   3.554   6.040 -0.0152 -0.0546  0.0760
  259POPC   NC3 3470   4.328   2.783   3.732 -0.1350 -0.1991 -0.0879
  259POPC   PO4 3471   4.180   3.152   4.083  0.1576  0.1166 -0.1036
  259POPC   GL1 3472   4.176   3.385   4.492  0.2651 -0.0741 -0.2373
  259POPC   GL2 3473   4.287   3.071   4.675 -0.0431  0.1256  0.1257
  259POPC   C1A 3474   3.821   3.560   4.691  0.2719 -0.0744  0.4485
  259POPC   D2A 3475   3.800   3.989   4.837 -0.1081  0.0267  0.0442
  259POPC   C3A 3476   3.716   4.110   5.221 -0.1276 -0.0640  0.0057
  259POPC   C4A 3477   3.836   3.941   5.589 -0.0830 -0.2107 -0.1259
  259POPC   C1B 3478   3.990   3.234   5.017  0.0328  0.0901  0.0061
  259POPC   C2B 3479   3.676   3.030   5.318 -0.3377  0.0369  0.1004
  259POPC   C3B 3480   3.729   2.639   5.520 -0.0283 -0.0826  0.2677
  259POPC   C4B 3481   3.528   2.501   5.969  0.2567  0.0187 -0.0785
  260POPC   NC3 3482   0.890   9.140   3.244  0.0024 -0.0326  0.0540
  260POPC   PO4 3483   0.822   8.681   3.459 -0.0695 -0.0937  0.1110
  260POPC   GL1 3484   1.182   8.711   3.762  0.0277 -0.0869 -0.1477
  260POPC   GL2 3485   1.041   8.505   3.979  0.2419  0.3696 -0.0001
  260POPC   C1A 3486   1.452   8.972   3.948 -0.0337  0.0240  0.1930
  260POPC   D2A 3487   1.862   9.082   4.150  0.1282 -0.0039  0.3991
  260POPC   C3A 3488   2.006   9.534   4.303 -0.0967  0.1018 -0.2550
  260POPC   C4A 3489   2.301   9.748   4.152  0.1816  0.3744 -0.1768
  260POPC   C1B 3490   1.211   8.600   4.394 -0.0441  0.1153  0.1363
  260POPC   C2B 3491   1.198   8.663   4.874  0.3850  0.2319  0.0397
  260POPC   C3B 3492   1.243   8.927   5.203 -0.0945 -0.0022  0.2331
  260POPC   C4B 3493   1.170   9.187   5.627 -0.0382  0.0580 -0.0254
  261POPC   NC3 3494   3.069   8.954   3.755 -0.0672 -0.0069 -0.0163
  261POPC   PO4 3495   3.146   9.346   3.599 -0.1811 -0.1108 -0.3105
  261POPC   GL1 3496   3.047   9.422   3.938  0.0946 -0.1691 -0.0187
  261POPC   GL2 3497   3.019   9.883   3.868 -0.1012  0.1411  0.0039
  261POPC   C1A 3498   2.787   9.607   4.224  0.1863 -0.0017  0.5291
  261POPC   D2A 3499   2.666  10.053   4.269  0.2992  0.0197 -0.1975
  261POPC   C3A 3500   2.473  10.228   4.503  0.2667 -0.1557 -0.1850
  261POPC   C4A 3501   2.080  10.456   4.785  0.0397  0.5038  0.1021
  261POPC   C1B 3502   2.651  10.099   3.767  0.3108 -0.1496 -0.0956
  261POPC   C2B 3503   2.238  10.142   3.911  0.0819  0.0822 -0.2097
  261POPC   C3B 3504   2.035  10.158   4.279  0.0201 -0.0488  0.1080
  261POPC   C4B 3505   1.948   9.953   4.590 -0.0523 -0.3079 -0.0174
  262POPC   NC3 3506   7.941   7.108   4.167  0.1490  0.1241 -0.1012
  262POPC   PO4 3507   7.594   7.223   3.971  0.2901 -0.0615 -0.2958
  262POPC   GL1 3508   7.257   6.983   4.222  0.0541  0.0520 -0.1607
  262POPC   GL2 3509   7.452   6.824   4.425  0.1256  0.1217 -0.1001
  262POPC   C1A 3510   7.165   7.174   4.624  0.0046 -0.1497  0.3291
  262POPC   D2A 3511   7.424   7.437   4.941 -0.2747  0.1300 -0.2349
  262POPC   C3A 3512   7.877   7.490   5.271  0.3416  0.3991 -0.0653
  262POPC   C4A 3513   8.242   7.271   5.528 -0.0938 -0.0072 -0.1553
  262POPC   C1B 3514   7.443   6.383   4.631  0.0904 -0.0637  0.0983
  262POPC   C2B 3515   7.206   6.200   5.062  0.2778  0.1160  0.3672
  262POPC   C3B 3516   7.119   5.944   5.427  0.1290 -0.0100  0.0489
  262POPC   C4B 3517   6.854   5.502   5.382  0.1313 -0.1739  0.0700
  263POPC   NC3 3518   0.933   8.200   3.520 -0.0913 -0.0948 -0.0522
  263POPC   PO4 3519   0.601   8.163   3.953  0.0503  0.2560  0.0824
  263POPC   GL1 3520   0.722   8.429   4.376  0.0615  0.1698  0.1819
  263POPC   GL2 3521   0.586   8.633   4.518  0.2937  0.2768  0.0154
  263POPC   C1A 3522   0.914   8.287   4.684  0.2237 -0.2179 -0.1658
  263POPC   D2A 3523   1.131   8.118   4.922  0.0834 -0.0450  0.2026
  263POPC   C3A 3524   1.335   8.369   5.336  0.0639 -0.0863 -0.3802
  263POPC   C4A 3525   1.323   8.554   5.594 -0.1322  0.0946 -0.1034
  263POPC   C1B 3526   0.587   8.724   4.944 -0.0214  0.0381 -0.2035
  263POPC   C2B 3527   0.803   8.880   5.418  0.1538  0.1524 -0.3504
  263POPC   C3B 3528   0.797   8.675   5.866  0.0723 -0.1142 -0.0801
  263POPC   C4B 3529   0.594   8.765   6.220 -0.0509 -0.0530  0.0398
  264POPC   NC3 3530   3.818   7.377   4.676 -0.1327 -0.1601 -0.2068
  264POPC   PO4 3531   3.674   6.961   4.468  0.1022  0.1789  0.2207
  264POPC   GL1 3532   3.875   6.820   4.803  0.1320 -0.1466  0.3823
  264POPC   GL2 3533   3.842   6.469   4.770  0.2790 -0.1596 -0.1214
  264POPC   C1A 3534   4.031   6.866   5.234  0.2163  0.2468 -0.0966
  264POPC   D2A 3535   4.224   6.680   5.678 -0.1058 -0.0324 -0.0031
  264POPC   C3A 3536   4.001   6.855   5.958 -0.1679  0.0809 -0.0595
  264POPC   C4A 3537   3.965   7.220   6.310 -0.1584 -0.0955  0.0799
  264POPC   C1B 3538   3.615   6.573   5.117 -0.1574  0.1656 -0.0474
  264POPC   C2B 3539   3.777   6.507   5.457  0.0715 -0.1014  0.0082
  264POPC   C3B 3540   3.756   6.387   5.871 -0.0097 -0.3081  0.0885
  264POPC   C4B 3541   3.825   6.518   6.230  0.0372  0.2333  0.1967
  265POPC   NC3 3542   4.280   6.377   4.010  0.0966 -0.1104  0.3323
  265POPC   PO4 3543   4.273   6.722   4.320  0.6208 -0.1713  0.2258
  265POPC   GL1 3544   4.353   6.715   4.851 -0.1049 -0.0581 -0.1748
  265POPC   GL2 3545   4.253   6.453   5.067  0.0403  0.1128  0.1019
  265POPC   C1A 3546   4.467   7.074   5.082 -0.2132 -0.2139 -0.0282
  265POPC   D2A 3547   4.822   7.389   5.234 -0.1620  0.1298  0.3997
  265POPC   C3A 3548   4.934   7.474   5.678 -0.0825 -0.1443  0.0108
  265POPC   C4A 3549   5.033   7.336   6.058 -0.0631  0.1294  0.1480
  265POPC   C1B 3550   4.191   6.212   5.502 -0.2181 -0.0608  0.1758
  265POPC   C2B 3551   4.347   5.876   5.788 -0.2115 -0.2035  0.4017
  265POPC   C3B 3552   4.314   5.606   6.169 -0.0935  0.0052  0.2703
  265POPC   C4B 3553   4.266   5.267   6.483 -0.0252 -0.0132  0.0046
  266POPC   NC3 3554   9.021   0.205   4.301 -0.1071  0.4010  0.5158
  266POPC   PO4 3555   9.388   0.012   4.017 -0.4207 -0.0269  0.1749
  266POPC   GL1 3556   9.680   0.275   4.322  0.0226  0.1659  0.1975
  266POPC   GL2 3557   9.780   0.378   4.023  0.0486 -0.0770 -0.0020
  266POPC   C1A 3558  10.097   0.473   4.496  0.0994 -0.1970 -0.0458
  266POPC   D2A 3559  10.508   0.226   4.636 -0.4319 -0.1832 -0.1276
  266POPC   C3A 3560  10.538  -0.196   4.648  0.1766  0.1117 -0.2311
  266POPC   C4A 3561  10.314  -0.639   4.537  0.1233  0.2097 -0.2141
  266POPC   C1B 3562  10.192   0.152   3.975  0.0783  0.1884  0.0650
  266POPC   C2B 3563  10.443  -0.273   4.149 -0.1257 -0.1074  0.0099
  266POPC   C3B 3564  10.652  -0.570   4.209 -0.2485  0.1331  0.2894
  266POPC   C4B 3565  10.822  -0.609   4.665  0.0897  0.3757  0.1996
  267POPC   NC3 3566   4.223   0.103   4.248  0.0916  0.1556  0.1952
  267POPC   PO4 3567   4.080   0.531   4.449  0.2202 -0.0591  0.0274
  267POPC   GL1 3568   4.158   0.339   4.809 -0.0970  0.1882  0.1987
  267POPC   GL2 3569   4.159   0.050   4.736  0.1189  0.1126  0.0625
  267POPC   C1A 3570   4.097   0.385   5.193  0.0036  0.3444 -0.1101
  267POPC   D2A 3571   4.064   0.227   5.629 -0.0248 -0.1322  0.0556
  267POPC   C3A 3572   4.250   0.611   5.916 -0.2917  0.1670 -0.0085
  267POPC   C4A 3573   4.085   0.695   6.276  0.1388  0.2431  0.1634
  267POPC   C1B 3574   3.915  -0.169   5.160 -0.1223  0.2966  0.1163
  267POPC   C2B 3575   3.637   0.052   5.519 -0.3318  0.2781 -0.2754
  267POPC   C3B 3576   3.205  -0.088   5.731  0.0530 -0.1650 -0.3053
  267POPC   C4B 3577   3.150  -0.044   6.117 -0.3919 -0.1605 -0.3386
  268POPC   NC3 3578   8.579   2.069   3.224  0.1277  0.0132  0.2660
  268POPC   PO4 3579   8.969   2.090   3.313 -0.3855 -0.2450 -0.0590
  268POPC   GL1 3580   9.251   1.952   3.718  0.2039 -0.2575  0.0270
  268POPC   GL2 3581   9.190   2.183   3.939 -0.1288  0.1092  0.2316
  268POPC   C1A 3582   9.368   1.719   4.092 -0.0881 -0.1647  0.0369
  268POPC   D2A 3583   9.179   1.787   4.453 -0.0920  0.4239 -0.0483
  268POPC   C3A 3584   8.928   2.066   4.660  0.1226  0.4037 -0.1957
  268POPC   C4A 3585   8.935   2.411   4.745 -0.1579 -0.4203 -0.2766
  268POPC   C1B 3586   9.342   2.363   4.407  0.1723  0.2977 -0.1320
  268POPC   C2B 3587   9.459   2.134   4.817 -0.1792 -0.0691 -0.1250
  268POPC   C3B 3588   9.620   1.809   5.068 -0.0085 -0.1394  0.1275
  268POPC   C4B 3589   9.880   1.590   5.481 -0.2011  0.0654  0.2071
  269POPC   NC3 3590   7.775   8.384   4.940  0.3329  0.0432 -0.1804
  269POPC   PO4 3591   8.114   8.361   4.646  0.2205 -0.0913 -0.0964
  269POPC   GL1 3592   8.187   8.117   5.004  0.2326  0.0722  0.1920
  269POPC   GL2 3593   8.266   8.407   5.117 -0.0756 -0.0512  0.4911
  269POPC   C1A 3594   8.147   7.852   5.360  0.1457 -0.1396 -0.0068
  269POPC   D2A 3595   7.895   7.776   5.811  0.4063 -0.1701  0.0574
  269POPC   C3A 3596   7.860   7.321   5.828  0.0924  0.0115 -0.0536
  269POPC   C4A 3597   7.553   7.059   6.056  0.1245  0.1412 -0.0292
  269POPC   C1B 3598   8.110   8.332   5.670  0.1835 -0.1232 -0.1352
  269POPC   C2B 3599   8.068   8.664   5.999 -0.0454 -0.1940 -0.2280
  269POPC   C3B 3600   8.243   8.631   6.499  0.1600  0.1786 -0.1108
  269POPC   C4B 3601   8.482   8.551   6.772  0.0466  0.3764 -0.0801
  270POPC   NC3 3602   1.244   4.848   4.006 -0.0295  0.1084 -0.2052
  270POPC   PO4 3603   1.677   5.059   4.151  0.1813  0.2377 -0.0570
  270POPC   GL1 3604   1.788   4.819   4.503  0.0104  0.1177  0.0154
  270POPC   GL2 3605   1.842   4.444   4.671  0.0960 -0.1762 -0.1160
  270POPC   C1A 3606   1.572   4.786   4.924  0.0538 -0.1914 -0.0934
  270POPC   D2A 3607   1.558   4.581   5.318  0.1627 -0.0142 -0.1692
  270POPC   C3A 3608   1.929   4.601   5.539 -0.2481 -0.1957 -0.4053
  270POPC   C4A 3609   2.235   4.284   5.740 -0.2579  0.0564  0.1541
  270POPC   C1B 3610   1.754   4.216   5.039 -0.2927  0.0467 -0.1465
  270POPC   C2B 3611   1.887   4.157   5.373  0.0968  0.2442  0.1920
  270POPC   C3B 3612   1.907   3.845   5.772  0.0114  0.2701 -0.0128
  270POPC   C4B 3613   2.067   3.864   6.078 -0.2313  0.1369  0.0001
  271POPC   NC3 3614   8.207   4.770   3.889  0.0378  0.1632  0.3222
  271POPC   PO4 3615   8.506   4.488   4.158  0.0390  0.0159 -0.0499
  271POPC   GL1 3616   8.366   4.243   4.526 -0.0796 -0.2769  0.1196
  271POPC   GL2 3617   8.030   4.054   4.697  0.2679 -0.1023 -0.2635
  271POPC   C1A 3618   8.521   4.218   4.910  0.3258  0.3385 -0.2318
  271POPC   D2A 3619   8.660   4.603   5.049 -0.3087  0.2270 -0.0651
  271POPC   C3A 3620   8.381   4.689   5.260  0.0890 -0.4112 -0.2719
  271POPC   C4A 3621   7.886   4.834   5.302 -0.0440  0.0818  0.1473
  271POPC   C1B 3622   8.165   3.843   5.061 -0.1540 -0.1833 -0.0528
  271POPC   C2B 3623   8.202   3.942   5.507  0.0612  0.1243 -0.0143
  271POPC   C3B 3624   8.389   3.649   5.747  0.0632  0.0846 -0.1904
  271POPC   C4B 3625   8.316   3.167   5.628  0.0366 -0.0236  0.2580
  272POPC   NC3 3626   5.667   2.372   4.473 -0.0198  0.0947 -0.3531
  272POPC   PO4 3627   5.186   2.380   4.552 -0.0158  0.1079  0.0778
  272POPC   GL1 3628   5.140   2.427   4.964  0.2703 -0.0234 -0.5199
  272POPC   GL2 3629   4.890   2.079   5.162  0.0515 -0.0272  0.0417
  272POPC   C1A 3630   5.314   2.368   5.413  0.3140 -0.0758  0.3519
  272POPC   D2A 3631   5.659   2.199   5.494  0.3352  0.2355 -0.1020
  272POPC   C3A 3632   5.541   1.843   5.618 -0.0882 -0.2751 -0.1273
  272POPC   C4A 3633   5.788   1.580   5.683 -0.0350  0.0912  0.2045
  272POPC   C1B 3634   4.788   2.142   5.500  0.0723 -0.4067  0.0838
  272POPC   C2B 3635   4.486   2.391   5.889  0.2750  0.0896 -0.1060
  272POPC   C3B 3636   4.662   2.299   6.356  0.1670  0.2018 -0.0876
  272POPC   C4B 3637   4.864   2.357   6.750 -0.1869 -0.1248 -0.4047
  273POPC   NC3 3638   7.361   5.693   4.549 -0.0158 -0.3372  0.0692
  273POPC   PO4 3639   7.301   5.238   4.563 -0.2361 -0.1626 -0.0346
  273POPC   GL1 3640   7.283   5.130   4.987 -0.2708 -0.2755  0.0060
  273POPC   GL2 3641   7.599   5.130   4.943  0.0551 -0.2832 -0.0210
  273POPC   C1A 3642   7.382   5.198   5.451  0.0358  0.2094  0.3889
  273POPC   D2A 3643   7.564   4.890   5.802 -0.0335 -0.1917 -0.1453
  273POPC   C3A 3644   7.772   4.974   6.169  0.1875  0.0331 -0.1260
  273POPC   C4A 3645   7.847   5.253   6.382 -0.0477 -0.0769  0.3471
  273POPC   C1B 3646   7.863   5.291   5.208  0.2823  0.0154 -0.4443
  273POPC   C2B 3647   8.057   5.198   5.602 -0.3364 -0.2859 -0.2643
  273POPC   C3B 3648   8.245   4.942   5.794 -0.0951  0.1626 -0.1484
  273POPC   C4B 3649   8.530   4.605   6.021  0.0673 -0.3511 -0.1444
  274POPC   NC3 3650   0.717   7.753   3.633  0.2100 -0.2688 -0.0325
  274POPC   PO4 3651   1.087   7.594   3.747 -0.2694 -0.0943 -0.0377
  274POPC   GL1 3652   1.102   7.884   4.073  0.2648  0.2590 -0.2738
  274POPC   GL2 3653   0.926   7.853   4.480 -0.0765  0.2747 -0.1741
  274POPC   C1A 3654   1.324   8.148   4.400 -0.1069 -0.0272  0.3004
  274POPC   D2A 3655   1.568   8.361   4.596  0.2868  0.1750 -0.1117
  274POPC   C3A 3656   1.633   8.383   4.997  0.1905  0.1385 -0.0857
  274POPC   C4A 3657   1.811   8.316   5.439 -0.0677  0.0176 -0.0354
  274POPC   C1B 3658   0.677   7.786   4.769  0.2345 -0.0502  0.1719
  274POPC   C2B 3659   0.634   7.774   5.269 -0.0270  0.1618 -0.3491
  274POPC   C3B 3660   0.668   7.685   5.790  0.1001  0.0347 -0.1280
  274POPC   C4B 3661   1.079   7.680   6.146  0.0202  0.2308 -0.0170
  275POPC   NC3 3662   3.059   5.097   3.955 -0.1259 -0.1652  0.2224
  275POPC   PO4 3663   3.297   4.981   4.218 -0.0664 -0.1249 -0.0135
  275POPC   GL1 3664   3.322   5.154   4.589 -0.2569 -0.2711  0.1709
  275POPC   GL2 3665   3.229   5.459   4.563 -0.1491  0.2185 -0.2636
  275POPC   C1A 3666   3.624   5.367   4.854  0.0345 -0.0852 -0.1741
  275POPC   D2A 3667   3.535   5.609   5.252  0.3385  0.4353 -0.1100
  275POPC   C3A 3668   3.280   5.637   5.536  0.1241  0.0073  0.1233
  275POPC   C4A 3669   2.906   5.808   5.639  0.0893  0.1611 -0.4243
  275POPC   C1B 3670   2.998   5.124   4.930 -0.3134  0.0983  0.1585
  275POPC   C2B 3671   2.915   4.770   5.294 -0.0604 -0.0551 -0.3646
  275POPC   C3B 3672   3.146   4.756   5.678  0.1062 -0.3287  0.2719
  275POPC   C4B 3673   3.289   4.976   6.043  0.3441 -0.2011  0.0367
  276POPC   NC3 3674   8.855   7.822   4.615  0.1111  0.0028  0.0586
  276POPC   PO4 3675   8.544   8.206   4.458 -0.2446  0.2061 -0.1301
  276POPC   GL1 3676   8.662   8.158   4.916 -0.0767  0.2043 -0.0252
  276POPC   GL2 3677   8.874   8.359   5.064  0.0196  0.1697  0.0073
  276POPC   C1A 3678   8.987   7.977   5.286 -0.2462  0.0690 -0.0690
  276POPC   D2A 3679   9.097   7.853   5.650 -0.0897 -0.1388 -0.1879
  276POPC   C3A 3680   8.923   8.148   6.088  0.0981 -0.0785 -0.1999
  276POPC   C4A 3681   8.789   8.289   6.553 -0.0496  0.1705  0.0791
  276POPC   C1B 3682   8.579   8.114   5.432  0.3734  0.0917 -0.0005
  276POPC   C2B 3683   8.531   7.961   5.783 -0.3689  0.1886  0.0825
  276POPC   C3B 3684   8.262   8.131   6.066  0.2416  0.1265 -0.2845
  276POPC   C4B 3685   7.873   8.137   6.158 -0.4065 -0.2801  0.2457
  277POPC   NC3 3686   0.566   6.641   4.040 -0.0508 -0.0015 -0.1080
  277POPC   PO4 3687   0.700   6.441   4.477  0.1628 -0.1600  0.0300
  277POPC   GL1 3688   0.926   6.415   4.870 -0.0294 -0.2499 -0.2656
  277POPC   GL2 3689   1.090   6.607   5.068 -0.0811 -0.0963 -0.2616
  277POPC   C1A 3690   0.900   6.069   5.129  0.4811  0.0507  0.0030
  277POPC   D2A 3691   0.757   5.944   5.604 -0.0941 -0.0621 -0.0333
  277POPC   C3A 3692   0.835   5.581   5.776  0.3148 -0.3386  0.3501
  277POPC   C4A 3693   0.978   5.219   5.528  0.1371  0.1375  0.1383
  277POPC   C1B 3694   0.627   6.462   5.286 -0.0362 -0.5553  0.2515
  277POPC   C2B 3695   0.346   6.410   5.641  0.1486  0.0448 -0.0881
  277POPC   C3B 3696   0.346   6.095   6.003  0.4547 -0.0853  0.0137
  277POPC   C4B 3697   0.637   5.818   6.142 -0.1732 -0.0294  0.0852
  278POPC   NC3 3698   0.225   8.390   4.193  0.5367  0.3268  0.0532
  278POPC   PO4 3699  -0.194   8.410   4.343 -0.1049  0.1107  0.2571
  278POPC   GL1 3700  -0.038   8.447   4.732  0.0336  0.0843  0.1586
  278POPC   GL2 3701   0.114   8.149   4.691  0.0673 -0.0722 -0.1853
  278POPC   C1A 3702   0.132   8.480   5.199  0.1692 -0.3657 -0.3067
  278POPC   D2A 3703   0.256   8.488   5.688  0.4142 -0.2219 -0.2476
  278POPC   C3A 3704   0.209   8.245   6.053 -0.0722 -0.1511  0.2191
  278POPC   C4A 3705   0.350   8.149   6.503  0.2460 -0.0865 -0.4284
  278POPC   C1B 3706   0.476   8.214   4.896 -0.0843  0.2431 -0.0755
  278POPC   C2B 3707   0.744   8.330   5.209  0.1473  0.2935 -0.0433
  278POPC   C3B 3708   0.749   8.206   5.637  0.1214 -0.2589  0.2833
  278POPC   C4B 3709   0.722   8.168   6.125  0.2043  0.3054 -0.2675
  279POPC   NC3 3710   8.268   0.606   4.290  0.1604 -0.0543  0.3684
  279POPC   PO4 3711   8.618   0.602   4.532 -0.2613 -0.1479 -0.0888
  279POPC   GL1 3712   8.573   0.665   4.926 -0.0426  0.1680  0.1496
  279POPC   GL2 3713   8.319   0.873   5.159  0.0615  0.0940  0.0683
  279POPC   C1A 3714   8.686   0.596   5.348 -0.1104 -0.0113  0.0857
  279POPC   D2A 3715   8.946   0.278   5.619 -0.1035  0.1433 -0.2715
  279POPC   C3A 3716   9.054   0.371   6.128  0.1082  0.0543  0.3336
  279POPC   C4A 3717   9.378   0.377   6.526  0.2329  0.0698  0.1495
  279POPC   C1B 3718   8.277   0.735   5.512  0.3323 -0.2564 -0.0239
  279POPC   C2B 3719   8.407   0.387   5.671  0.3616  0.0082 -0.2919
  279POPC   C3B 3720   8.603   0.176   5.970 -0.1148  0.0169 -0.0076
  279POPC   C4B 3721   8.724   0.065   6.346  0.1501  0.2205 -0.1334
  280POPC   NC3 3722   4.980   7.323   4.320  0.1589  0.0047 -0.1898
  280POPC   PO4 3723   5.054   6.899   4.229  0.2595 -0.1285 -0.1873
  280POPC   GL1 3724   5.384   7.098   4.538  0.0148  0.0659  0.0402
  280POPC   GL2 3725   5.132   7.139   4.831 -0.0999  0.2083  0.0482
  280POPC   C1A 3726   5.767   7.148   4.703 -0.1729  0.0895  0.1623
  280POPC   D2A 3727   5.971   7.273   4.967  0.4004 -0.4540 -0.1308
  280POPC   C3A 3728   6.006   7.559   4.908  0.1121  0.0569  0.0739
  280POPC   C4A 3729   5.679   7.873   4.968  0.0936 -0.0764  0.0963
  280POPC   C1B 3730   4.948   6.859   5.121  0.0325  0.1108  0.0669
  280POPC   C2B 3731   4.879   6.945   5.499  0.0825 -0.0277 -0.2187
  280POPC   C3B 3732   5.037   6.680   5.913 -0.1313 -0.1123  0.3461
  280POPC   C4B 3733   4.918   6.332   6.184  0.1097  0.0515 -0.1211
  281POPC   NC3 3734   4.760   1.627   4.935 -0.2887 -0.1416 -0.3472
  281POPC   PO4 3735   5.136   1.527   4.821 -0.0004 -0.0256  0.1806
  281POPC   GL1 3736   5.184   1.720   5.202 -0.1622 -0.1743  0.0963
  281POPC   GL2 3737   5.256   1.415   5.417  0.1112 -0.0291  0.0406
  281POPC   C1A 3738   5.056   1.797   5.653 -0.1282  0.1324 -0.0323
  281POPC   D2A 3739   4.853   1.931   5.994  0.1113  0.1776  0.1283
  281POPC   C3A 3740   5.143   2.210   6.242 -0.0679  0.2270 -0.1087
  281POPC   C4A 3741   5.238   2.616   6.420  0.0865  0.2878  0.0398
  281POPC   C1B 3742   5.376   1.324   5.837 -0.2433  0.0393  0.1232
  281POPC   C2B 3743   5.363   1.084   6.318 -0.1397 -0.1166  0.1790
  281POPC   C3B 3744   5.484   0.887   6.663 -0.0597 -0.1064 -0.2304
  281POPC   C4B 3745   5.584   0.975   7.160  0.3448  0.1717  0.2434
  282POPC   NC3 3746   8.180   8.858   4.619  0.1674  0.1454  0.2214
  282POPC   PO4 3747   8.213   9.226   4.699 -0.1681  0.0534  0.3131
  282POPC   GL1 3748   8.411   9.530   4.979 -0.2489  0.0204  0.1744
  282POPC   GL2 3749   8.473   9.890   4.996 -0.0932 -0.1995  0.1023
  282POPC   C1A 3750   8.302   9.616   5.418  0.0447  0.1760 -0.4473
  282POPC   D2A 3751   8.035   9.435   5.628 -0.1557  0.1570 -0.1917
  282POPC   C3A 3752   8.108   9.284   6.024 -0.4062 -0.1973 -0.1616
  282POPC   C4A 3753   7.997   9.051   6.453 -0.1939  0.2148  0.3668
  282POPC   C1B 3754   8.737   9.755   5.253 -0.0606 -0.1300  0.2035
  282POPC   C2B 3755   9.162   9.682   5.285  0.1704  0.2721  0.0878
  282POPC   C3B 3756   9.508   9.707   5.412 -0.0345 -0.1858  0.1628
  282POPC   C4B 3757   9.931   9.646   5.315  0.0399 -0.4888 -0.2831
  283POPC   NC3 3758   3.333   1.775   3.817 -0.1917  0.0204 -0.1889
  283POPC   PO4 3759   3.079   2.229   3.805 -0.4849  0.0718  0.1747
  283POPC   GL1 3760   2.772   2.244   4.142 -0.0280  0.0179 -0.0535
  283POPC   GL2 3761   2.824   2.410   4.420 -0.1522 -0.4505  0.0573
  283POPC   C1A 3762   2.326   2.389   4.297 -0.2403  0.2439  0.1794
  283POPC   D2A 3763   2.061   2.679   4.354  0.3314 -0.1994 -0.0640
  283POPC   C3A 3764   2.129   3.087   4.576  0.4964 -0.1118 -0.1819
  283POPC   C4A 3765   2.331   3.010   5.006  0.0943  0.3311  0.0829
  283POPC   C1B 3766   2.700   2.127   4.737 -0.0922 -0.2282 -0.1784
  283POPC   C2B 3767   2.517   2.047   5.127  0.2924  0.1177  0.1651
  283POPC   C3B 3768   2.059   1.886   5.132  0.0699  0.0670  0.1864
  283POPC   C4B 3769   1.775   1.684   4.811 -0.0448 -0.0779 -0.1550
  284POPC   NC3 3770   6.849   8.882   4.167  0.0512  0.0727 -0.0521
  284POPC   PO4 3771   6.815   8.976   4.527 -0.1569 -0.1671 -0.1209
  284POPC   GL1 3772   6.795   8.642   4.803  0.1236  0.1847  0.1242
  284POPC   GL2 3773   7.055   8.378   4.799 -0.1937 -0.1451  0.0851
  284POPC   C1A 3774   6.562   8.567   5.120 -0.0632  0.1577  0.2735
  284POPC   D2A 3775   6.606   8.211   5.445  0.0576 -0.2041  0.1521
  284POPC   C3A 3776   6.858   8.241   5.730 -0.0099 -0.0830 -0.4994
  284POPC   C4A 3777   6.826   8.060   6.031 -0.4113  0.0874  0.1215
  284POPC   C1B 3778   7.033   8.304   5.196 -0.1889 -0.2222  0.0600
  284POPC   C2B 3779   7.295   8.383   5.504 -0.2023  0.4040 -0.1329
  284POPC   C3B 3780   7.657   8.550   5.718  0.3666 -0.2930  0.0209
  284POPC   C4B 3781   7.680   8.958   5.898 -0.1984 -0.2013 -0.0249
  285POPC   NC3 3782   6.285   0.159   4.977  0.3996  0.0810  0.0194
  285POPC   PO4 3783   6.361   0.486   5.249  0.1032  0.1638  0.1318
  285POPC   GL1 3784   6.078   0.331   5.467 -0.0783  0.2663  0.2817
  285POPC   GL2 3785   5.903   0.100   5.337 -0.2332 -0.1990  0.2524
  285POPC   C1A 3786   5.764   0.229   5.796 -0.0880  0.1000  0.3207
  285POPC   D2A 3787   5.296   0.144   5.685  0.0418 -0.0964 -0.0909
  285POPC   C3A 3788   5.046   0.446   5.574 -0.2466 -0.1011  0.1775
  285POPC   C4A 3789   4.622   0.381   5.422  0.3787  0.3143  0.0529
  285POPC   C1B 3790   5.620  -0.284   5.468  0.0438  0.0509  0.0482
  285POPC   C2B 3791   5.541  -0.770   5.809  0.0796  0.0515 -0.0586
  285POPC   C3B 3792   5.430  -0.751   6.223  0.4696 -0.1970 -0.2011
  285POPC   C4B 3793   5.279  -0.969   6.640 -0.3943 -0.0804 -0.0740
  286POPC   NC3 3794   3.869   8.204   4.482  0.1156  0.0779 -0.4647
  286POPC   PO4 3795   3.989   8.541   4.410  0.0853 -0.1544 -0.2459
  286POPC   GL1 3796   4.018   8.524   4.880  0.0565  0.1823  0.0322
  286POPC   GL2 3797   3.820   8.257   4.996 -0.2035 -0.0565  0.0927
  286POPC   C1A 3798   4.002   8.625   5.301  0.1602  0.3031 -0.1641
  286POPC   D2A 3799   3.701   8.895   5.374  0.0541 -0.1879  0.2545
  286POPC   C3A 3800   3.287   9.011   5.578  0.2846 -0.1443  0.0957
  286POPC   C4A 3801   2.971   9.177   5.484 -0.2125  0.2997 -0.0173
  286POPC   C1B 3802   3.953   8.120   5.390 -0.1256 -0.2646 -0.0663
  286POPC   C2B 3803   4.146   7.971   5.788  0.0602  0.1210  0.0358
  286POPC   C3B 3804   4.359   7.608   6.031  0.0664  0.0602  0.1791
  286POPC   C4B 3805   4.743   7.719   6.260 -0.5950  0.0880  0.0060
  287W        W 3806   9.489   8.119  11.946 -0.3133  0.2725  0.4835
  288W        W 3807   9.185   2.669   1.713 -0.0095  0.3043 -0.0781
  289W        W 3808   3.682   7.424  10.473  0.2687 -0.1468  0.0824
  290W        W 3809   7.783   8.616  10.233  0.2635  0.5415  0.1688
  291W        W 3810   9.393   1.358  11.099  0.1569  0.1370  0.1117
  292W        W 3811   4.699   8.627   0.626  0.2059  0.0010 -0.0415
  293W        W 3812   8.932   9.068  11.316 -0.0075 -0.1392  0.0292
  294W        W 3813   9.497   9.336   2.703 -0.0603 -0.0961 -0.2579
  295W        W 3814   3.912   3.132   1.086  0.1410 -0.4164 -0.1019
  296W        W 3815   3.148   1.949   0.841  0.0428 -0.0369 -0.1875
  297W        W 3816   7.332   0.110   4.168  0.1471 -0.2079  0.1942
  298W        W 3817   2.877   5.404  11.636  0.0888  0.1217  0.1431
  299W        W 3818   7.210   6.595  11.853 -0.1238  0.2766 -0.0250
  300W        W 3819   5.796   0.653  11.802  0.0448 -0.1701  0.1241
  301W        W 3820   6.164   4.848   0.102  0.4463  0.0975  0.2696
  302W        W 3821   6.577   9.393   9.808  0.2370 -0.1963  0.0273
  303W        W 3822   3.219   8.169   9.490  0.0467  0.2274 -0.1228
  304W        W 3823   2.317   7.092   9.090 -0.2530 -0.3273 -0.0219
  305W        W 3824   5.273   1.234   3.800 -0.0113  0.0381 -0.1416
  306W        W 3825   8.241   3.926   9.700  0.0850 -0.1161  0.2080
  307W        W 3826   6.363   7.729  11.423  0.2602  0.1916  0.0554
  308W        W 3827   8.635   4.119  11.569  0.3128 -0.0026  0.3103
  309W        W 3828   4.060   2.565   8.817 -0.2547 -0.2090  0.2005
  310W        W 3829   9.367   6.230   4.145 -0.0362 -0.2708 -0.2265
  311W        W 3830   8.213   4.672   1.161  0.1787  0.2838 -0.1134
  312W        W 3831   5.185   4.166   8.540  0.2731  0.1125  0.1591
  313W        W 3832   3.337   1.086   2.393 -0.0968 -0.0862 -0.1821
  314W        W 3833   3.299   8.676   0.940  0.0341 -0.1263 -0.2670
  315W        W 3834   8.581   0.621   1.215  0.1175 -0.1562 -0.2182
  316W        W 3835   0.756   4.580  10.915  0.3085  0.1369 -0.1251
  317W        W 3836   9.350   8.724   1.671 -0.1432 -0.2681  0.0874
  318W        W 3837   9.058   0.105   9.237  0.1202 -0.2364  0.1954
  319W        W 3838   6.271   5.807   1.727  0.0741 -0.0328  0.1202
  320W        W 3839   0.600   5.143  11.067 -0.1771  0.1281 -0.0040
  321W        W 3840   6.788   0.927  10.734 -0.2572 -0.0058 -0.0654
  322W        W 3841   1.754   3.130  12.405  0.1198 -0.0852 -0.2050
  323W        W 3842   2.896   5.842   7.895 -0.0358  0.0758  0.3006
  324W        W 3843   8.990   7.747   8.259 -0.2323 -0.2483 -0.1193
  325W        W 3844   7.646   2.685   8.790 -0.2608  0.0964 -0.1247
  326W        W 3845   3.613   3.059  11.294  0.1750 -0.1100 -0.0314
  327W        W 3846   4.293   4.754  10.854 -0.1887  0.0589 -0.0406
  328W        W 3847   3.667   1.118   8.420  0.3653 -0.0320  0.0434
  329W        W 3848   1.869   0.289   2.629  0.1172  0.5490 -0.2342
  330W        W 3849   6.541   7.975   1.521 -0.4286  0.0124  0.0574
  331W        W 3850   4.000   8.122  11.949  0.2057 -0.1775  0.1038
  332W        W 3851   7.415   5.366   4.095  0.4959 -0.0522  0.0066
  333W        W 3852   8.817   7.335   9.559  0.0212 -0.0761 -0.1668
  334W        W 3853   1.627   7.177  11.947  0.3552  0.2266  0.1866
  335W        W 3854   7.891   9.309   9.620  0.1636 -0.1911 -0.4759
  336W        W 3855   5.021   3.760  12.319 -0.0918  0.1209 -0.1404
  337W        W 3856   3.351   7.491  11.311  0.1482 -0.2884  0.2154
  338W        W 3857   5.387   6.411  10.585 -0.1566  0.2779 -0.1419
  339W        W 3858   0.518   5.401   9.759 -0.1170  0.1031  0.1213
  340W        W 3859   0.342   5.063   0.821  0.2200 -0.2271 -0.0027
  341W        W 3860   3.368   1.174  10.761  0.0248  0.0117 -0.2026
  342W        W 3861   3.538   7.365   9.921 -0.0905  0.0596 -0.3306
  343W        W 3862   5.634   9.333   3.083 -0.1096 -0.1792 -0.0488
  344W        W 3863   8.450   0.485   8.192  0.0571 -0.1446  0.1697
  345W        W 3864   4.562   1.623   9.843 -0.3819 -0.1040  0.0390
  346W        W 3865   3.860   0.393   2.889  0.2453 -0.0415  0.2309
  347W        W 3866   9.159   3.160  10.353 -0.1694  0.1524 -0.0211
  348W        W 3867   1.514   4.136   1.975  0.0492 -0.1890 -0.2171
  349W        W 3868   4.528   0.555   1.075 -0.0199 -0.2963  0.0074
  350W        W 3869   5.944   7.636   9.491  0.0119 -0.0147  0.0263
  351W        W 3870   0.048   3.740  10.968 -0.1266 -0.0586  0.0288
  352W        W 3871   6.503   8.625   2.934  0.1025 -0.1109  0.2247
  353W        W 3872   5.261   4.078   9.066 -0.2977 -0.0015 -0.1757
  354W        W 3873   1.990   6.852  10.276 -0.1169  0.3152 -0.1038
  355W        W 3874   3.458   3.480  10.978 -0.0352  0.2073  0.4219
  356W        W 3875   2.461   7.814  12.049  0.0185  0.0825 -0.2508
  357W        W 3876   4.525   0.610   4.130  0.2852  0.1467  0.0402
  358W        W 3877   2.155   5.870   8.341 -0.0614  0.2567 -0.0149
  359W        W 3878   7.620   0.196   2.387  0.0679  0.0148 -0.0285
  360W        W 3879   5.035   6.980  10.038 -0.3737 -0.1277  0.0714
  361W        W 3880   2.062   2.963   1.167  0.1330 -0.0076  0.0364
  362W        W 3881   3.115   2.305   8.826 -0.2529 -0.3135 -0.0189
  363W        W 3882   6.625   1.279   1.731  0.2556 -0.0235 -0.2015
  364W        W 3883   6.322   6.092   3.158  0.1057 -0.2312 -0.0671
  365W        W 3884   3.073   4.151   0.606 -0.1369  0.2466  0.3293
  366W        W 3885   6.791   1.333   2.223 -0.2219  0.1675  0.0806
  367W        W 3886   8.647   0.808   9.442  0.0301 -0.1222 -0.1325
  368W        W 3887   0.589   9.173   0.067 -0.2484 -0.3847  0.0517
  369W        W 3888   4.459   9.183   1.329  0.0529 -0.0043  0.0330
  370W        W 3889   8.766   6.752   9.961  0.4424  0.3603 -0.0294
  371W        W 3890   1.333   8.038  10.668  0.2764  0.1252  0.2264
  372W        W 3891   8.074   1.907   2.286 -0.1255 -0.0217 -0.0612
  373W        W 3892   0.520   6.846  11.233  0.0655  0.1612  0.1237
  374W        W 3893   9.034   3.696   4.013 -0.3790 -0.2421  0.2382
  375W        W 3894   4.482   2.771   4.227 -0.0756  0.2491  0.1040
  376W        W 3895   7.775   2.691   2.176 -0.5109  0.0624 -0.0274
  377W        W 3896   7.751   8.446  11.168  0.2804  0.2467  0.1306
  378W        W 3897   8.504   0.324   9.624  0.0081 -0.0125 -0.2607
  379W        W 3898   2.118   0.052  11.100 -0.2754 -0.1099 -0.0937
  380W        W 3899   0.591   9.653   9.916  0.1464 -0.0603 -0.1570
  381W        W 3900   2.196   1.030  11.375  0.1361 -0.0867  0.0114
  382W        W 3901   3.072   5.942   8.803  0.3605 -0.2078 -0.0529
  383W        W 3902   9.610   5.785   9.878  0.1662 -0.0981  0.1382
  384W        W 3903   2.819   9.329  10.112 -0.2206  0.2804  0.2976
  385W        W 3904   2.915   4.173   9.259  0.1456  0.3709 -0.2606
  386W        W 3905   7.037   3.224   2.424 -0.0738 -0.0441  0.3884
  387W        W 3906   8.105   9.186   1.828  0.0597  0.1048  0.2958
  388W        W 3907   1.545   3.328   1.964  0.0302  0.3200 -0.0075
  389W        W 3908   8.333   5.782  12.032  0.2070  0.1038 -0.1617
  390W        W 3909   6.417   9.076   2.729 -0.0285  0.1102  0.2735
  391W        W 3910   0.088   0.053   0.308 -0.0651 -0.3309  0.2552
  392W        W 3911   7.867   6.617   9.232  0.0848 -0.0455  0.2361
  393W        W 3912   6.426   9.686  11.833 -0.2875 -0.2373 -0.2986
  394W        W 3913   4.653   0.067   3.938 -0.0655 -0.2113 -0.1337
  395W        W 3914   1.455   7.557   9.782 -0.0339  0.3334 -0.2433
  396W        W 3915   0.990   7.985   8.820 -0.3355 -0.0058 -0.0837
  397W        W 3916   7.628   9.279  10.112  0.2654 -0.1393  0.1949
  398W        W 3917   1.175   4.788   3.507 -0.1807 -0.2767 -0.3086
  399W        W 3918   9.577   9.031   2.330  0.1271  0.0627  0.1480
  400W        W 3919   2.823   5.410   3.662 -0.1511 -0.0350 -0.4714
  401W        W 3920   8.989   2.286   7.972  0.1724 -0.0478  0.1994
  402W        W 3921   7.996   0.084   1.971  0.0615 -0.2620  0.0912
  403W        W 3922   2.872   2.311   3.236 -0.0902  0.0441  0.1603
  404W        W 3923   4.844   2.092  12.456  0.3333  0.0400  0.1576
  405W        W 3924   5.987   9.363   4.224 -0.2344 -0.0809 -0.2444
  406W        W 3925   8.486   7.104  10.731  0.1392  0.2149  0.0598
  407W        W 3926   7.208   1.706   0.543 -0.1597 -0.0093  0.0779
  408W        W 3927   0.504   4.106   3.159 -0.1324 -0.0782 -0.0721
  409W        W 3928   5.436   0.492   1.868  0.1299 -0.2386 -0.2420
  410W        W 3929   7.855   0.282   3.330  0.2695  0.1045  0.1238
  411W        W 3930   1.783   2.396   1.782  0.0341  0.2744 -0.1607
  412W        W 3931   8.116   1.051   4.093 -0.0210 -0.0843  0.1378
  413W        W 3932   0.137   5.481   0.935 -0.0385 -0.0947  0.1633
  414W        W 3933   9.009   5.961   9.303  0.0086  0.0504 -0.0039
  415W        W 3934   0.824   3.000  10.192 -0.1755  0.1225  0.3793
  416W        W 3935   8.644   0.240  11.715 -0.1649 -0.0321  0.0888
  417W        W 3936   5.664   1.066  10.366  0.0740  0.0224 -0.2216
  418W        W 3937   4.192   8.076   9.936  0.1137  0.0617 -0.3449
  419W        W 3938   2.648   3.159   8.690 -0.0028 -0.0116 -0.0682
  420W        W 3939   9.356   3.413   2.293  0.0788  0.1120 -0.1155
  421W        W 3940   5.574   7.202  11.766  0.0450  0.0200  0.2501
  422W        W 3941   3.707   7.245  11.062  0.2028  0.1087 -0.1187
  423W        W 3942   3.957   7.146   1.489 -0.4542  0.0080 -0.0796
  424W        W 3943   1.162   7.303   8.586  0.1926 -0.1680  0.1171
  425W        W 3944   7.897   7.591   9.640  0.0675 -0.0244 -0.1423
  426W        W 3945   2.953   0.374   0.329 -0.0988 -0.1196 -0.1919
  427W        W 3946   5.714   5.259   1.155  0.0121 -0.2178  0.0230
  428W        W 3947   6.963   0.687   9.288  0.2468  0.0937  0.1024
  429W        W 3948   9.033   3.605   0.149 -0.0987 -0.0945  0.3439
  430W        W 3949   1.019   6.106   1.749  0.2175 -0.1808 -0.2013
  431W        W 3950   2.572   5.570   0.033 -0.0505 -0.1493 -0.2119
  432W        W 3951   4.812   6.444   4.088 -0.2619 -0.0733  0.1052
  433W        W 3952   0.999   2.212   1.441 -0.2557  0.0810  0.0047
  434W        W 3953   7.866   4.346   3.876  0.0667 -0.1235 -0.1682
  435W        W 3954   1.181   6.306  10.373 -0.1778 -0.2620  0.2472
  436W        W 3955   4.762   6.725   9.251 -0.0091  0.0113  0.1538
  437W        W 3956   5.358   2.171   2.201 -0.0823  0.4768  0.0284
  438W        W 3957   3.694   1.784  10.248  0.1421  0.1617 -0.0336
  439W        W 3958   6.727   1.492  11.614  0.0433  0.1451  0.1226
  440W        W 3959   7.949   6.068  12.399 -0.2942  0.1604 -0.1124
  441W        W 3960   8.094   6.922   2.591  0.1713 -0.1201 -0.0688
  442W        W 3961   8.616   3.794   0.317  0.1478  0.0019 -0.1084
  443W        W 3962   2.807   5.737  10.290 -0.0907 -0.1555  0.3299
  444W        W 3963   7.470   6.109   2.597 -0.4134 -0.1982  0.1373
  445W        W 3964   8.351   9.164  10.819 -0.0079 -0.1032 -0.0818
  446W        W 3965   5.462   4.163  10.930 -0.0594 -0.3643  0.2808
  447W        W 3966   8.916   6.870   9.455  0.1962 -0.0316 -0.1174
  448W        W 3967   6.953   5.251   2.785  0.1290  0.0045  0.0754
  449W        W 3968   7.677   1.876   9.453 -0.1425 -0.0193 -0.0014
  450W        W 3969   4.758   3.560   3.186 -0.3174 -0.2325  0.1297
  451W        W 3970   0.940   2.090   2.015 -0.1568  0.2467 -0.0595
  452W        W 3971   4.073   5.113   9.161 -0.2283  0.1328 -0.2563
  453W        W 3972   4.425   4.468   9.829 -0.0100 -0.1153 -0.0243
  454W        W 3973   7.691   5.039   8.457  0.1625 -0.0465 -0.0110
  455W        W 3974   5.464   0.148   0.413  0.0509 -0.1578 -0.1467
  456W        W 3975   7.330   8.228  12.221  0.0006  0.1676 -0.1087
  457W        W 3976   5.347   9.284  10.873 -0.1182  0.3079  0.0103
  458W        W 3977   1.998   5.839   8.974 -0.4144 -0.0023  0.5400
  459W        W 3978   8.466   1.897   2.720  0.1040 -0.0049  0.2217
  460W        W 3979   7.793   0.981   3.728 -0.0709 -0.1213 -0.1694
  461W        W 3980   4.128   1.432   2.644  0.1138 -0.0795  0.3182
  462W        W 3981   9.704   5.486   0.462 -0.2927  0.1881  0.2763
  463W        W 3982   8.035   2.495   0.762 -0.0209 -0.0100  0.1279
  464W        W 3983   0.696   9.325   9.552 -0.1810 -0.0003 -0.0131
  465W        W 3984   3.740   8.618   1.166 -0.0499  0.1706 -0.1415
  466W        W 3985   4.615   0.573  11.470  0.2707 -0.0844  0.1170
  467W        W 3986   2.751   5.433  10.707 -0.0623 -0.1199 -0.1152
  468W        W 3987   8.573   8.473   9.349  0.1639  0.1635  0.3749
  469W        W 3988   3.808   9.702   1.546 -0.0332 -0.1512  0.2567
  470W        W 3989   9.372   7.549   0.612 -0.2602 -0.1919  0.1300
  471W        W 3990   3.656   5.967   1.733  0.0135 -0.0283 -0.0671
  472W        W 3991   5.067   9.242   4.639 -0.3104  0.2065  0.1074
  473W        W 3992   6.591   6.009   8.601 -0.0959  0.0055 -0.0437
  474W        W 3993   6.054   7.570   0.162  0.0839  0.1533 -0.0134
  475W        W 3994   7.157   0.454  11.980  0.0820  0.3198  0.3110
  476W        W 3995   4.360   2.983   9.993  0.0181 -0.3170 -0.0055
  477W        W 3996   6.565   3.286   9.509  0.1228 -0.2027 -0.0053
  478W        W 3997   8.857   5.058   9.302 -0.1372  0.0564 -0.1484
  479W        W 3998   4.972   6.618  10.401  0.0778  0.0488  0.1329
  480W        W 3999   4.752   2.518  11.368 -0.4493  0.0738  0.4837
  481W        W 4000   8.895   9.436   0.906 -0.0062  0.2761 -0.4380
  482W        W 4001   4.043   6.065   8.641 -0.0010 -0.2659 -0.1957
  483W        W 4002   5.480   2.831   4.670 -0.2931  0.2128  0.3189
  484W        W 4003   3.874   7.500   2.623  0.1761 -0.0853  0.0687
  485W        W 4004   8.333   5.798   2.787  0.0115  0.1670  0.1366
  486W        W 4005   8.374   4.658   8.984 -0.1272 -0.0635 -0.0050
  487W        W 4006   4.713   2.851   4.954 -0.1388 -0.0399  0.1033
  488W        W 4007   2.721   4.682  11.837  0.1773  0.2263  0.2601
  489W        W 4008   0.175   9.535  10.391  0.2351 -0.0798 -0.0173
  490W        W 4009   4.073   0.490   3.897 -0.0422 -0.5130 -0.1982
  491W        W 4010   7.858   8.500   1.343  0.1323  0.3192  0.1306
  492W        W 4011   4.744   1.901   2.914 -0.0798  0.2156 -0.2885
  493W        W 4012   0.814   5.592   1.965  0.1308 -0.0818  0.2464
  494W        W 4013   8.716   4.213   8.661  0.1750  0.0635  0.2361
  495W        W 4014   8.938   5.884   9.879 -0.2201  0.4593  0.0014
  496W        W 4015   4.871   7.348   8.732 -0.2481  0.2833 -0.0003
  497W        W 4016   1.720   4.449   7.802  0.0620 -0.1615  0.0331
  498W        W 4017   2.602   8.619   1.738 -0.1771 -0.3604 -0.2652
  499W        W 4018   3.870   3.019   8.719 -0.2158 -0.1901 -0.1802
  500W        W 4019   5.002   0.114   3.529  0.2503  0.3593 -0.5027
  501W        W 4020   4.814   0.911  10.325 -0.1032  0.1290 -0.3279
  502W        W 4021   3.238   7.273   4.463 -0.3180  0.0985 -0.0046
  503W        W 4022   3.115   1.384   2.722  0.1086 -0.0946 -0.2922
  504W        W 4023   1.602   6.098   9.155 -0.2297  0.1485  0.1384
  505W        W 4024   4.872   4.225   1.585 -0.6052  0.2191  0.0214
  506W        W 4025   8.725   6.552   1.393  0.3198 -0.0994 -0.1227
  507W        W 4026   4.021   3.190  12.353 -0.0737  0.0316  0.0695
  508W        W 4027   8.478   4.545   3.192 -0.0190 -0.0908  0.0007
  509W        W 4028   1.487   3.824  10.008 -0.4346 -0.1635 -0.0904
  510W        W 4029   7.144   5.372  11.504 -0.0242  0.0630 -0.3824
  511W        W 4030   8.230   5.356  11.702 -0.2771  0.0594  0.0487
  512W        W 4031   7.450   0.420   4.983 -0.0510  0.0014  0.0638
  513W        W 4032   8.204   6.651   9.600  0.1718 -0.3010  0.0835
  514W        W 4033   7.287   1.315   0.891 -0.0109  0.1220 -0.1617
  515W        W 4034   5.406   4.308   1.432 -0.1050 -0.1404 -0.1393
  516W        W 4035   6.488   0.108  11.311 -0.1853 -0.1635 -0.2233
  517W        W 4036   2.604   4.203   7.739  0.0102  0.1542  0.0414
  518W        W 4037   2.127   8.152   0.537  0.0025  0.1837 -0.1365
  519W        W 4038   8.658   7.715  12.457  0.1860 -0.0186 -0.0850
  520W        W 4039   7.589   8.480   0.307 -0.0289 -0.3368 -0.1611
  521W        W 4040   4.830   3.020  10.438  0.0818 -0.1936 -0.0185
  522W        W 4041   0.104   4.439   3.181 -0.0635 -0.0835 -0.1446
  523W        W 4042   6.222   1.077   1.455  0.1236  0.0638 -0.3894
  524W        W 4043   8.626   8.782   1.724 -0.0549  0.0018  0.0250
  525W        W 4044   5.132   7.063  12.128 -0.0607  0.0077 -0.1984
  526W        W 4045   0.611   1.818   2.415 -0.0605 -0.0501 -0.0174
  527W        W 4046   7.663   0.234   1.348  0.2611  0.1121 -0.0942
  528W        W 4047   1.997   4.301   1.235  0.2799 -0.0037 -0.0350
  529W        W 4048   6.753   5.618   0.167 -0.0172  0.1884 -0.2605
  530W        W 4049   2.510   1.186   1.637  0.2108 -0.2164 -0.0849
  531W        W 4050   0.028   8.790   1.372  0.1168  0.1228  0.0739
  532W        W 4051   5.975   9.354   9.048  0.0536 -0.0039  0.0174
  533W        W 4052   2.015   4.463   9.333  0.0413 -0.0023 -0.1996
  534W        W 4053   2.836   1.049   2.428  0.3629 -0.0142 -0.0551
  535W        W 4054   9.039   1.058  11.376 -0.2670 -0.0990  0.0878
  536W        W 4055   7.159   7.786  10.506  0.2632 -0.0111 -0.1656
  537W        W 4056   6.218   3.249  11.368 -0.1676  0.1180  0.1211
  538W        W 4057   4.177   2.203   1.381  0.1260 -0.2104 -0.0371
  539W        W 4058   8.617   7.836  11.015  0.3101  0.1087 -0.0856
  540W        W 4059   2.046   5.484   0.414  0.1290 -0.1456  0.1456
  541W        W 4060   3.214   4.871   2.082  0.0716  0.3577  0.1649
  542W        W 4061   4.829   7.811  11.449 -0.3023 -0.2821  0.5557
  543W        W 4062   4.765   4.578  10.832 -0.0866  0.3249  0.0860
  544W        W 4063   2.002   8.722  11.536 -0.1562  0.1185 -0.2639
  545W        W 4064   3.935   3.909   2.259 -0.0183 -0.0275  0.2540
  546W        W 4065   8.388   2.810   8.888 -0.2872 -0.0745  0.2313
  547W        W 4066   1.038   4.969   1.928  0.2570 -0.4374 -0.0091
  548W        W 4067   3.799   3.401   0.689  0.2474 -0.2786  0.0278
  549W        W 4068   7.686   0.877   4.338 -0.1965 -0.3326 -0.1472
  550W        W 4069   6.814   9.152   1.535 -0.2608 -0.2054  0.0156
  551W        W 4070   3.171   9.693  10.066  0.1856  0.0250 -0.0530
  552W        W 4071   2.269   0.658  12.265  0.0274 -0.1946 -0.2603
  553W        W 4072   8.446   1.073   8.544 -0.1058  0.1874 -0.1983
  554W        W 4073   6.643   7.451   2.324  0.0651 -0.1128 -0.3208
  555W        W 4074   5.946   0.680  12.389  0.2021 -0.3171  0.2103
  556W        W 4075   5.790   8.548  11.247 -0.2824  0.0985 -0.1989
  557W        W 4076   7.909   7.589   4.207 -0.1014 -0.4991  0.0467
  558W        W 4077   6.814   6.496   0.348 -0.2400  0.1238 -0.0158
  559W        W 4078   2.501   7.942   0.967 -0.3458 -0.0632  0.0712
  560W        W 4079   5.641   9.469  11.575  0.2579 -0.0140  0.0186
  561W        W 4080   0.383   9.214   2.187 -0.1092  0.1410 -0.1890
  562W        W 4081   5.848   9.585   0.189  0.2090  0.0575 -0.0251
  563W        W 4082   7.756   1.622   0.996 -0.0406  0.1304  0.1831
  564W        W 4083   4.641   8.014   3.298 -0.0108 -0.1342 -0.2736
  565W        W 4084   7.166   2.510   4.063  0.1124 -0.2356 -0.0767
  566W        W 4085   4.266   3.523   0.895  0.2195 -0.0786 -0.1342
  567W        W 4086   7.030   8.337   2.102  0.1692  0.1456 -0.2226
  568W        W 4087   4.323   2.914  11.897 -0.0097 -0.1071  0.1480
  569W        W 4088   3.110   3.123   3.611 -0.2907 -0.1140 -0.1492
  570W        W 4089   0.071   7.519   9.831  0.0325  0.2282  0.1103
  571W        W 4090   8.459   6.305  11.922  0.0702  0.1082 -0.0376
  572W        W 4091   6.308   6.764  10.914 -0.0370  0.1482  0.1432
  573W        W 4092   5.394   9.405   5.003  0.0780  0.0480 -0.3510
  574W        W 4093   5.205   5.078   7.367 -0.2228 -0.4132 -0.1515
  575W        W 4094   6.260   9.583   2.289  0.0098  0.1191 -0.1013
  576W        W 4095   5.669   3.403   1.328 -0.2511  0.1266  0.1706
  577W        W 4096   0.755   7.055   1.146  0.1961 -0.1609  0.1319
  578W        W 4097   9.012   3.735   0.755 -0.1433 -0.1340  0.0524
  579W        W 4098   6.350   7.005   1.532 -0.1994  0.0140  0.0546
  580W        W 4099   6.955   5.820   2.140 -0.0070 -0.0453 -0.0742
  581W        W 4100   3.490   7.909  11.960  0.0159  0.0380 -0.1798
  582W        W 4101   4.699   9.164   2.452 -0.0953 -0.1543  0.3067
  583W        W 4102   8.452   0.381   3.490 -0.1508  0.1868  0.0843
  584W        W 4103   1.115   6.274   9.071 -0.3353 -0.0293 -0.1479
  585W        W 4104   2.812   8.013   9.029  0.3545 -0.0103 -0.3013
  586W        W 4105   2.359   5.482   1.527 -0.2436  0.0102  0.1872
  587W        W 4106   1.307   3.173   3.792 -0.0459  0.0633 -0.2852
  588W        W 4107   6.134   6.622   3.902 -0.0451  0.1849 -0.3501
  589W        W 4108   6.150   7.731   9.903 -0.0135 -0.0521  0.1028
  590W        W 4109   0.211   3.084  11.433  0.0343  0.1601  0.1385
  591W        W 4110   8.954   0.105   2.531  0.0563 -0.0727 -0.0134
  592W        W 4111   1.922   4.682   0.471 -0.3209  0.0772 -0.2475
  593W        W 4112   1.143   3.156  11.602 -0.1444  0.0271 -0.1228
  594W        W 4113   7.254   7.319   1.143  0.4066  0.1629 -0.0348
  595W        W 4114   5.628   4.477  11.851  0.1607 -0.2680 -0.1196
  596W        W 4115   6.351   3.943   1.471 -0.2481 -0.1282  0.0271
  597W        W 4116   8.691   4.990  10.421  0.0337 -0.0325  0.2176
  598W        W 4117   6.175   0.693   9.674  0.0223 -0.0011 -0.0330
  599W        W 4118   8.700   8.095  11.440  0.1135 -0.2828 -0.2171
  600W        W 4119   1.240   9.260  11.265  0.1168 -0.0703 -0.0619
  601W        W 4120   6.183   4.313   1.841 -0.3652 -0.3392 -0.1123
  602W        W 4121   0.331   2.471   0.290  0.0222 -0.5096 -0.0150
  603W        W 4122   1.919   8.795   0.860 -0.0673  0.3840 -0.0291
  604W        W 4123   7.376   4.484   3.037  0.1319  0.2613 -0.1351
  605W        W 4124   1.108   5.608  10.958  0.1788 -0.1350 -0.1344
  606W        W 4125   7.563   1.029  11.209  0.0530  0.4538 -0.1350
  607W        W 4126   5.221   4.701   1.853  0.2615  0.3327 -0.3114
  608W        W 4127   4.896   0.596   8.996 -0.4948  0.0639 -0.0470
  609W        W 4128   8.856   5.212   2.022  0.0266 -0.1553 -0.4138
  610W        W 4129   5.180   6.508   9.552 -0.1432  0.0022 -0.1598
  611W        W 4130   8.877   2.857   2.779  0.0284  0.2689 -0.0551
  612W        W 4131   4.008   7.742   9.145 -0.0649  0.3179  0.0814
  613W        W 4132   6.644   2.458   2.531 -0.1107 -0.1435  0.2280
  614W        W 4133   6.328   4.897   9.685  0.2339 -0.0475 -0.0351
  615W        W 4134   5.086   3.347  10.163 -0.3917 -0.0331 -0.0007
  616W        W 4135   2.072   2.101   3.458  0.0484 -0.2564 -0.0339
  617W        W 4136   3.629   5.066   1.112  0.0017  0.0042 -0.1368
  618W        W 4137   7.665   2.724   3.491  0.0080 -0.2072 -0.2945
  619W        W 4138   0.934   1.339   3.573 -0.1055  0.2080 -0.1265
  620W        W 4139   0.541   5.409   0.482 -0.1024 -0.1177 -0.1714
  621W        W 4140   7.188   8.745   1.542  0.1707  0.0961 -0.1653
  622W        W 4141   4.518   2.589  10.308 -0.1569  0.1617  0.0403
  623W        W 4142   0.824   9.411  12.127  0.0736 -0.3698 -0.1570
  624W        W 4143   6.959   4.487   3.896 -0.0249 -0.0237 -0.3642
  625W        W 4144   0.225   7.926   3.776  0.0436 -0.1663 -0.2767
  626W        W 4145   6.660   8.903  11.662  0.0907  0.0666 -0.2692
  627W        W 4146   4.266   6.714   9.612  0.0609 -0.1010  0.2128
  628W        W 4147   1.878   0.906   3.381  0.0001  0.0654 -0.0253
  629W        W 4148   9.519   7.077   0.791  0.3139 -0.1259  0.1949
  630W        W 4149   4.076   2.724   1.701  0.2222 -0.0772 -0.1456
  631W        W 4150   1.811   6.501  12.093  0.0056 -0.0138 -0.0878
  632W        W 4151   8.353   1.631   3.166 -0.0631 -0.0039 -0.2230
  633W        W 4152   7.326   1.757   1.343  0.0195 -0.1982 -0.1594
  634W        W 4153   1.485   5.022   0.281 -0.2813 -0.0442  0.0863
  635W        W 4154   4.829   9.185  10.522 -0.0372 -0.1496  0.0046
  636W        W 4155   5.562   8.255   3.139 -0.1415  0.1362 -0.0911
  637W        W 4156   0.529   7.319  10.811  0.1937 -0.1540 -0.3393
  638W        W 4157   2.387   7.778  11.491 -0.1281 -0.0330  0.1526
  639W        W 4158   3.626   0.337  12.007 -0.1735  0.3509 -0.0854
  640W        W 4159   3.210   3.028  11.725  0.3253 -0.0824 -0.4900
  641W        W 4160   8.381   6.581   9.038 -0.0181 -0.0995 -0.1606
  642W        W 4161   2.078   3.337   2.337 -0.1124  0.0680  0.1023
  643W        W 4162   2.495   8.564   2.599 -0.0502 -0.0017 -0.0016
  644W        W 4163   7.685   6.114   0.525  0.0077  0.0722 -0.3100
  645W        W 4164   9.342   5.508  12.458 -0.4165  0.2082 -0.2412
  646W        W 4165   5.532   3.873   1.618  0.0478  0.1026 -0.2508
  647W        W 4166   3.811   0.810  11.826 -0.3833 -0.3562  0.0508
  648W        W 4167   6.418   5.679  11.778 -0.0234  0.1615  0.4227
  649W        W 4168   7.628   9.475   3.309 -0.4871 -0.1332 -0.2561
  650W        W 4169   1.511   4.583  10.676 -0.0124 -0.1523 -0.2290
  651W        W 4170   8.495   0.443  10.830  0.0775  0.0322 -0.2178
  652W        W 4171   0.478   9.007   3.562  0.2150 -0.4466 -0.1206
  653W        W 4172   0.481   1.280   3.851 -0.3572 -0.1857 -0.1445
  654W        W 4173   6.776   1.249   0.635 -0.0238 -0.1263  0.0393
  655W        W 4174   9.389   5.643  11.938  0.2345 -0.0864 -0.1489
  656W        W 4175   4.393   0.920   9.531 -0.2484  0.0038 -0.2315
  657W        W 4176   4.396   2.873   0.049 -0.3920 -0.0680  0.1002
  658W        W 4177   2.761   8.084   0.334  0.0181  0.0626 -0.0708
  659W        W 4178   6.361   9.576   0.358  0.0033  0.0251 -0.1130
  660W        W 4179   9.469   4.319   2.822 -0.1957 -0.0009  0.2909
  661W        W 4180   1.080   1.658  11.924 -0.0062 -0.1961 -0.0748
  662W        W 4181   7.771   8.727   3.771  0.2759  0.0787  0.2923
  663W        W 4182   7.908   9.600   8.716  0.0470  0.5699 -0.0747
  664W        W 4183   1.980   2.203   2.989  0.0484 -0.0824  0.3101
  665W        W 4184   1.577   4.810   3.102 -0.2027  0.3990 -0.0248
  666W        W 4185   2.191   5.793  12.366  0.0586 -0.0888  0.0714
  667W        W 4186   0.151   1.061   0.623  0.1615  0.0689 -0.1185
  668W        W 4187   9.644   2.791   1.628  0.0192 -0.1677 -0.1009
  669W        W 4188   0.189   7.375   0.611  0.4120 -0.0742 -0.1288
  670W        W 4189   5.130   3.329  12.057  0.0457  0.0419  0.3726
  671W        W 4190   0.604   6.761   0.371  0.2351  0.1118 -0.2493
  672W        W 4191   9.712   3.710   4.022  0.0060  0.1787  0.1101
  673W        W 4192   5.101   6.837   2.830 -0.1196  0.0479 -0.0039
  674W        W 4193   7.731   4.416   1.308 -0.0953 -0.1549  0.2720
  675W        W 4194   2.409   7.121   8.220  0.5255 -0.3653  0.1533
  676W        W 4195   9.464   1.989   0.229 -0.2325  0.1168 -0.1356
  677W        W 4196   1.699   0.302  10.946 -0.1662  0.0015 -0.0480
  678W        W 4197   8.417   7.327   2.779 -0.1460  0.0473 -0.2703
  679W        W 4198   8.490   1.820  11.106  0.2316 -0.4805  0.0181
  680W        W 4199   7.294   1.044   4.037 -0.0074 -0.0954 -0.2487
  681W        W 4200   6.756   4.451   3.410 -0.0192 -0.1511 -0.0988
  682W        W 4201   1.304   5.084   0.808  0.0824 -0.1684 -0.2662
  683W        W 4202   0.083   2.476  10.158  0.2618  0.0319 -0.3277
  684W        W 4203   5.875   4.571  10.161 -0.0040 -0.5855  0.1326
  685W        W 4204   0.783   0.946  10.225 -0.2923  0.0707  0.0606
  686W        W 4205   5.723   7.047   9.438  0.0945  0.2915 -0.0504
  687W        W 4206   2.095   8.211   9.548 -0.0776  0.2826 -0.0551
  688W        W 4207   2.274   0.218   1.857 -0.1006  0.0111 -0.0900
  689W        W 4208   0.370   9.674   9.427 -0.1857  0.1037 -0.1375
  690W        W 4209   2.364   7.465   2.014  0.0042  0.3088 -0.3258
  691W        W 4210   9.526   2.916  10.032 -0.1162  0.0832 -0.0872
  692W        W 4211   6.396   8.976  12.144  0.0701 -0.1443  0.1366
  693W        W 4212   9.229   3.594   8.556 -0.2366  0.1020  0.0764
  694W        W 4213   1.975   4.673   2.084 -0.1312  0.1593 -0.0463
  695W        W 4214   7.886   4.392   9.102  0.2483  0.2130  0.1428
  696W        W 4215   6.482   8.408   1.949 -0.1856  0.4897  0.2020
  697W        W 4216   4.625   8.534  12.455  0.1294 -0.0220  0.3994
  698W        W 4217   9.185   4.867  11.255 -0.3769  0.1696  0.1570
  699W        W 4218   2.808   8.094  10.757  0.1436 -0.0840 -0.1502
  700W        W 4219   1.232   6.694  11.161  0.0732 -0.2725  0.0882
  701W        W 4220   6.657   1.064   3.164  0.0499  0.2905  0.0945
  702W        W 4221   4.672   7.349  10.114 -0.0795  0.1542  0.0995
  703W        W 4222   2.310   3.481   1.896  0.3632  0.1334 -0.0351
  704W        W 4223   2.998   3.427  12.066 -0.1311 -0.0564  0.3109
  705W        W 4224   1.213   6.105  10.830  0.1414 -0.0733 -0.3787
  706W        W 4225   6.192   1.556   9.553 -0.0152  0.2672 -0.1314
  707W        W 4226   7.517   7.097   1.997  0.0050  0.2634 -0.0139
  708W        W 4227   0.357   3.668   0.956 -0.3257 -0.1587 -0.1579
  709W        W 4228   2.884   5.076   1.334  0.0216  0.1828 -0.1763
  710W        W 4229   6.346   0.422   3.964 -0.0393 -0.3267 -0.1190
  711W        W 4230   0.009   7.607  11.687 -0.3414  0.2173 -0.0663
  712W        W 4231   7.763   1.235   0.042  0.2068 -0.0140 -0.2654
  713W        W 4232   0.544   9.483   3.637  0.1140  0.0808  0.1433
  714W        W 4233   1.714   1.438   9.283 -0.1268 -0.0274 -0.1247
  715W        W 4234   1.656   7.348   2.756 -0.1789 -0.2553  0.0347
  716W        W 4235   3.303   6.293   3.831  0.1404 -0.0254 -0.2267
  717W        W 4236   1.815   2.194   9.888 -0.4335 -0.3569 -0.2186
  718W        W 4237   3.606   5.956   4.668 -0.1073 -0.0135 -0.0162
  719W        W 4238   1.291   8.146   9.220  0.4953  0.0651  0.2263
  720W        W 4239   8.875   2.111   0.366  0.2678 -0.2410  0.1458
  721W        W 4240   2.614   8.576   3.067 -0.0169  0.0304 -0.0487
  722W        W 4241   5.927   8.329  11.659  0.2487  0.0183  0.0064
  723W        W 4242   5.596   4.591   3.586  0.0611  0.2255 -0.0723
  724W        W 4243   6.549   9.497   3.603 -0.1686  0.0935  0.0188
  725W        W 4244   9.550   1.336   9.466 -0.1616  0.1035  0.1624
  726W        W 4245   3.482   3.420   0.344  0.0011 -0.0439 -0.3529
  727W        W 4246   7.182   4.825  11.487 -0.0222 -0.1076  0.1029
  728W        W 4247   4.560   6.348   1.586  0.0741 -0.3051  0.3825
  729W        W 4248   4.737   9.562   1.645  0.2353 -0.2237 -0.3929
  730W        W 4249   5.105   2.619   2.436 -0.0040  0.2608 -0.3916
  731W        W 4250   0.897   7.605  11.648  0.0607  0.0510 -0.1229
  732W        W 4251   6.025   2.884  12.181 -0.1526  0.2193 -0.0282
  733W        W 4252   4.449   2.043   2.053  0.1921 -0.1606  0.1239
  734W        W 4253   4.220   7.282   2.944 -0.1437 -0.0689 -0.2342
  735W        W 4254   6.826   0.462   1.762 -0.2944 -0.1113  0.0121
  736W        W 4255   3.568   6.983  10.659  0.1216 -0.0314  0.3390
  737W        W 4256   4.823   1.016   1.943 -0.2231 -0.0425 -0.2475
  738W        W 4257   3.131   2.169   0.328  0.0477  0.1081  0.0396
  739W        W 4258   8.118   7.068  12.110 -0.0545 -0.3649 -0.2404
  740W        W 4259   1.100   1.711   0.378 -0.0622 -0.0790  0.0405
  741W        W 4260   6.979   1.182   9.274  0.2388  0.0319 -0.0486
  742W        W 4261   1.427   4.763   9.677 -0.1068  0.1581 -0.1288
  743W        W 4262   4.963   6.976   8.449  0.0640 -0.0654 -0.1907
  744W        W 4263   0.478   6.317   2.299  0.2793 -0.0037 -0.1818
  745W        W 4264   8.688   3.315   0.582  0.0131 -0.1493  0.2239
  746W        W 4265   5.014   9.217   9.874 -0.0174  0.0638  0.4184
  747W        W 4266   2.278   9.481  12.359  0.0623 -0.1456 -0.0632
  748W        W 4267   9.508   5.665   9.405  0.1336 -0.0558 -0.4392
  749W        W 4268   5.545   1.947   1.842 -0.4694  0.2812  0.0920
  750W        W 4269   5.982   3.302   1.795  0.1325  0.0391 -0.0672
  751W        W 4270   6.648   9.229  10.284  0.1937  0.1771 -0.0877
  752W        W 4271   9.258   1.446   9.972 -0.0473  0.1578 -0.0993
  753W        W 4272   5.127   7.533   2.998  0.1101 -0.2206 -0.0855
  754W        W 4273   9.656   9.660   1.507 -0.0313  0.1039  0.2239
  755W        W 4274   2.346   8.850   2.204 -0.0167 -0.2849 -0.3599
  756W        W 4275   6.048   4.705  11.616  0.0184 -0.0948  0.0128
  757W        W 4276   9.229   7.716  11.763  0.2810  0.1255 -0.1429
  758W        W 4277   9.144   3.565   9.302  0.3644 -0.7035 -0.0828
  759W        W 4278   0.436   3.686   3.571 -0.0539  0.3392 -0.2204
  760W        W 4279   3.136   4.107   7.798 -0.0003  0.2207 -0.1887
  761W        W 4280   6.335   4.524  10.056 -0.1969 -0.2265  0.0149
  762W        W 4281   5.100   0.140   1.759  0.3649 -0.0474 -0.2631
  763W        W 4282   2.331   9.386   2.029  0.0223 -0.1802 -0.0727
  764W        W 4283   8.440   6.840   3.105 -0.0121 -0.1287 -0.1671
  765W        W 4284   6.943   0.473   0.014  0.0696  0.2102 -0.0322
  766W        W 4285   3.224   3.921  10.815 -0.1902  0.2286  0.0858
  767W        W 4286   4.882   2.970   3.922 -0.1601 -0.1224  0.2784
  768W        W 4287   1.459   0.299   1.751  0.1834  0.1865 -0.0502
  769W        W 4288   1.236   9.654   1.134 -0.0257  0.2639  0.0095
  770W        W 4289   6.562   6.056   0.274  0.0166 -0.0662  0.0407
  771W        W 4290   0.995   0.329  10.757  0.0753  0.2227  0.1386
  772W        W 4291   2.856   5.346   3.108  0.0836 -0.1906 -0.0837
  773W        W 4292   9.300   5.943   2.540 -0.0761  0.1542 -0.1695
  774W        W 4293   6.719   0.191   9.329 -0.1210  0.0140 -0.2847
  775W        W 4294   7.502   3.568   8.219 -0.2140  0.0788  0.2312
  776W        W 4295   0.528   7.051  12.314 -0.0332 -0.2806 -0.1585
  777W        W 4296   7.457   6.888  11.452 -0.0349 -0.1082 -0.0692
  778W        W 4297   4.062   5.736   2.871  0.1930  0.1538  0.2459
  779W        W 4298   9.559   9.434   1.975  0.0607  0.0590 -0.2011
  780W        W 4299   1.000   5.301  10.594  0.5046 -0.0192 -0.3052
  781W        W 4300   1.420   2.386   8.966  0.1953 -0.0397 -0.1480
  782W        W 4301   4.452   4.830  11.902 -0.2567  0.4050  0.0097
  783W        W 4302   0.267   0.529   3.611 -0.2074 -0.0373  0.0921
  784W        W 4303   6.596   5.186   8.486  0.1764 -0.1780  0.1761
  785W        W 4304   2.405   8.926   0.720 -0.0696  0.1422 -0.3010
  786W        W 4305   4.120   1.196  12.151 -0.2049  0.2337  0.1486
  787W        W 4306   2.439   4.566   0.517  0.0004 -0.0436  0.2564
  788W        W 4307   1.668   4.287   0.357 -0.0649 -0.1468  0.1483
  789W        W 4308   5.694   6.446   1.790  0.1028  0.0617  0.0966
  790W        W 4309   3.247   1.162   0.642 -0.0863  0.1324 -0.0103
  791W        W 4310   2.951   8.213   3.067  0.1018  0.1445 -0.1430
  792W        W 4311   9.454   1.093  10.380 -0.0974 -0.2706  0.2208
  793W        W 4312   5.627   7.639  11.056  0.0476  0.1820  0.0773
  794W        W 4313   7.860   9.330   5.114 -0.1749 -0.0493  0.1815
  795W        W 4314   1.608   5.542   0.673  0.2718 -0.0377  0.2285
  796W        W 4315   6.928   9.608  10.482 -0.0111 -0.1474  0.0642
  797W        W 4316   1.679   2.924   1.529  0.1619 -0.1092 -0.0484
  798W        W 4317   7.900   1.838   9.005  0.2786 -0.0487 -0.0830
  799W        W 4318   7.766   7.263   2.821  0.2557  0.0316  0.0296
  800W        W 4319   3.900   6.807   0.204  0.0872 -0.0227  0.1060
  801W        W 4320   1.623   9.450   0.681 -0.1049 -0.0623  0.2120
  802W        W 4321   8.462   9.279   1.264 -0.2186 -0.1417  0.1416
  803W        W 4322   3.245   7.667   1.197 -0.1175 -0.0382 -0.0928
  804W        W 4323   2.750   6.298   2.538  0.4778 -0.2129 -0.3553
  805W        W 4324   4.380   6.277   0.656 -0.3374 -0.0329  0.3234
  806W        W 4325   9.273   0.117   0.322  0.1357  0.1756 -0.0787
  807W        W 4326   2.416   9.058  11.617  0.0455  0.0107 -0.0273
  808W        W 4327   7.278   5.524   0.099  0.1369  0.3611  0.2105
  809W        W 4328   7.016   7.048   3.729  0.0914 -0.2155  0.0344
  810W        W 4329   5.413   5.630   1.306  0.2363  0.1890 -0.3096
  811W        W 4330   5.019   9.163   1.530  0.0616 -0.0917  0.1023
  812W        W 4331   1.960   6.760   1.171  0.0503 -0.0748  0.0329
  813W        W 4332   4.372   0.504   9.148 -0.0097 -0.1774 -0.2034
  814W        W 4333   6.341   8.295   3.595 -0.0110  0.1219 -0.1489
  815W        W 4334   5.652   8.178   1.861  0.0533  0.3975  0.4948
  816W        W 4335   1.321   8.102   0.583 -0.0217  0.0788  0.1545
  817W        W 4336   2.511   2.403   3.601  0.2230 -0.1972  0.1461
  818W        W 4337   0.679   0.491   9.954  0.4287 -0.3672  0.0519
  819W        W 4338   5.822   2.910   0.243  0.0587  0.0078  0.0946
  820W        W 4339   7.794   5.187   4.470 -0.1274  0.0387 -0.3730
  821W        W 4340   4.916   5.221  12.213  0.4031  0.1263  0.0967
  822W        W 4341   2.493   9.105   9.302 -0.2166 -0.1541 -0.0560
  823W        W 4342   0.481   7.653   1.968 -0.0883  0.1116  0.0828
  824W        W 4343   9.546   4.673   4.093 -0.1528 -0.1062  0.0672
  825W        W 4344   5.784   6.367   9.817 -0.0657 -0.0345 -0.1290
  826W        W 4345   2.090   9.446   9.239 -0.3479 -0.0835 -0.1623
  827W        W 4346   1.166   3.424  10.075 -0.1377 -0.0301  0.0531
  828W        W 4347   6.336   7.271   3.459  0.1467  0.0388  0.0519
  829W        W 4348   7.195   6.604   9.688  0.1272 -0.0434  0.1806
  830W        W 4349   8.898   9.354   2.852  0.0241  0.0717 -0.3625
  831W        W 4350   0.572   6.268   8.762 -0.0454  0.0307  0.0307
  832W        W 4351   8.567   9.708   8.357  0.1778 -0.1580 -0.1382
  833W        W 4352   0.159   1.071   1.612  0.0777  0.2833  0.0716
  834W        W 4353   0.217   7.957   9.100  0.2023 -0.0433 -0.2230
  835W        W 4354   7.837   1.865  11.795 -0.0866 -0.3011 -0.2106
  836W        W 4355   2.205   9.383   3.314  0.0930 -0.0252 -0.1441
  837W        W 4356   0.865   1.181  11.703  0.2866 -0.3130  0.1759
  838W        W 4357   0.323   3.373   9.690 -0.2001 -0.1766  0.0449
  839W        W 4358   1.467   4.394   3.355 -0.2011  0.0071 -0.0813
  840W        W 4359   3.056   0.932   3.176 -0.2093  0.2650  0.0893
  841W        W 4360   4.915   8.156   8.959 -0.1795 -0.2092  0.0886
  842W        W 4361   9.618   3.827   2.300  0.2338 -0.2483 -0.1372
  843W        W 4362   4.769   6.646   4.575 -0.4547 -0.1547 -0.1366
  844W        W 4363   2.898   8.496   3.501  0.0332 -0.0014  0.0798
  845W        W 4364   1.000   6.832   3.194  0.3919  0.2208 -0.2839
  846W        W 4365   6.576   4.473  12.144 -0.1531 -0.3727 -0.3752
  847W        W 4366   0.076   0.708  10.512  0.4543 -0.0595  0.0841
  848W        W 4367   4.605   2.581   9.738 -0.1260  0.3885  0.0123
  849W        W 4368   4.738   4.683   1.751 -0.0941 -0.1098  0.0814
  850W        W 4369   8.367   9.228   9.603  0.1425  0.0696  0.1746
  851W        W 4370   5.414   6.683  12.349 -0.0347  0.0343  0.2539
  852W        W 4371   6.204   6.539   1.599  0.0749  0.2821 -0.1186
  853W        W 4372   1.735   4.346   2.892  0.2276 -0.3306  0.3746
  854W        W 4373   5.061   3.758   4.691 -0.2587  0.1923  0.0486
  855W        W 4374   5.822   1.364   0.327  0.0551 -0.1265  0.0470
  856W        W 4375   4.208   2.853   9.463  0.3272  0.0111  0.1475
  857W        W 4376   8.777   8.464   8.771  0.1215  0.0625  0.0537
  858W        W 4377   7.373   4.214   9.086  0.0630  0.2194 -0.0250
  859W        W 4378   3.221   8.149   1.139  0.2945 -0.0865  0.0180
  860W        W 4379   8.181   9.351   9.104 -0.2039 -0.3009  0.4428
  861W        W 4380   0.869   9.097   8.437 -0.0100 -0.1098 -0.0174
  862W        W 4381   0.993   8.272   1.116 -0.0263 -0.0416  0.0112
  863W        W 4382   8.807   9.097   0.493  0.0461  0.0879  0.0272
  864W        W 4383   2.009   5.144   1.229 -0.0559  0.2064  0.0465
  865W        W 4384   3.415   5.450   3.850  0.1118 -0.0444  0.0274
  866W        W 4385   1.634   7.406   8.696 -0.1624  0.1337 -0.0654
  867W        W 4386   0.177   4.862   3.806 -0.2623  0.1638 -0.0296
  868W        W 4387   6.747   7.668   0.882 -0.0448 -0.2933  0.0244
  869W        W 4388   6.305   3.554   9.855 -0.0731  0.1514  0.1238
  870W        W 4389   8.935   1.648  11.032  0.0399  0.2649 -0.0073
  871W        W 4390   3.163   2.375   9.758  0.0181 -0.0592 -0.0008
  872W        W 4391   7.002   4.529   8.067  0.0673 -0.2472 -0.1619
  873W        W 4392   8.006   4.935  11.590  0.1048 -0.1900 -0.1898
  874W        W 4393   3.459   8.320   2.853  0.4019 -0.0147  0.0741
  875W        W 4394   2.565   2.620  10.088 -0.1046 -0.4066 -0.0692
  876W        W 4395   0.745   3.479   9.340 -0.0798 -0.0584  0.0439
  877W        W 4396   3.494   5.958   9.779  0.2533 -0.1102 -0.1206
  878W        W 4397   4.817   4.498   8.593 -0.0752 -0.1749 -0.1815
  879W        W 4398   5.427   2.067  10.281  0.1210  0.2201  0.2155
  880W        W 4399   7.113   0.701  11.085 -0.2105 -0.0588 -0.0259
  881W        W 4400   6.012   6.513   3.187  0.2740  0.0396 -0.1409
  882W        W 4401   2.516   1.945  12.192 -0.0371  0.0509  0.2778
  883W        W 4402   0.248   7.057   4.002  0.0808 -0.0287 -0.1802
  884W        W 4403   0.065   6.309   2.778 -0.1781  0.3417 -0.0666
  885W        W 4404   4.673   7.058   9.613  0.0361  0.2838  0.0897
  886W        W 4405   6.759   8.446   3.861  0.0403 -0.1381  0.2414
  887W        W 4406   8.174   9.705   0.403  0.0696 -0.0681 -0.1597
  888W        W 4407   0.477   3.112   2.605  0.1474  0.1597 -0.2755
  889W        W 4408   2.195   5.910   1.826  0.1485 -0.0431 -0.0258
  890W        W 4409   1.383   6.521  12.460 -0.1598 -0.1627  0.4774
  891W        W 4410   4.919   8.623  10.152  0.1458 -0.0902 -0.1859
  892W        W 4411   3.105   9.527   0.355 -0.0730  0.3510  0.0247
  893W        W 4412   8.479   8.252   9.836  0.2131 -0.3514  0.1972
  894W        W 4413   0.406   7.975   4.372 -0.3001 -0.1925  0.4424
  895W        W 4414   3.577   4.514   2.961 -0.2139 -0.1909  0.1899
  896W        W 4415   0.563   0.926   2.507 -0.0752 -0.0341  0.2775
  897W        W 4416   1.659   6.360   0.417 -0.1776 -0.0035  0.1251
  898W        W 4417   3.272   9.072  12.440 -0.0335  0.0186  0.3351
  899W        W 4418   5.144   2.380  11.625 -0.0746  0.1918  0.2216
  900W        W 4419   4.136   8.688   9.414 -0.0478  0.1465 -0.0210
  901W        W 4420   8.101   7.291   0.536 -0.1957 -0.2313  0.2969
  902W        W 4421   0.976   7.864  11.249  0.2136  0.1315  0.3460
  903W        W 4422   7.008   2.805   9.854 -0.3457  0.0137  0.0447
  904W        W 4423   8.534   6.632   8.004  0.0263  0.0631  0.1403
  905W        W 4424   4.026   0.657   9.761  0.1110 -0.0153 -0.5038
  906W        W 4425   7.955   8.224   0.530 -0.1585 -0.2572  0.0315
  907W        W 4426   6.570   8.179   9.219 -0.0870  0.3030  0.1719
  908W        W 4427   0.810   0.864  11.248 -0.0562  0.0032 -0.1401
  909W        W 4428   5.041   1.275   3.378  0.1305 -0.1961  0.0941
  910W        W 4429   5.053   0.616   4.483  0.2113  0.0332  0.0391
  911W        W 4430   7.779   3.159   3.122 -0.0891  0.1398  0.3631
  912W        W 4431   4.502   8.373   1.903  0.1839  0.1705 -0.0332
  913W        W 4432   4.525   3.412  10.534 -0.0251  0.0392 -0.0271
  914W        W 4433   6.069   7.083   1.133 -0.3695  0.3204 -0.0849
  915W        W 4434   7.218   8.113   3.756 -0.3216 -0.0823 -0.1667
  916W        W 4435   0.096   2.682  11.821 -0.2148  0.2132 -0.4107
  917W        W 4436   1.728   4.273   3.776 -0.3441  0.0756 -0.2653
  918W        W 4437   7.479   1.787   4.363 -0.0277 -0.0298  0.3071
  919W        W 4438   0.830   8.967   8.992  0.0035  0.1882 -0.1629
  920W        W 4439   7.537   3.010   2.568  0.0208  0.0944  0.1017
  921W        W 4440   2.971   0.450  11.352  0.3039 -0.0464  0.0730
  922W        W 4441   6.698   0.347   3.551  0.2057  0.1027  0.1462
  923W        W 4442   1.372   7.369   3.209  0.3768 -0.1444 -0.5438
  924W        W 4443   4.000   8.382   2.080  0.0857  0.1396  0.0854
  925W        W 4444   7.136   8.722  11.901  0.1257  0.0641 -0.0605
  926W        W 4445   6.616   7.583   7.697 -0.2181 -0.0354  0.2126
  927W        W 4446   2.796   0.627  11.832 -0.2983 -0.0716 -0.2172
  928W        W 4447   2.850   6.240   3.499  0.2000 -0.1725 -0.0096
  929W        W 4448   3.571   0.156   8.541 -0.2502  0.1101 -0.4570
  930W        W 4449   7.128   5.084   1.818  0.0335  0.0831  0.5860
  931W        W 4450   4.090   3.718   0.430 -0.0955 -0.0253  0.2184
  932W        W 4451   8.230   2.787  11.373 -0.0276 -0.1896  0.0446
  933W        W 4452   0.549   3.105   0.822 -0.1613 -0.0717 -0.0880
  934W        W 4453   2.518   0.548   9.342  0.1178 -0.1548  0.1918
  935W        W 4454   9.411   4.370   1.209 -0.0545  0.0656  0.4240
  936W        W 4455   3.598   5.942   1.213 -0.0171  0.6776 -0.0730
  937W        W 4456   5.287   9.167  11.391 -0.3878 -0.3286  0.2823
  938W        W 4457   9.628   2.501  12.467 -0.0136 -0.2781 -0.2784
  939W        W 4458   3.937   4.514   8.911 -0.1870  0.2849  0.0369
  940W        W 4459   9.032   6.758   8.592  0.4114 -0.1614  0.1976
  941W        W 4460   2.569   8.340   2.118  0.5411  0.0777 -0.1039
  942W        W 4461   0.899   4.050  11.243  0.4256  0.0427 -0.0641
  943W        W 4462   0.728   4.767   3.156  0.0590 -0.4044  0.0374
  944W        W 4463   1.878   1.355  11.621 -0.0373  0.1381  0.2159
  945W        W 4464   6.750   8.417  10.959 -0.1212 -0.2348 -0.1327
  946W        W 4465   2.771   5.720   1.188  0.0683  0.0051 -0.1841
  947W        W 4466   3.900   5.605  12.175 -0.1302 -0.1697  0.2302
  948W        W 4467   6.557   8.067   0.116 -0.0876 -0.1720 -0.1373
  949W        W 4468   6.906   1.731   3.688 -0.2053  0.1197 -0.0255
  950W        W 4469   9.250   0.211  10.867  0.3740  0.0220  0.0453
  951W        W 4470   8.851   7.984  10.536 -0.3914 -0.3781 -0.0558
  952W        W 4471   4.126   3.878   8.412  0.2493  0.1429 -0.2868
  953W        W 4472   6.402   0.631   3.096  0.0940  0.1205  0.2407
  954W        W 4473   2.387   9.063   0.236  0.4278 -0.2306 -0.1382
  955W        W 4474   5.535   1.797   1.187  0.0967 -0.3084 -0.1719
  956W        W 4475   5.013   6.439  10.901  0.0928  0.0496 -0.1018
  957W        W 4476   0.262   3.873   9.698 -0.0191 -0.1394  0.1956
  958W        W 4477   5.204   5.653   9.423  0.1313 -0.2550 -0.1812
  959W        W 4478   8.840   1.858   8.569 -0.1224 -0.0023 -0.1571
  960W        W 4479   7.638   3.605   4.004 -0.2834  0.1629 -0.0456
  961W        W 4480   8.712   8.680   8.116 -0.0984  0.0369 -0.2069
  962W        W 4481   5.248   3.096  11.580 -0.3141  0.0645 -0.2205
  963W        W 4482   7.623   7.453   0.267 -0.3255  0.1123 -0.1476
  964W        W 4483   3.753   5.782   9.369 -0.1611 -0.1825 -0.0709
  965W        W 4484   6.468   6.754   0.088  0.1640  0.4047  0.2368
  966W        W 4485   1.890   5.346   9.140  0.0314  0.0214  0.1113
  967W        W 4486   5.158   0.099   0.925  0.0762  0.2712 -0.1058
  968W        W 4487   9.169   8.966   2.628  0.2573  0.5311  0.1678
  969W        W 4488   9.383   0.278   1.812  0.1207  0.0499 -0.0935
  970W        W 4489   5.567   1.144   1.635 -0.0056 -0.2135 -0.2636
  971W        W 4490   6.085   7.049  11.834  0.0595  0.0709 -0.0947
  972W        W 4491   7.727   6.266   8.405 -0.0050 -0.1191 -0.2670
  973W        W 4492   5.933   8.055   9.197 -0.1539 -0.1218 -0.0423
  974W        W 4493   0.046   0.626   1.791  0.2708  0.0444 -0.2934
  975W        W 4494   9.409   8.534  11.504 -0.2101  0.0741  0.1265
  976W        W 4495   6.805   5.213  10.534  0.3121 -0.2200 -0.0721
  977W        W 4496   6.851   1.252   3.609 -0.1490  0.2564 -0.0898
  978W        W 4497   9.320   7.041   8.255  0.0811  0.1281 -0.2448
  979W        W 4498   2.235   4.329  10.191  0.0046 -0.0598 -0.3637
  980W        W 4499   5.362   4.505   4.027 -0.0364  0.1250 -0.2331
  981W        W 4500   5.290   7.804  12.029 -0.1176  0.0240  0.0828
  982W        W 4501   2.721   8.495   9.051 -0.1171  0.2639 -0.1395
  983W        W 4502   1.421   6.704   1.600 -0.0905  0.3180  0.1922
  984W        W 4503   9.444   6.067   7.357 -0.0153  0.0212  0.0817
  985W        W 4504   8.671   3.273   1.197  0.2680 -0.0200  0.1392
  986W        W 4505   4.110   4.095  12.447 -0.1363 -0.1087  0.1494
  987W        W 4506   8.939   0.841  12.424 -0.3243 -0.0811 -0.1229
  988W        W 4507   7.891   3.788   2.025 -0.0357  0.0268 -0.2781
  989W        W 4508   6.513   1.105   7.916 -0.2808 -0.0597  0.2816
  990W        W 4509   3.377   2.827   8.864  0.0746 -0.3341 -0.2583
  991W        W 4510   4.563   1.277  11.245 -0.0317 -0.4446  0.0562
  992W        W 4511   0.928   0.246   0.274 -0.1159  0.0056  0.2729
  993W        W 4512   1.345   4.324   9.430 -0.2817 -0.0718 -0.0755
  994W        W 4513   2.623   6.082   1.988 -0.0223 -0.1920  0.1151
  995W        W 4514   7.790   2.011   0.605 -0.2924 -0.0497  0.2027
  996W        W 4515   1.101   2.135  11.808  0.1779 -0.2919 -0.3203
  997W        W 4516   8.144   7.806   0.800 -0.0302  0.3521 -0.0800
  998W        W 4517   2.310   5.734  10.234 -0.0987  0.1619 -0.4056
  999W        W 4518   3.401   3.220   1.059 -0.0809 -0.0130  0.0984
 1000W        W 4519   6.210   7.551  12.190  0.2291 -0.0356 -0.1479
 1001W        W 4520   4.978   1.906   2.402 -0.0529  0.1400 -0.1906
 1002W        W 4521   6.936   0.535  10.207 -0.2743 -0.0724 -0.0185
 1003W        W 4522   9.415   7.410  10.149 -0.4211  0.2558  0.3567
 1004W        W 4523   5.258   4.240  11.524  0.3896  0.0557 -0.3697
 1005W        W 4524   7.624   9.424   4.157 -0.2197  0.0081 -0.1309
 1006W        W 4525   2.326   4.051   4.075  0.0099  0.1943  0.1575
 1007W        W 4526   8.780   6.090   1.657  0.1062  0.0597  0.1159
 1008W        W 4527   6.770   3.439   2.884 -0.0165 -0.0269 -0.0061
 1009W        W 4528   0.704   1.480  10.294  0.1098 -0.2076  0.1772
 1010W        W 4529   6.547   8.482   9.572 -0.0671 -0.2593 -0.2401
 1011W        W 4530   5.102   5.684   0.792  0.0492 -0.0141 -0.4207
 1012W        W 4531   5.976   4.012   9.601 -0.0886  0.0560 -0.1263
 1013W        W 4532   2.395   2.757   8.776 -0.0628 -0.1004 -0.1026
 1014W        W 4533   6.180   0.123   3.592 -0.0231 -0.3882  0.1465
 1015W        W 4534   5.033   8.281   1.850  0.0600  0.0145 -0.1989
 1016W        W 4535   4.183   9.227  11.187  0.1840 -0.1215 -0.0635
 1017W        W 4536   7.600   3.500   2.679 -0.0490  0.2164  0.0351
 1018W        W 4537   0.540   2.435   9.910  0.0606 -0.0130 -0.4526
 1019W        W 4538   7.730   1.615  10.311 -0.0754 -0.2619  0.2288
 1020W        W 4539   9.126   9.270   3.335  0.3159 -0.0552  0.1003
 1021W        W 4540   5.526   6.295  11.064 -0.0219 -0.2988  0.1833
 1022W        W 4541   2.226   7.697   1.416 -0.0099  0.1187 -0.1606
 1023W        W 4542   6.944   1.355   9.871 -0.0630 -0.1419  0.1415
 1024W        W 4543   5.018   7.445   2.111 -0.0686 -0.1618  0.0118
 1025W        W 4544   6.633   0.325   1.312 -0.1601 -0.0380 -0.0190
 1026W        W 4545   0.894   8.832   9.739 -0.0361  0.1009  0.0053
 1027W        W 4546   8.901   3.918   8.302 -0.0728  0.1479 -0.0100
 1028W        W 4547   5.179   4.779   3.239  0.2858 -0.0561  0.2995
 1029W        W 4548   5.318   7.158  11.340 -0.1878  0.1625  0.1314
 1030W        W 4549   8.695   1.390   8.905  0.4770 -0.1045 -0.2956
 1031W        W 4550   4.369   3.077   8.803  0.3887  0.0036 -0.2457
 1032W        W 4551   5.937   4.945   3.751  0.3012 -0.0645  0.2658
 1033W        W 4552   4.697   6.646  12.184  0.1321  0.2563 -0.1222
 1034W        W 4553   7.448   5.922  11.028  0.1074  0.0542  0.2221
 1035W        W 4554   1.353   8.540   1.241 -0.1901 -0.0797 -0.0721
 1036W        W 4555   6.096   7.635  10.855 -0.1048 -0.1911 -0.0308
 1037W        W 4556   6.928   4.026   2.219 -0.0920  0.2703  0.0959
 1038W        W 4557   5.809   8.083   1.326 -0.0827 -0.2207  0.1484
 1039W        W 4558   1.409   4.642   0.604 -0.1481 -0.1816 -0.1855
 1040W        W 4559   9.532   4.363   8.379  0.0183 -0.0079 -0.0602
 1041W        W 4560   3.213   7.998  11.032 -0.1998  0.0048 -0.0994
 1042W        W 4561   0.265   7.473   0.030 -0.2425 -0.0018  0.0687
 1043W        W 4562   3.174   8.073  12.472  0.3002 -0.2408  0.0623
 1044W        W 4563   0.039   3.494   2.655  0.0526  0.0395 -0.1936
 1045W        W 4564   9.694   7.439  10.843  0.2069  0.2088 -0.0640
 1046W        W 4565   5.672   4.524  10.687 -0.1633 -0.1320  0.2319
 1047W        W 4566   6.441   7.308   8.132 -0.0410 -0.0749  0.2424
 1048W        W 4567   9.001   6.491   9.079  0.0988 -0.0688  0.1264
 1049W        W 4568   3.234   1.601  11.667 -0.1907  0.2299  0.5248
 1050W        W 4569   2.736   8.105  11.273 -0.0128  0.3154 -0.2346
 1051W        W 4570   3.158   8.425   0.329 -0.0937  0.1458 -0.1994
 1052W        W 4571   6.270   3.076  10.828 -0.2382 -0.1874  0.2816
 1053W        W 4572   4.943   4.424   8.138 -0.2817 -0.3518  0.1478
 1054W        W 4573   5.848   4.229   2.263 -0.2355 -0.0547  0.1044
 1055W        W 4574   3.382   0.576  11.638  0.0601 -0.1949  0.1010
 1056W        W 4575   3.021   6.833   1.591  0.1404 -0.3021  0.1996
 1057W        W 4576   8.678   7.938   9.243  0.1696  0.3578  0.0831
 1058W        W 4577   3.368   4.470   2.544  0.1632 -0.3005 -0.0938
 1059W        W 4578   3.411   4.164  12.047  0.0614  0.0411 -0.0565
 1060W        W 4579   4.904   7.092  10.527  0.2299  0.0274  0.1692
 1061W        W 4580   5.624   3.689   9.625 -0.0571  0.1037  0.2809
 1062W        W 4581   4.606   4.326   3.444 -0.2620 -0.1884 -0.0812
 1063W        W 4582   7.084   2.196   1.238 -0.1199  0.0785  0.0848
 1064W        W 4583   2.933   1.984  11.812 -0.0166  0.0538 -0.0107
 1065W        W 4584   4.616   3.175   3.473 -0.1282 -0.1577  0.0591
 1066W        W 4585   8.536   1.209  11.949 -0.3908  0.1969 -0.0876
 1067W        W 4586   4.127   0.686  12.241  0.0980 -0.0104 -0.1209
 1068W        W 4587   9.456   2.759  11.533 -0.1573  0.0099  0.2591
 1069W        W 4588   2.084   0.895   0.549  0.0633 -0.0032 -0.0241
 1070W        W 4589   0.381   2.913   8.648 -0.1805 -0.1132 -0.0095
 1071W        W 4590   4.264   4.631   3.638  0.1995  0.1868  0.0506
 1072W        W 4591   1.887   5.067  10.164 -0.0421  0.0589 -0.3887
 1073W        W 4592   0.240   4.242  10.411 -0.2661  0.0484  0.1313
 1074W        W 4593   3.689   9.360  11.187  0.2014  0.0241 -0.1791
 1075W        W 4594   5.546   3.490   1.873 -0.0323 -0.0319 -0.4251
 1076W        W 4595   8.479   0.036   2.124  0.2022  0.0830 -0.0858
 1077W        W 4596   6.367   0.330   0.097  0.2046  0.0086  0.0523
 1078W        W 4597   1.254   9.163   9.730  0.0080  0.0346 -0.2279
 1079W        W 4598   4.964   8.558   8.119  0.0777 -0.0259  0.0936
 1080W        W 4599   9.061   1.952   9.842  0.1122  0.0545 -0.0841
 1081W        W 4600   3.284   1.501  10.281 -0.0110 -0.0521  0.0979
 1082W        W 4601   0.825   9.273   2.713  0.1110 -0.0442 -0.0060
 1083W        W 4602   2.469   5.035  11.592  0.0731  0.0289  0.0884
 1084W        W 4603   3.547   1.555   2.233 -0.1798 -0.1605 -0.1356
 1085W        W 4604   5.890   1.949   9.639 -0.2185 -0.2683  0.0526
 1086W        W 4605   0.858   1.154   1.196 -0.0177  0.1009  0.0503
 1087W        W 4606   3.930   6.981   8.778 -0.2178 -0.6137  0.0511
 1088W        W 4607   2.690   2.788   0.643  0.1335 -0.1359 -0.1287
 1089W        W 4608   5.062   2.464  10.395  0.2804 -0.1147  0.0367
 1090W        W 4609   5.103   4.432   3.588 -0.2450  0.2092  0.3071
 1091W        W 4610   5.584   1.800   4.660  0.0025 -0.1766  0.0221
 1092W        W 4611   2.761   5.813   2.381 -0.1008 -0.3323  0.1716
 1093W        W 4612   2.836   7.238  11.260  0.1725  0.3219  0.2353
 1094W        W 4613   2.272   1.990   1.012 -0.1056  0.2395 -0.2837
 1095W        W 4614   7.400   7.836   1.896  0.1715  0.4487  0.0560
 1096W        W 4615   1.974   1.024  10.633  0.2164  0.2971  0.0290
 1097W        W 4616   1.402   3.898  11.234  0.2836 -0.1552  0.2254
 1098W        W 4617   2.118   2.359   0.069 -0.0401 -0.1767  0.2065
 1099W        W 4618   4.368   2.949   8.358 -0.1187 -0.4234 -0.1259
 1100W        W 4619   0.941   8.472  11.606 -0.0090 -0.1017  0.0016
 1101W        W 4620   5.539   2.625  11.538  0.0410 -0.0438  0.0781
 1102W        W 4621   2.845   6.447   8.775 -0.0166 -0.1080  0.0363
 1103W        W 4622   3.754   3.635   9.309 -0.0099  0.0083 -0.0359
 1104W        W 4623   6.718   0.894   5.237 -0.1966  0.2570  0.2196
 1105W        W 4624   8.943   3.378  11.799  0.0817  0.2825  0.0895
 1106W        W 4625   0.042   6.159   2.053  0.2824  0.3083  0.0624
 1107W        W 4626   4.080   7.872   8.591 -0.4197 -0.0263  0.1846
 1108W        W 4627   0.779   8.619   9.333 -0.1246 -0.4148 -0.2106
 1109W        W 4628   1.305   6.482   8.432 -0.1199 -0.1642 -0.0831
 1110W        W 4629   2.246   5.036  10.666 -0.1297  0.0044  0.0823
 1111W        W 4630   6.342   9.687   4.130  0.1670  0.4037 -0.0913
 1112W        W 4631   4.513   2.581   2.168  0.4761  0.0336 -0.0309
 1113W        W 4632   2.197   4.080   9.649 -0.1764 -0.1138 -0.2182
 1114W        W 4633   8.787   1.509   9.895 -0.1415 -0.0025  0.0219
 1115W        W 4634   8.671   0.388  12.181  0.1420  0.1230 -0.2997
 1116W        W 4635   5.802   7.231   2.488  0.0542  0.4393 -0.1891
 1117W        W 4636   5.032   1.764   1.272 -0.0823  0.1084 -0.1012
 1118W        W 4637   2.973   3.100   1.443 -0.0648 -0.0572  0.1855
 1119W        W 4638   4.545   4.813   9.453  0.0565 -0.0346  0.0237
 1120W        W 4639   7.413   7.456   9.444 -0.2724 -0.0580 -0.1088
 1121W        W 4640   1.398   3.827   0.313 -0.0408  0.0646  0.0582
 1122W        W 4641   2.385   3.049   4.074  0.2285 -0.2667 -0.2024
 1123W        W 4642   1.638   1.316  12.306 -0.2104  0.0061  0.0513
 1124W        W 4643   9.553   7.619   8.950  0.2014 -0.0704  0.0087
 1125W        W 4644   8.432   8.056   3.849 -0.0935  0.0614 -0.0318
 1126W        W 4645   3.597   0.363   3.698 -0.0911  0.1668  0.1711
 1127W        W 4646   5.071   4.146   1.119 -0.0829  0.2533 -0.1283
 1128W        W 4647   5.838   4.577   8.944  0.1868 -0.1424 -0.2301
 1129W        W 4648   2.498   5.345   2.577 -0.1209  0.1217 -0.1627
 1130W        W 4649   0.866   8.086  10.452 -0.0851  0.3687  0.0461
 1131W        W 4650   1.120   3.268  10.814  0.0405 -0.3538 -0.0007
 1132W        W 4651   8.515   1.198   1.129  0.1172  0.0659  0.0137
 1133W        W 4652   8.754   5.136   8.813 -0.1921  0.0350 -0.2894
 1134W        W 4653   9.258   2.569   8.908 -0.3127  0.2559 -0.2441
 1135W        W 4654   8.310   5.482   2.379  0.0924 -0.1530 -0.0979
 1136W        W 4655   2.164   7.552   8.391 -0.0862  0.0602 -0.0354
 1137W        W 4656   0.132   2.143   1.434 -0.2956 -0.1417 -0.3578
 1138W        W 4657   7.863   3.934   1.412 -0.1346  0.1746 -0.2350
 1139W        W 4658   2.512   8.958   9.830  0.0863 -0.1261 -0.1045
 1140W        W 4659   0.162   1.386  11.187  0.0943 -0.1686  0.2521
 1141W        W 4660   2.135   2.378   8.891  0.0293  0.0241 -0.2556
 1142W        W 4661   1.937   2.672  11.688  0.0157  0.1889  0.1243
 1143W        W 4662   1.560   2.623   9.728  0.1036  0.2549  0.1370
 1144W        W 4663   4.447   3.576  10.075 -0.0078  0.3708 -0.2852
 1145W        W 4664   8.625   4.626   2.040  0.1891 -0.0032  0.1959
 1146W        W 4665   1.333   2.763   0.687 -0.1324 -0.0747  0.2536
 1147W        W 4666   9.520   3.378  11.264  0.0552  0.0279  0.2327
 1148W        W 4667   6.227   1.400  11.335 -0.4397 -0.1088  0.1188
 1149W        W 4668   7.427   3.062   9.122 -0.4607  0.1059  0.2531
 1150W        W 4669   4.295   8.433   0.378 -0.1180 -0.2143 -0.0450
 1151W        W 4670   2.719   7.230   9.321 -0.0586  0.0951 -0.0301
 1152W        W 4671   7.007   9.396   3.321 -0.2407 -0.0492 -0.2824
 1153W        W 4672   9.512   6.789   2.808  0.0123 -0.0172  0.2087
 1154W        W 4673   4.128   1.334   3.812  0.1229 -0.0646 -0.0820
 1155W        W 4674   7.267   0.696  10.603 -0.0153 -0.2245  0.0300
 1156W        W 4675   7.961   3.064  10.181  0.1687 -0.0896  0.3262
 1157W        W 4676   0.490   8.368  10.179  0.2519 -0.0828  0.0762
 1158W        W 4677   7.907   5.376  10.534 -0.0642 -0.2739 -0.1300
 1159W        W 4678   7.354   0.009  10.231  0.2115 -0.3181 -0.1940
 1160W        W 4679   8.341   7.222   9.771 -0.0837  0.1581 -0.1512
 1161W        W 4680   2.992   5.591  11.148  0.1660  0.0335 -0.0368
 1162W        W 4681   9.301   8.104   1.976  0.0980  0.1182  0.0125
 1163W        W 4682   7.580   6.308   9.542  0.0389  0.1449 -0.2577
 1164W        W 4683   0.116   7.204  11.346 -0.2879 -0.0042  0.0650
 1165W        W 4684   9.380   7.243   9.357 -0.0360 -0.1500  0.0463
 1166W        W 4685   4.162   5.146   0.859  0.1116 -0.0213 -0.0716
 1167W        W 4686   7.251   7.440  11.997  0.0160  0.0454 -0.1211
 1168W        W 4687   0.480   5.966   1.912  0.2186  0.1927 -0.0044
 1169W        W 4688   6.275   1.076   5.199  0.0490  0.1670 -0.1900
 1170W        W 4689   6.454   9.292   8.337  0.0608  0.1165  0.0042
 1171W        W 4690   1.627   0.915   2.569  0.2040 -0.1154  0.1038
 1172W        W 4691   5.084   5.217   0.561 -0.2280  0.2054  0.3128
 1173W        W 4692   7.159   5.701   2.631 -0.2367  0.0836  0.2783
 1174W        W 4693   0.853   7.133   2.409 -0.0043  0.1463 -0.0511
 1175W        W 4694   4.846   0.208   1.270 -0.2582 -0.1255 -0.0832
 1176W        W 4695   8.985   3.840  10.634 -0.0460 -0.0137  0.1320
 1177W        W 4696   1.235   4.259  10.452 -0.0982  0.1361 -0.0247
 1178W        W 4697   5.610   7.696   1.520 -0.0452  0.2161 -0.0938
 1179W        W 4698   0.493   6.153   8.306  0.1012 -0.2044 -0.2258
 1180W        W 4699   8.326   2.052   0.580  0.0428 -0.1603  0.0049
 1181W        W 4700   1.904   8.150  10.134 -0.0972 -0.1034  0.0060
 1182W        W 4701   2.310   5.272   9.938 -0.1997 -0.0829  0.1064
 1183W        W 4702   7.674   9.392   2.055  0.1547  0.3479  0.1413
 1184W        W 4703   0.195   7.337  10.381  0.0024  0.3322  0.4218
 1185W        W 4704   5.987   0.323   2.187 -0.1220 -0.0343 -0.1081
 1186W        W 4705   2.706   3.600   3.098  0.4906 -0.2341 -0.4757
 1187W        W 4706   9.323   9.296  11.647  0.3274  0.2314  0.2277
 1188W        W 4707   2.665   6.552   1.963 -0.2516 -0.2013 -0.0487
 1189W        W 4708   6.037   5.418   2.624 -0.0786 -0.2441 -0.0246
 1190W        W 4709   7.360   6.830   1.619  0.4947  0.0014 -0.0099
 1191W        W 4710   7.599   0.338   8.233 -0.1261 -0.0281 -0.0335
 1192W        W 4711   3.049   3.588   2.712  0.2876  0.1389 -0.0101
 1193W        W 4712   5.698   1.446   9.483 -0.1388 -0.1290  0.1659
 1194W        W 4713   5.230   7.346  10.848 -0.3282  0.1471  0.0088
 1195W        W 4714   7.363   5.403   3.013  0.0260  0.0792  0.1125
 1196W        W 4715   4.306   9.016  11.666 -0.0260  0.3197 -0.1412
 1197W        W 4716   7.960   0.865   9.818 -0.1911  0.2026  0.1563
 1198W        W 4717   4.322   9.618  12.416 -0.0928 -0.0894  0.0288
 1199W        W 4718   5.456   5.080  10.365  0.4396  0.3394  0.1800
 1200W        W 4719   6.108   2.271   8.675  0.3432 -0.0324  0.6088
 1201W        W 4720   6.939   9.608   1.456 -0.2379  0.0023  0.1749
 1202W        W 4721   4.912   5.734  10.433 -0.0982  0.3016  0.1892
 1203W        W 4722   8.502   5.009   2.359  0.6842  0.4143  0.3001
 1204W        W 4723   4.379   6.413  10.244  0.2663  0.0123  0.3147
 1205W        W 4724   8.318   2.538   0.331  0.1066  0.0372  0.1253
 1206W        W 4725   1.509   9.258   2.209 -0.0887 -0.0948 -0.0649
 1207W        W 4726   3.930   4.096   9.202 -0.0565  0.4637  0.2156
 1208W        W 4727   2.117   5.387  11.636 -0.2973 -0.0400  0.0573
 1209W        W 4728   9.350   6.437  12.051  0.4615  0.1766  0.2288
 1210W        W 4729   4.799   9.699   2.119 -0.2064  0.0306 -0.0637
 1211W        W 4730   7.838   5.639   4.315 -0.1530 -0.1137  0.2033
 1212W        W 4731   3.817   2.153  11.964 -0.3676 -0.2013  0.4664
 1213W        W 4732   3.418   7.202   0.329  0.2985  0.1233 -0.2053
 1214W        W 4733   9.582   2.461   0.484 -0.2282 -0.0893  0.0545
 1215W        W 4734   0.929   7.975  11.973  0.0342 -0.2144 -0.0018
 1216W        W 4735   2.482   8.862  11.023  0.1555  0.1493  0.0416
 1217W        W 4736   8.002   3.617  11.694  0.3824  0.1377  0.3595
 1218W        W 4737   3.734   0.182  11.235 -0.1463 -0.0455 -0.0634
 1219W        W 4738   1.333   0.307   3.145 -0.0405  0.0931 -0.3103
 1220W        W 4739   5.658   6.137   2.277 -0.3979 -0.3415  0.0450
 1221W        W 4740   4.018   4.782   2.797 -0.0140  0.0592  0.2474
 1222W        W 4741   8.712   7.925   2.011 -0.0756  0.0559  0.4472
 1223W        W 4742   4.632   5.984  11.565  0.1230  0.1499  0.1323
 1224W        W 4743   1.598   7.819   3.125 -0.2967 -0.0382 -0.1819
 1225W        W 4744   4.193   0.267  10.186 -0.1576 -0.1526 -0.0877
 1226W        W 4745   3.986   3.663   3.285 -0.0893  0.1223 -0.1277
 1227W        W 4746   5.715   2.491  12.078 -0.1486 -0.0499  0.0572
 1228W        W 4747   0.235   3.266  10.898 -0.1313  0.2573 -0.0081
 1229W        W 4748   2.141   7.664  10.144  0.1087  0.1836 -0.3857
 1230W        W 4749   2.057   7.504   8.998 -0.1766 -0.3387 -0.0455
 1231W        W 4750   3.975   9.232   3.590  0.1203 -0.1805 -0.1280
 1232W        W 4751   4.639   3.228  12.209 -0.0172 -0.1851 -0.1911
 1233W        W 4752   8.014   6.723  10.187  0.1208  0.2364 -0.0258
 1234W        W 4753   1.944   5.222   8.685 -0.0450  0.1232 -0.0859
 1235W        W 4754   4.149   2.943  10.457 -0.1605  0.0479 -0.2181
 1236W        W 4755   9.398   2.420  11.935 -0.1528  0.0171 -0.0037
 1237W        W 4756   0.119   6.992  10.843 -0.1620  0.1149  0.1150
 1238W        W 4757   8.664   0.661  11.319  0.0779 -0.0395  0.0650
 1239W        W 4758   8.471   6.340   9.875 -0.0713 -0.1666 -0.0585
 1240W        W 4759   4.456   6.867  11.345 -0.4593 -0.1415  0.0926
 1241W        W 4760   1.018   8.566   1.566  0.0513 -0.3064 -0.0014
 1242W        W 4761   5.964   4.608   3.262  0.0594 -0.2858  0.2753
 1243W        W 4762   6.958   7.917  12.365  0.2098  0.0597  0.1039
 1244W        W 4763   4.203   8.484   1.232  0.2091  0.2810 -0.4905
 1245W        W 4764   4.460   6.851   2.695  0.0125  0.2320 -0.2667
 1246W        W 4765   3.109   2.828   0.325 -0.0274 -0.0404  0.1060
 1247W        W 4766   6.820   8.169   1.170 -0.2021 -0.1751  0.1221
 1248W        W 4767   7.325   9.024   9.788 -0.3363 -0.0685  0.5036
 1249W        W 4768   2.845   2.083  10.873  0.1086  0.1291 -0.1052
 1250W        W 4769   8.461   5.136   3.587 -0.1110  0.0950  0.1228
 1251W        W 4770   7.741   3.270   3.666  0.3320  0.2118 -0.3927
 1252W        W 4771   2.463   6.650   8.290 -0.0119  0.1356  0.1379
 1253W        W 4772   2.785   6.284   1.558 -0.1572  0.0569  0.0016
 1254W        W 4773   1.447   1.655   3.029 -0.1542 -0.0410  0.0946
 1255W        W 4774   2.169   0.214   9.142  0.2049 -0.1610  0.0168
 1256W        W 4775   8.568   6.985   0.594 -0.1783 -0.0695 -0.1530
 1257W        W 4776   0.332   6.869   0.825  0.0343  0.1389  0.1589
 1258W        W 4777   7.390   8.664   5.174  0.1749 -0.2197  0.2753
 1259W        W 4778   2.611   4.666  11.251  0.1485 -0.1004 -0.4939
 1260W        W 4779   5.720   9.061  10.021 -0.1912 -0.0966  0.0147
 1261W        W 4780   0.376   6.534  10.817 -0.3536 -0.0329 -0.3825
 1262W        W 4781   4.897   8.288   0.998 -0.0805 -0.0692  0.1543
 1263W        W 4782   0.327   4.423   9.460  0.1220  0.1798 -0.1113
 1264W        W 4783   4.023   9.691   3.810 -0.2508 -0.0088  0.1156
 1265W        W 4784   0.303   7.387   8.351  0.4705  0.1127 -0.0504
 1266W        W 4785   7.138   1.521   1.764  0.2872 -0.1880 -0.1120
 1267W        W 4786   6.227   1.920   1.548  0.0902 -0.0639 -0.2049
 1268W        W 4787   8.104   4.377   7.780  0.3252 -0.0844  0.3382
 1269W        W 4788   7.547   5.987  10.074  0.0685  0.1350  0.0443
 1270W        W 4789   7.379   3.857  10.090  0.2288 -0.0274  0.0663
 1271W        W 4790   8.254   2.237   1.809 -0.0048  0.2612  0.2509
 1272W        W 4791   5.562   9.465   4.372 -0.2983 -0.1566  0.0343
 1273W        W 4792   6.529   7.375   2.840  0.0881 -0.0394  0.0515
 1274W        W 4793   0.937   3.640   1.398  0.0702  0.1332 -0.0932
 1275W        W 4794   6.925   4.077   9.288 -0.1217  0.1331  0.1081
 1276W        W 4795   2.472   8.124   3.346 -0.2477  0.2046  0.3030
 1277W        W 4796   4.360   5.311  10.069 -0.3166 -0.2162  0.0171
 1278W        W 4797   7.620   8.299   4.027 -0.1477  0.0461 -0.1396
 1279W        W 4798   6.029   8.401   2.167  0.2733 -0.1190  0.1064
 1280W        W 4799   9.388   8.405   0.835 -0.0771 -0.0113 -0.0590
 1281W        W 4800   9.412   3.810   0.333 -0.2432  0.3246 -0.0115
 1282W        W 4801   9.672   4.036  10.066 -0.0201 -0.0657 -0.1798
 1283W        W 4802   9.530   6.201  10.161 -0.1534  0.0157 -0.1246
 1284W        W 4803   2.409   0.305   0.162 -0.1311  0.1818 -0.1575
 1285W        W 4804   0.951   7.739   0.343 -0.2388  0.1933  0.1089
 1286W        W 4805   8.596   6.875   2.594 -0.0657 -0.1864  0.1469
 1287W        W 4806   6.743   6.289   9.535 -0.0835 -0.1886  0.1546
 1288W        W 4807   4.427   2.921  10.899  0.0101 -0.0096 -0.1451
 1289W        W 4808   7.204   7.393   0.040  0.1401 -0.0533  0.0154
 1290W        W 4809   2.821   2.796   3.343 -0.1315 -0.1469 -0.0260
 1291W        W 4810   2.623   3.251  11.097  0.1060  0.0725 -0.0259
 1292W        W 4811   5.939   2.694   3.357  0.1550  0.3043 -0.0096
 1293W        W 4812   1.588   6.958   8.535  0.0001 -0.2238 -0.0031
 1294W        W 4813   0.439   3.477   8.867 -0.2866 -0.0601  0.1800
 1295W        W 4814   6.780   7.652  10.989 -0.0220  0.1191  0.1295
 1296W        W 4815   4.233   2.738   1.175 -0.1339  0.0592 -0.2591
 1297W        W 4816   9.364   2.765  10.531 -0.1278  0.0070  0.0393
 1298W        W 4817   8.267   8.083   1.259  0.0434  0.0029  0.1897
 1299W        W 4818   3.269   9.477   2.972 -0.0564 -0.0500  0.1560
 1300W        W 4819   8.764   2.339   3.728  0.2319  0.0557 -0.1353
 1301W        W 4820   7.395   7.421  11.495 -0.1910  0.0023 -0.2269
 1302W        W 4821   7.683   7.392   7.758  0.1325 -0.4415 -0.0604
 1303W        W 4822   7.029   3.491   1.091 -0.0274 -0.0843  0.2552
 1304W        W 4823   6.704   6.060   1.680  0.0950  0.1145  0.2058
 1305W        W 4824   9.583   7.853   9.427  0.0137  0.3408  0.2338
 1306W        W 4825   7.278   9.232   9.286 -0.0594 -0.1415 -0.1864
 1307W        W 4826   7.373   0.842   0.702  0.1597 -0.1327  0.1759
 1308W        W 4827   0.748   6.328   0.776  0.1184 -0.1113  0.0213
 1309W        W 4828   2.924   1.842   2.919 -0.1246 -0.1390 -0.1346
 1310W        W 4829   0.984   7.625   2.357 -0.2157  0.0446  0.2098
 1311W        W 4830   0.954   4.206   8.612  0.1100  0.1166 -0.0399
 1312W        W 4831   9.373   8.208  10.643  0.1882  0.1961 -0.3362
 1313W        W 4832   1.111   6.809   9.357  0.1571 -0.3529 -0.1061
 1314W        W 4833   3.732   0.214   4.303 -0.0212 -0.1743  0.0120
 1315W        W 4834   2.658   7.892  10.274  0.2325  0.2640 -0.1741
 1316W        W 4835   4.770   4.179  11.720  0.0044 -0.3360 -0.0839
 1317W        W 4836   8.567   1.867   9.565 -0.1000 -0.1489  0.2612
 1318W        W 4837   2.537   5.008   0.144  0.2902  0.2804 -0.1623
 1319W        W 4838   2.121   0.866   2.772  0.0144  0.0645  0.0298
 1320W        W 4839   5.317   1.256   1.166 -0.0916 -0.0859 -0.3580
 1321W        W 4840   9.527   7.403   3.497 -0.1201 -0.0514  0.2288
 1322W        W 4841   9.324   6.360   7.836 -0.0900 -0.2381  0.3537
 1323W        W 4842   5.521   4.083   2.704 -0.2850  0.1821 -0.0351
 1324W        W 4843   6.314   8.680  10.128  0.2378  0.2066  0.0960
 1325W        W 4844   6.510   5.430   2.003 -0.1335  0.1000 -0.1857
 1326W        W 4845   4.503   6.117   3.177 -0.0576  0.1839  0.1513
 1327W        W 4846   5.971   9.403   1.912  0.0282  0.0663 -0.1124
 1328W        W 4847   9.113   9.009  10.814 -0.4980 -0.0295  0.1024
 1329W        W 4848   5.705   0.225  12.323  0.1669 -0.1352  0.2222
 1330W        W 4849   3.319   5.451   1.304  0.0264  0.1764 -0.0763
 1331W        W 4850   1.241   6.318  11.473  0.2658  0.0147  0.4155
 1332W        W 4851   0.783   9.323  10.358  0.4059 -0.2619  0.0502
 1333W        W 4852   3.813   7.188   3.691 -0.0952 -0.0850 -0.0152
 1334W        W 4853   7.632   1.357  11.959 -0.1375 -0.1183  0.0555
 1335W        W 4854   1.370   2.954  10.094 -0.0495  0.1433  0.0542
 1336W        W 4855   3.128   0.579   3.529  0.0489 -0.1052 -0.1290
 1337W        W 4856   3.551   5.791   2.998 -0.1375  0.2685 -0.1542
 1338W        W 4857   4.165   0.631   2.393  0.2342  0.1127 -0.0174
 1339W        W 4858   0.947   4.290   3.357  0.1308 -0.0518  0.0289
 1340W        W 4859   3.517   5.737   8.926  0.0000  0.0462  0.0551
 1341W        W 4860   4.061   3.195   3.494  0.0490 -0.0907  0.0136
 1342W        W 4861   0.687   0.916   1.654  0.1845 -0.3728 -0.1297
 1343W        W 4862   5.645   8.949  10.582  0.0113 -0.1682  0.2318
 1344W        W 4863   4.687   6.551   8.276  0.1124  0.0134  0.2661
 1345W        W 4864   9.481   2.552   4.010  0.0088  0.0913  0.0524
 1346W        W 4865   5.347   2.058   4.195 -0.3337  0.2412 -0.0861
 1347W        W 4866   2.725   6.773  11.409 -0.0407 -0.0948  0.0950
 1348W        W 4867   4.390   7.497   0.224 -0.1373  0.0277  0.0911
 1349W        W 4868   0.395   7.849   9.573 -0.1432  0.2041  0.2295
 1350W        W 4869   4.647   5.423   4.269  0.2624 -0.0148 -0.0983
 1351W        W 4870   8.229   4.243   8.707  0.1007 -0.1835 -0.0254
 1352W        W 4871   5.009   8.900   3.342 -0.3264 -0.2411 -0.5847
 1353W        W 4872   8.944   2.275   9.412 -0.0080 -0.0503 -0.0901
 1354W        W 4873   1.752   8.255  11.106 -0.2861  0.2907  0.2171
 1355W        W 4874   7.410   8.188   8.716  0.0059  0.0009  0.0173
 1356W        W 4875   0.538   8.555  11.294  0.1107 -0.0926  0.2442
 1357W        W 4876   4.465   5.724   9.712  0.2224  0.0380  0.3190
 1358W        W 4877   8.618   2.821   3.591 -0.3356  0.2315  0.1517
 1359W        W 4878   6.630   4.510   1.635 -0.1577  0.0207  0.0247
 1360W        W 4879   8.770   3.143   0.127  0.1896  0.0741 -0.1368
 1361W        W 4880   5.023   6.257  12.312 -0.3548 -0.0778  0.1395
 1362W        W 4881   4.301   0.160   2.134 -0.0879  0.1352 -0.1514
 1363W        W 4882   5.255   0.898  10.001  0.1045 -0.0307 -0.0211
 1364W        W 4883   5.946   4.990   2.923 -0.2736 -0.2636  0.0329
 1365W        W 4884   7.247   7.847   0.992 -0.0443 -0.2824 -0.0840
 1366W        W 4885   3.883   1.685  12.259 -0.2818  0.2173  0.2187
 1367W        W 4886   0.793   1.885  10.977  0.2199  0.0870  0.0474
 1368W        W 4887   7.943   6.956  11.150 -0.2102  0.0724 -0.1850
 1369W        W 4888   3.220   7.264  10.353  0.1255 -0.0548  0.4985
 1370W        W 4889   5.479   0.994   9.547  0.2916 -0.4294  0.1506
 1371W        W 4890   7.200   3.249   1.481  0.1164 -0.0387  0.0913
 1372W        W 4891   1.425   1.971  10.021  0.0026  0.0714 -0.0866
 1373W        W 4892   5.105   2.546   2.933 -0.0490 -0.0417  0.1633
 1374W        W 4893   1.027   6.525  11.881  0.2541  0.0276  0.1666
 1375W        W 4894   1.422   3.369  11.220  0.0469 -0.3629  0.3133
 1376W        W 4895   0.040   5.893   1.183  0.1502  0.3133 -0.0872
 1377W        W 4896   3.670   7.319  11.593 -0.1165  0.1177 -0.0049
 1378W        W 4897   5.550   6.254   0.905 -0.1138 -0.3055  0.0209
 1379W        W 4898   9.043   8.966  12.394 -0.1866 -0.2847  0.0291
 1380W        W 4899   8.804   6.005   2.811  0.0436 -0.0457  0.2111
 1381W        W 4900   8.835   6.087  11.249  0.0685  0.1107 -0.1178
 1382W        W 4901   7.764   1.611   8.573  0.1024  0.0813  0.0209
 1383W        W 4902   4.827   1.837  12.037 -0.0239 -0.1189 -0.1099
 1384W        W 4903   1.883   0.269  10.429 -0.1915 -0.1092  0.2865
 1385W        W 4904   5.435   6.742   0.473 -0.3899  0.0428 -0.0237
 1386W        W 4905   8.464   7.048  10.194 -0.2406  0.0461 -0.3216
 1387W        W 4906   1.112   9.202   3.680  0.0623  0.0177  0.0351
 1388W        W 4907   4.789   3.442   2.689 -0.1740 -0.1301 -0.2051
 1389W        W 4908   5.412   8.108   8.864 -0.2343  0.1566 -0.1549
 1390W        W 4909   9.682   1.791  10.893 -0.2724 -0.0201 -0.2961
 1391W        W 4910   3.444   4.268   1.091  0.2210  0.1785  0.1134
 1392W        W 4911   8.979   1.852   9.130  0.1471  0.3665  0.0371
 1393W        W 4912   4.713   1.763   0.840 -0.1891 -0.0905 -0.0638
 1394W        W 4913   7.112   1.094  11.958  0.0065 -0.1526 -0.2020
 1395W        W 4914   6.171   6.172   9.514 -0.2307  0.1893  0.1264
 1396W        W 4915   2.906   4.269   2.122 -0.1086 -0.1666 -0.3727
 1397W        W 4916   0.178   7.039   3.089 -0.0306  0.2791  0.4172
 1398W        W 4917   6.853   7.432   0.405  0.1516  0.2790 -0.0950
 1399W        W 4918   7.640   4.038  10.626  0.1161 -0.0292  0.2824
 1400W        W 4919   3.023   4.045   9.791 -0.0245  0.4022  0.1687
 1401W        W 4920   6.715   2.612   2.983  0.0733 -0.1113 -0.3692
 1402W        W 4921   4.434   4.445   0.146 -0.2973  0.0021  0.0485
 1403W        W 4922   2.909   1.135   1.899  0.2345  0.1400 -0.3311
 1404W        W 4923   0.445   9.059   0.732 -0.1275 -0.3498  0.0240
 1405W        W 4924   9.132   2.463   0.724 -0.0861 -0.1687  0.2349
 1406W        W 4925   4.108   1.411   4.366 -0.0356 -0.2740 -0.4658
 1407W        W 4926   1.827   9.181   3.017  0.0277 -0.0762 -0.1277
 1408W        W 4927   0.458   7.454   2.613 -0.1457  0.0010  0.1904
 1409W        W 4928   0.489   3.547   0.509  0.1591  0.0052  0.2236
 1410W        W 4929   7.637   4.937   3.114 -0.3794  0.3971 -0.0331
 1411W        W 4930   0.236   5.166   1.348 -0.0940  0.1547  0.0597
 1412W        W 4931   5.077   6.368   8.517  0.1212 -0.1569  0.1716
 1413W        W 4932   8.541   5.493   7.598 -0.0955 -0.1490 -0.2446
 1414W        W 4933   8.525   2.824   9.753 -0.2481 -0.0204  0.0515
 1415W        W 4934   3.650   6.342   0.938 -0.1672 -0.2331  0.0830
 1416W        W 4935   2.650   3.653   8.429 -0.2337 -0.3600 -0.0733
 1417W        W 4936   0.730   0.017   0.888  0.1428 -0.1974 -0.0094
 1418W        W 4937   3.554   6.723   2.524  0.4232 -0.0392 -0.0553
 1419W        W 4938   1.783   2.073   0.881  0.1970  0.0075  0.0325
 1420W        W 4939   6.579   9.180   3.185  0.0177  0.0152 -0.3254
 1421W        W 4940   5.181   8.756   1.857 -0.2980  0.1243  0.1816
 1422W        W 4941   4.272   8.851   2.842 -0.1740 -0.2351  0.1868
 1423W        W 4942   0.395   6.400   3.609  0.1039  0.0631  0.1477
 1424W        W 4943   8.886   3.067  10.746 -0.0168 -0.0643 -0.0715
 1425W        W 4944   7.237   2.367   9.783 -0.0451  0.1190  0.2507
 1426W        W 4945   6.257   0.357  12.103 -0.2517  0.2457  0.0878
 1427W        W 4946   4.284   8.309   2.848  0.1207  0.2320 -0.1573
 1428W        W 4947   6.026   7.876   2.931 -0.2628  0.2841  0.1265
 1429W        W 4948   0.757   8.074   9.256 -0.1856  0.2047 -0.0071
 1430W        W 4949   8.909   8.247  10.982  0.1050  0.1247  0.0761
 1431W        W 4950   8.900   7.665   2.822  0.2457 -0.0631  0.2061
 1432W        W 4951   8.842   5.469   3.784 -0.0170 -0.1580  0.3334
 1433W        W 4952   1.148   2.112  10.471 -0.0504  0.1020  0.1267
 1434W        W 4953   2.565   5.153  11.134  0.2462  0.1111  0.2770
 1435W        W 4954   5.331   8.470   4.517 -0.0236  0.0110 -0.2494
 1436W        W 4955   7.977   4.370   0.083  0.1486  0.2749 -0.0864
 1437W        W 4956   1.062   7.520   9.007  0.0305  0.1596 -0.2055
 1438W        W 4957   6.837   7.209   8.786  0.0546 -0.1237  0.4206
 1439W        W 4958   7.603   7.751   2.881  0.1926 -0.1745  0.1071
 1440W        W 4959   1.904   8.738  11.072 -0.3029 -0.2396  0.1347
 1441W        W 4960   6.069   6.079   0.843  0.3288  0.3400 -0.1747
 1442W        W 4961   4.016   8.667   0.029 -0.2109 -0.0277 -0.1633
 1443W        W 4962   0.954   7.850   0.861 -0.0151 -0.0923 -0.2115
 1444W        W 4963   5.914   7.970  11.334 -0.0162  0.1073  0.2546
 1445W        W 4964   2.675   4.163   0.240 -0.1330 -0.1930 -0.0361
 1446W        W 4965   5.336   7.687  11.480 -0.0618  0.0861  0.1693
 1447W        W 4966   3.784   7.026   3.216 -0.0062  0.0627 -0.0450
 1448W        W 4967   3.953   7.638  11.802 -0.0603  0.2154 -0.3103
 1449W        W 4968   8.496   4.342   0.347  0.4629  0.0403 -0.0375
 1450W        W 4969   7.094   3.681   3.287  0.0306  0.1617 -0.0710
 1451W        W 4970   9.472   3.781  12.274 -0.2399 -0.0412  0.1321
 1452W        W 4971   7.893   1.073   9.352 -0.2036  0.1387 -0.3121
 1453W        W 4972   7.192   9.204   0.284  0.0108  0.1086  0.0380
 1454W        W 4973   4.035   5.599   8.953  0.2507 -0.3171 -0.2215
 1455W        W 4974   8.173   2.308   8.062  0.0484 -0.0673  0.0950
 1456W        W 4975   4.465   7.174   8.991 -0.4363 -0.1559 -0.0394
 1457W        W 4976   3.602   8.594   1.932 -0.2554 -0.0784  0.2499
 1458W        W 4977   6.237   2.713   8.850  0.2170 -0.1862  0.0072
 1459W        W 4978   2.209   2.781   0.521 -0.0769  0.0321 -0.5195
 1460W        W 4979   1.442   7.814   8.881  0.0560 -0.0766  0.0053
 1461W        W 4980   0.644   1.753   3.686  0.0440 -0.4463  0.2475
 1462W        W 4981   3.207   2.669   9.348  0.3059 -0.1005 -0.2658
 1463W        W 4982   8.813   5.034   7.674 -0.0833 -0.2908  0.0381
 1464W        W 4983   0.199   4.689  11.221  0.0722 -0.1612 -0.3533
 1465W        W 4984   0.504   5.878   0.992 -0.0212 -0.4903  0.0903
 1466W        W 4985   3.166   2.511   0.746  0.0224 -0.0245  0.0632
 1467W        W 4986   7.112   7.470   4.096 -0.0212  0.3082 -0.0780
 1468W        W 4987   0.978   8.501  10.199  0.2632  0.1090  0.0797
 1469W        W 4988   2.514   7.697   0.514 -0.1304  0.3018  0.0413
 1470W        W 4989   5.672   7.741   3.749 -0.1224 -0.1398  0.0547
 1471W        W 4990   6.800   6.113   3.598 -0.0498  0.2308 -0.1360
 1472W        W 4991   6.130   5.160   0.553 -0.3292  0.1950  0.1076
 1473W        W 4992   7.416   2.674  12.211  0.0092 -0.3119  0.0989
 1474W        W 4993   9.327   0.330   9.663  0.2329  0.0046  0.2202
 1475W        W 4994   4.338   5.358   2.611  0.2426  0.1402 -0.2652
 1476W        W 4995   8.503   9.672  12.458  0.0257 -0.1555 -0.2495
 1477W        W 4996   3.194   0.056   3.360  0.1606 -0.1412  0.0791
 1478W        W 4997   5.353   2.077   2.713 -0.1160 -0.0164 -0.0119
 1479W        W 4998   8.404   2.858   3.034 -0.0123  0.0104  0.2928
 1480W        W 4999   0.489   3.922  10.138  0.0527 -0.1458  0.3286
 1481W        W 5000   5.951   0.752  10.612  0.0641 -0.1197  0.3579
 1482W        W 5001   2.676   1.561   2.552 -0.0847  0.0903  0.1529
 1483W        W 5002   7.915   6.235  10.844  0.2406  0.1618  0.1138
 1484W        W 5003   9.338   8.802   4.066  0.1849 -0.0745  0.2273
 1485W        W 5004   4.976   9.666  10.830  0.1679 -0.0726  0.2344
 1486W        W 5005   8.132   9.521  10.093  0.1888 -0.2725  0.0793
 1487W        W 5006   1.762   6.892  10.779 -0.4595 -0.3203 -0.0135
 1488W        W 5007   2.299   5.534  10.985 -0.0981  0.4467 -0.0267
 1489W        W 5008   9.204   6.212   0.569 -0.0683  0.1373  0.1305
 1490W        W 5009   6.203   6.686   9.290 -0.2718 -0.1000 -0.0440
 1491W        W 5010   4.856   4.294  11.232 -0.3234 -0.2250  0.1485
 1492W        W 5011   0.425   7.503   3.187 -0.2675 -0.0646  0.0984
 1493W        W 5012   6.802   3.598   9.119 -0.2785 -0.2761 -0.0548
 1494W        W 5013   7.598   1.673   2.069  0.0852  0.3484  0.0561
 1495W        W 5014   2.884   0.699   0.698  0.3365  0.0749 -0.3296
 1496W        W 5015   6.967   5.069   9.653  0.0659 -0.1286  0.0364
 1497W        W 5016   2.467   8.583   8.249  0.0272  0.0349 -0.1306
 1498W        W 5017   5.830   8.946   3.913 -0.0706  0.0657 -0.0389
 1499W        W 5018   1.136   8.399  12.049  0.0844 -0.1431 -0.0780
 1500W        W 5019   9.510   0.046  12.347  0.0009 -0.0153 -0.0759
 1501W        W 5020   8.094   1.806   9.821 -0.2030  0.1173  0.0514
 1502W        W 5021   7.891   0.526  11.446  0.0880 -0.0425  0.1842
 1503W        W 5022   7.702   6.269   1.639 -0.0042 -0.0518 -0.0708
 1504W        W 5023   2.990   7.904  11.978 -0.0096 -0.2855 -0.2096
 1505W        W 5024   4.124   2.217   3.876 -0.3206 -0.0433 -0.0076
 1506W        W 5025   7.121   6.711  11.061 -0.4257 -0.0146  0.5239
 1507W        W 5026   0.119   6.612  12.031  0.2725 -0.2380  0.0082
 1508W        W 5027   6.759   3.002  11.019 -0.2299  0.0254  0.0594
 1509W        W 5028   8.616   0.441   9.129 -0.3116 -0.0871  0.1053
 1510W        W 5029   7.811   5.822   2.905  0.0050 -0.0951 -0.2452
 1511W        W 5030   4.110   7.213   9.362 -0.4618  0.0365  0.4338
 1512W        W 5031   0.025   9.104   0.965  0.0944 -0.1129 -0.2774
 1513W        W 5032   0.353   0.989  11.440  0.0287  0.0922 -0.2273
 1514W        W 5033   5.013   5.227   3.392  0.0238  0.1962 -0.0477
 1515W        W 5034   7.062   4.310  11.675  0.0604  0.0507  0.0196
 1516W        W 5035   0.021   5.721  10.925  0.1821  0.0395 -0.1812
 1517W        W 5036   4.876   5.598   1.500  0.0235 -0.1125  0.1281
 1518W        W 5037   4.617   1.754  10.882 -0.1082  0.1913 -0.3730
 1519W        W 5038   6.600   2.337  10.038 -0.0398 -0.3783 -0.6377
 1520W        W 5039   0.314   8.805  10.903  0.1991  0.0236 -0.0120
 1521W        W 5040   0.950   2.987   2.717 -0.0957 -0.2361  0.2490
 1522W        W 5041   1.914   1.597   1.047  0.1014  0.2427  0.0940
 1523W        W 5042   1.415   2.059   1.730  0.2089  0.2302 -0.1827
 1524W        W 5043   7.531   9.532   7.713 -0.0271 -0.0735 -0.0547
 1525W        W 5044   7.061   3.223   9.585 -0.0152 -0.0284 -0.1940
 1526W        W 5045   4.288   3.282   1.375 -0.1347 -0.1371 -0.0831
 1527W        W 5046   6.591   3.122   2.069 -0.1546 -0.0881 -0.0140
 1528W        W 5047   7.983   3.257   1.046  0.1063 -0.0663 -0.0800
 1529W        W 5048   1.881   1.951   9.399  0.2269 -0.0060  0.2247
 1530W        W 5049   4.708   2.365   2.581 -0.0932 -0.0978 -0.2436
 1531W        W 5050   6.862   0.055   9.939 -0.3679  0.1996 -0.3130
 1532W        W 5051   8.162   8.974  12.072 -0.0756 -0.0408 -0.2281
 1533W        W 5052   5.667   4.905   0.250  0.3957 -0.0202  0.1665
 1534W        W 5053   4.565   1.058   9.099 -0.1323  0.0740 -0.0838
 1535W        W 5054   7.688   1.156   1.092  0.2385  0.2974  0.1808
 1536W        W 5055   7.998   1.905  10.784 -0.0259 -0.0333  0.1091
 1537W        W 5056   5.436   7.414   9.226 -0.0800 -0.0417 -0.2901
 1538W        W 5057   2.648   6.166   8.204 -0.0166  0.0679  0.2248
 1539W        W 5058   7.361   1.707  10.720  0.1218  0.1628  0.2018
 1540W        W 5059   2.375   4.345   2.267  0.2561  0.1192  0.1108
 1541W        W 5060   1.796   5.693  12.010  0.3006 -0.0439 -0.2967
 1542W        W 5061   0.263   9.584   0.762  0.2261 -0.1624  0.4508
 1543W        W 5062   1.184   4.116   0.645 -0.0066  0.0967  0.1230
 1544W        W 5063   3.851   7.663   3.648  0.2216 -0.2162  0.2290
 1545W        W 5064   8.865   5.459   4.282  0.1841 -0.2976  0.0287
 1546W        W 5065   2.519   5.687  11.411  0.0464  0.0019 -0.0827
 1547W        W 5066   7.589   6.082   4.267 -0.0352 -0.0271 -0.0813
 1548W        W 5067   5.198   7.039   1.244 -0.1268 -0.1582  0.2024
 1549W        W 5068   7.562   3.657   3.389  0.0356 -0.0367  0.1804
 1550W        W 5069   7.210   7.534  10.003  0.1640  0.0726 -0.3070
 1551W        W 5070   3.089   3.164  11.137  0.0882 -0.1460  0.1958
 1552W        W 5071   1.144   7.439   1.057  0.1449 -0.0641 -0.0693
 1553W        W 5072   5.908   7.447   3.463  0.0060 -0.0676  0.2417
 1554W        W 5073   8.333   2.859   0.961 -0.4240  0.0305  0.0896
 1555W        W 5074   5.164   2.680   8.833 -0.0517 -0.1594  0.1711
 1556W        W 5075   3.378   8.564   3.707 -0.1060  0.0764  0.1515
 1557W        W 5076   1.890   7.925  10.706  0.3924 -0.0330  0.0378
 1558W        W 5077   6.983   7.203  11.072  0.3290  0.2012 -0.3135
 1559W        W 5078   9.389   7.250   0.209  0.0089  0.1938  0.0645
 1560W        W 5079   6.245   9.345   9.419  0.2125  0.2762  0.1365
 1561W        W 5080   6.100   5.888  12.059  0.5118  0.1518 -0.4449
 1562W        W 5081   5.328   2.043   0.718 -0.1153  0.0106 -0.0525
 1563W        W 5082   6.805   6.405  11.586  0.1564 -0.1715 -0.2542
 1564W        W 5083   8.538   7.866  10.178  0.3115 -0.5200 -0.1019
 1565W        W 5084   3.817   0.150   2.414  0.0495 -0.0130 -0.1038
 1566W        W 5085   2.488   5.454   4.008 -0.3063  0.1995  0.1004
 1567W        W 5086   2.296   6.036   2.497 -0.2462  0.1116  0.0745
 1568W        W 5087   8.111   2.984   3.947  0.1169 -0.0737  0.1968
 1569W        W 5088   4.499   1.108   4.237  0.0313  0.1347 -0.1334
 1570W        W 5089   1.306   2.720   2.497  0.1306  0.0492 -0.2289
 1571W        W 5090   7.099   5.832   3.256 -0.0208 -0.1356 -0.1426
 1572W        W 5091   3.035   2.422  10.377 -0.2002 -0.0692 -0.0154
 1573W        W 5092   3.747   5.584  11.415 -0.1445 -0.2842  0.1391
 1574W        W 5093   5.516   9.057   1.400 -0.2918 -0.0616 -0.0758
 1575W        W 5094   9.665   7.003  10.031  0.1842 -0.1630 -0.0954
 1576W        W 5095   6.090   7.078  12.356 -0.2094  0.2317 -0.1139
 1577W        W 5096   3.552   2.786   1.006 -0.2007  0.1642  0.3597
 1578W        W 5097   0.933   4.542   0.518  0.0421  0.2660  0.1643
 1579W        W 5098   4.369   3.325   3.012 -0.0833 -0.2613 -0.0204
 1580W        W 5099   9.708   7.572   2.030 -0.3814 -0.1655  0.2938
 1581W        W 5100   3.755   7.333  12.141 -0.0656  0.0924  0.3860
 1582W        W 5101   9.166   7.826  10.952 -0.0966  0.1421  0.1844
 1583W        W 5102   7.477   4.247   9.703 -0.0463  0.4102 -0.3779
 1584W        W 5103   5.880   6.575   2.296 -0.0797  0.0851  0.1278
 1585W        W 5104   8.578   9.309   1.877  0.1592 -0.0460  0.0477
 1586W        W 5105   1.802   0.581   3.016  0.0059 -0.1090  0.0617
 1587W        W 5106   2.286   5.934   0.396  0.1205 -0.2387 -0.0890
 1588W        W 5107   2.364   1.241  10.964  0.0304 -0.0353 -0.1241
 1589W        W 5108   9.591   1.723   9.774 -0.1012  0.0514 -0.0568
 1590W        W 5109   7.629   0.082   3.724 -0.2114 -0.1581 -0.0540
 1591W        W 5110   0.068   3.117  10.461  0.0462 -0.0183 -0.0120
 1592W        W 5111   2.562   5.514   8.139  0.1416  0.0306  0.1309
 1593W        W 5112   3.754   6.439   1.936 -0.2489 -0.2422  0.0297
 1594W        W 5113   3.570   6.081   8.583 -0.3327 -0.0842 -0.3252
 1595W        W 5114   0.788   7.964   2.754 -0.3551 -0.3567  0.2472
 1596W        W 5115   0.418   8.668   9.795  0.1681  0.0210 -0.2135
 1597W        W 5116   6.881   1.642   8.820  0.0113 -0.1369 -0.2155
 1598W        W 5117   0.122   2.777   2.851 -0.2093 -0.1220 -0.0706
 1599W        W 5118   1.606   3.366   9.185  0.2491 -0.0516 -0.3133
 1600W        W 5119   1.789   3.507   3.406 -0.1125 -0.2048  0.1107
 1601W        W 5120   4.330   2.379   0.165  0.3248  0.1659 -0.1981
 1602W        W 5121   0.822   6.233   4.073 -0.0564 -0.1051  0.3962
 1603W        W 5122   0.813   6.442   9.956  0.2628 -0.0349 -0.0782
 1604W        W 5123   3.724   7.411   4.127  0.1797  0.1657  0.4481
 1605W        W 5124   8.056   3.382  11.166 -0.2479  0.2358 -0.5480
 1606W        W 5125   5.193   8.924   2.425  0.1126  0.1034 -0.4579
 1607W        W 5126   3.352   0.355  10.982 -0.2886  0.2496 -0.1450
 1608W        W 5127   0.556   0.579  10.958  0.3256  0.0829  0.1030
 1609W        W 5128   2.592   6.083  12.425  0.0689 -0.0839 -0.0922
 1610W        W 5129   4.861   8.185   0.409  0.1567 -0.0286 -0.0052
 1611W        W 5130   5.697   5.838  11.176  0.3549 -0.2361 -0.3063
 1612W        W 5131   6.029   3.489   3.679 -0.0611 -0.1944 -0.1528
 1613W        W 5132   9.123   4.889  11.774 -0.0886 -0.0018 -0.1370
 1614W        W 5133   9.335   5.107   2.072  0.2762 -0.2147 -0.2432
 1615W        W 5134   6.084   2.890   9.295  0.0310 -0.0381 -0.0774
 1616W        W 5135   3.717   2.585   2.127 -0.0161 -0.2407  0.2865
 1617W        W 5136   0.763   8.789   2.189 -0.1465  0.0621  0.1424
 1618W        W 5137   7.291   7.890   9.716 -0.0572  0.2743 -0.1970
 1619W        W 5138   6.116   9.001   3.104 -0.1145  0.0642  0.2659
 1620W        W 5139   6.370   6.092   1.249  0.1392  0.0269 -0.0211
 1621W        W 5140   9.594   3.032   2.433 -0.0811  0.2373  0.1315
 1622W        W 5141   0.632   3.317  11.592  0.2279  0.1484 -0.2448
 1623W        W 5142   2.455   9.415   9.760 -0.1523 -0.3197  0.0728
 1624W        W 5143   6.959   3.497   1.956 -0.0841  0.0347 -0.2616
 1625W        W 5144   1.615   5.976   2.626  0.0403 -0.2519  0.0283
 1626W        W 5145   0.231   1.791   9.461  0.2080  0.1195 -0.1586
 1627W        W 5146   3.932   7.648   9.639 -0.1370 -0.3441 -0.0717
 1628W        W 5147   3.186   1.382  12.261 -0.1695  0.0489 -0.1548
 1629W        W 5148   6.026   1.534   9.045 -0.3964  0.1239 -0.0139
 1630W        W 5149   0.924   7.160  11.972 -0.1119 -0.1544  0.1406
 1631W        W 5150   7.133   3.542   0.249 -0.0363 -0.0658 -0.1091
 1632W        W 5151   4.417   1.494   8.864 -0.0609  0.2680  0.1255
 1633W        W 5152   1.078   6.664   1.118 -0.1446  0.0138 -0.1589
 1634W        W 5153   1.726   2.282  11.340 -0.0413  0.1629 -0.0803
 1635W        W 5154   4.821   8.635   8.826  0.3425  0.1334  0.3127
 1636W        W 5155   9.537   1.416   3.673 -0.0959 -0.0788  0.2175
 1637W        W 5156   7.856   7.511   9.102 -0.0105  0.1896 -0.2846
 1638W        W 5157   7.720   4.750   2.631  0.1183 -0.2041 -0.0989
 1639W        W 5158   4.085   8.601  12.049 -0.2693 -0.3583  0.0866
 1640W        W 5159   5.678   0.704   2.436 -0.1457  0.1331 -0.1596
 1641W        W 5160   8.211   4.918  12.078  0.3550 -0.0526 -0.0294
 1642W        W 5161   6.504   5.188   0.101  0.0424 -0.0547 -0.4851
 1643W        W 5162   1.839   4.260   2.344  0.2908 -0.0296 -0.3555
 1644W        W 5163   0.096   0.978   2.313 -0.2477 -0.2324 -0.0190
 1645W        W 5164   4.237   7.614   1.056 -0.1210  0.0950 -0.5138
 1646W        W 5165   3.928   7.667   1.661 -0.0553 -0.4633 -0.1002
 1647W        W 5166   6.198   1.945   9.264  0.0639 -0.1768  0.0388
 1648W        W 5167   6.682   9.344  12.173  0.0659 -0.1365  0.2053
 1649W        W 5168   0.385   6.803  10.076 -0.1554 -0.3310 -0.1426
 1650W        W 5169   5.362   4.268   1.972  0.1221  0.1656  0.1070
 1651W        W 5170   8.119   5.761   3.555 -0.0839  0.1876  0.1799
 1652W        W 5171   0.606   2.794   3.036  0.0066 -0.1510 -0.1434
 1653W        W 5172   2.629   3.828   0.663 -0.1431 -0.2087  0.1165
 1654W        W 5173   7.032   3.446  11.016  0.3238  0.2373 -0.2490
 1655W        W 5174   4.629   0.133   3.136 -0.1329 -0.3818  0.1212
 1656W        W 5175   6.229   7.829   4.482  0.1083 -0.3116 -0.0987
 1657W        W 5176   2.332   6.786   0.273 -0.0428 -0.0394 -0.0954
 1658W        W 5177   9.536   3.555   0.781  0.0586 -0.2164  0.0406
 1659W        W 5178   6.577   2.026   2.918 -0.1497 -0.1875 -0.0667
 1660W        W 5179   6.784   0.249   0.447  0.2559 -0.0202 -0.0460
 1661W        W 5180   8.959   0.652  10.871  0.0857  0.0704 -0.0877
 1662W        W 5181   7.897   7.604   3.246 -0.1163 -0.1333  0.0523
 1663W        W 5182   9.456   4.785   3.096  0.0915 -0.0643  0.0749
 1664W        W 5183   1.259   9.686   2.729  0.1242 -0.1011 -0.1630
 1665W        W 5184   1.723   0.844  11.636 -0.1260 -0.3268 -0.2293
 1666W        W 5185   5.616   7.661  12.381  0.0932 -0.3132  0.0904
 1667W        W 5186   5.534   8.289   0.434  0.0275  0.1654 -0.0784
 1668W        W 5187   2.750   3.804   2.231  0.2319 -0.0905  0.1491
 1669W        W 5188   3.595   0.860   0.442 -0.1188 -0.1355  0.1382
 1670W        W 5189   9.691   0.610   0.395 -0.0947  0.0300 -0.0666
 1671W        W 5190   3.673   8.121  11.418 -0.1474 -0.0687  0.0264
 1672W        W 5191   8.245   1.604   9.316  0.1083  0.0829 -0.2335
 1673W        W 5192   4.196   6.594   1.295 -0.2488  0.0623 -0.1831
 1674W        W 5193   6.643   7.559  12.459  0.4898 -0.2740 -0.0839
 1675W        W 5194   4.100   5.584   3.347 -0.0309  0.0641 -0.3891
 1676W        W 5195   7.174   5.100   1.119  0.2586  0.3479 -0.1189
 1677W        W 5196   5.711   2.811   8.914  0.0944 -0.1134 -0.1750
 1678W        W 5197   5.002   6.339   9.049 -0.1145  0.0391 -0.4658
 1679W        W 5198   6.295   1.444  11.874 -0.0054  0.2068  0.0191
 1680W        W 5199   1.814   2.622   0.805 -0.1296  0.2767  0.2128
 1681W        W 5200   6.084   2.142   4.851  0.2491  0.1369  0.1204
 1682W        W 5201   2.185   9.686   2.384  0.0855  0.3715  0.1021
 1683W        W 5202   5.480   7.058  10.392 -0.4713 -0.0780 -0.0055
 1684W        W 5203   3.344   6.795   0.669 -0.0242  0.2233 -0.1284
 1685W        W 5204   5.328   3.199   9.733  0.3888  0.2904 -0.2000
 1686W        W 5205   3.630   6.542   3.062  0.0596  0.0132  0.0002
 1687W        W 5206   0.155   5.561  12.264  0.0619 -0.1018 -0.0066
 1688W        W 5207   4.357   2.066   0.917 -0.2421 -0.3898  0.2222
 1689W        W 5208   2.544   3.851   9.983  0.2174  0.1704  0.0421
 1690W        W 5209   0.852   2.888  11.945  0.0609  0.0783  0.2674
 1691W        W 5210   0.123   8.594   0.920  0.2545  0.3706  0.2215
 1692W        W 5211   5.554   4.353   8.283  0.1620  0.1184  0.1397
 1693W        W 5212   3.392   1.202   1.907 -0.4685  0.1125  0.0562
 1694W        W 5213   2.339   0.443  10.102  0.0722  0.0473 -0.1198
 1695W        W 5214   6.445   8.775   3.464  0.0618 -0.2438 -0.3681
 1696W        W 5215   0.759   3.065  12.391  0.0768 -0.1482 -0.0830
 1697W        W 5216   3.399   4.968   0.696 -0.3258 -0.3439  0.2468
 1698W        W 5217   3.093   4.627  12.224 -0.2631 -0.2381 -0.0210
 1699W        W 5218   0.130   2.615   1.227  0.2747 -0.1343  0.0293
 1700W        W 5219   2.633   4.378   9.731  0.1504 -0.1520 -0.1945
 1701W        W 5220   5.425   5.334  11.318  0.4343 -0.3486  0.0024
 1702W        W 5221   9.296   0.015   3.481 -0.1044 -0.5371 -0.0897
 1703W        W 5222   2.435   6.931   7.726 -0.2506 -0.6438  0.0453
 1704W        W 5223   0.395   1.919   3.190 -0.0542  0.5898 -0.1618
 1705W        W 5224   3.487   9.163   1.174  0.0925 -0.0195  0.0062
 1706W        W 5225   3.901   6.343  10.873 -0.1730  0.0525 -0.0130
 1707W        W 5226   3.065   6.758  12.139 -0.2299  0.3466 -0.2456
 1708W        W 5227   7.220   2.973  11.341  0.0308 -0.0086 -0.0321
 1709W        W 5228   6.450   0.833   4.314 -0.1884  0.1069 -0.0899
 1710W        W 5229   7.600   6.747   8.262 -0.2873  0.2717 -0.2631
 1711W        W 5230   2.039   5.635   2.629 -0.2029  0.1621  0.0763
 1712W        W 5231   8.951   0.480   2.086  0.0240  0.5696 -0.0022
 1713W        W 5232   8.198   2.258  11.099 -0.0623  0.1504  0.1068
 1714W        W 5233   7.930   5.588   0.133 -0.1612 -0.2523  0.0733
 1715W        W 5234   4.689   8.616  10.679  0.0197  0.0699 -0.1118
 1716W        W 5235   7.651   9.604   0.543  0.1969  0.0323 -0.1281
 1717W        W 5236   6.142   7.576   2.529  0.4057  0.2262  0.0678
 1718W        W 5237   6.964   9.549   9.516  0.0555  0.0648 -0.1866
 1719W        W 5238   9.565   3.838   1.323  0.1265 -0.1010  0.1162
 1720W        W 5239   6.037   6.010  11.562 -0.0693 -0.0447 -0.0031
 1721W        W 5240   4.444   0.524   8.196  0.2427  0.4476  0.0383
 1722W        W 5241   7.915   3.122   9.002  0.3050 -0.0497  0.0100
 1723W        W 5242   6.064   3.856   1.026  0.2089  0.0440  0.2212
 1724W        W 5243   9.705   9.175   9.449 -0.0960  0.1464 -0.0487
 1725W        W 5244   9.288   6.007   1.434 -0.2473  0.2306  0.0084
 1726W        W 5245   8.147   4.122   1.033 -0.0481  0.0735  0.0712
 1727W        W 5246   8.309   7.756   1.722 -0.0556 -0.0766 -0.1990
 1728W        W 5247   4.718   8.688   2.674  0.0699  0.1401  0.2139
 1729W        W 5248   7.221   2.237  12.417 -0.1241 -0.2204  0.2353
 1730W        W 5249   9.262   9.461  10.595  0.2541 -0.1737 -0.0013
 1731W        W 5250   6.180   0.729   1.086  0.5642  0.0453  0.0385
 1732W        W 5251   0.378   1.728   1.926  0.0007  0.1310 -0.2313
 1733W        W 5252   6.126   3.777   0.084 -0.0013  0.1522 -0.0130
 1734W        W 5253   9.518   3.924  10.573 -0.0482  0.0268 -0.1874
 1735W        W 5254   6.476   3.867   2.773  0.4054 -0.2294  0.1879
 1736W        W 5255   3.821   0.619   8.849 -0.1359  0.1045  0.1818
 1737W        W 5256   3.483   4.515   0.338 -0.2431 -0.1669  0.1786
 1738W        W 5257   4.710   3.428   1.149  0.1742  0.0308 -0.3008
 1739W        W 5258   3.395   7.760   9.665  0.1460 -0.2366  0.2123
 1740W        W 5259   3.989   2.153  10.419  0.2223 -0.3850 -0.0618
 1741W        W 5260   6.356   2.836   4.282  0.1540  0.1419 -0.0494
 1742W        W 5261   9.225   6.517   1.485 -0.1792  0.0805  0.2275
 1743W        W 5262   6.837   5.046  11.776 -0.2418 -0.1957 -0.3265
 1744W        W 5263   8.510   4.967  11.235 -0.0835 -0.0049  0.0488
 1745W        W 5264   7.996   6.356   2.717  0.2063 -0.2577 -0.0133
 1746W        W 5265   6.567   4.917   1.991  0.2036  0.2031  0.1960
 1747W        W 5266   1.817   6.226   3.209  0.1310  0.0521  0.1047
 1748W        W 5267   6.793   1.380   0.072  0.0747 -0.0758  0.1493
 1749W        W 5268   1.548   5.054  10.555 -0.2694  0.0993 -0.1411
 1750W        W 5269   7.953   5.272   9.934  0.1856 -0.2007  0.1474
 1751W        W 5270   8.166   9.559  11.511  0.2558 -0.0549  0.0140
 1752W        W 5271   0.206   2.151   0.706  0.0280 -0.0613  0.3076
 1753W        W 5272   5.988   8.783  10.882  0.0731 -0.0388 -0.1110
 1754W        W 5273   3.799   0.396   0.615 -0.0655  0.0724 -0.1610
 1755W        W 5274   2.591   1.353  11.430  0.0519  0.0568  0.2422
 1756W        W 5275   6.055   7.131   3.816  0.1357  0.1808 -0.1064
 1757W        W 5276   5.735   7.163   0.318 -0.2453  0.1575 -0.0219
 1758W        W 5277   1.122   7.328   9.535 -0.1354 -0.1593 -0.1455
 1759W        W 5278   7.129   2.161  11.057 -0.0658  0.1286  0.0975
 1760W        W 5279   5.473   9.104   2.000 -0.2856 -0.0306  0.0979
 1761W        W 5280   6.145   9.465  11.463  0.0154 -0.1101  0.0807
 1762W        W 5281   1.475   2.328   2.719  0.4129 -0.0764  0.1789
 1763W        W 5282   8.928   6.363   3.743  0.1324  0.3228  0.1723
 1764W        W 5283   0.603   8.084  10.989  0.3096 -0.2391 -0.1146
 1765W        W 5284   1.318   6.311   2.388  0.1741 -0.3555 -0.0367
 1766W        W 5285   0.049   7.036   1.739  0.2726  0.0477 -0.1529
 1767W        W 5286   6.710   8.076   7.827  0.0366 -0.2551 -0.2204
 1768W        W 5287   3.099   1.386   9.072 -0.0922  0.5475  0.1061
 1769W        W 5288   0.758   0.668  11.740  0.1552  0.2099 -0.1990
 1770W        W 5289   3.852   5.283  10.125 -0.0733  0.0227  0.1242
 1771W        W 5290   6.547   3.536   0.217 -0.0013 -0.0790  0.1966
 1772W        W 5291   8.955   4.395   8.153 -0.0875 -0.0512 -0.0478
 1773W        W 5292   3.026   5.760   0.023  0.0432  0.1298 -0.0326
 1774W        W 5293   2.947   8.329   8.556 -0.2259  0.2148 -0.0674
 1775W        W 5294   7.792   0.377   9.631  0.0624 -0.0947 -0.0400
 1776W        W 5295   9.531   3.389   0.124 -0.1795  0.2481 -0.1423
 1777W        W 5296   0.696   6.435  11.456 -0.3462  0.0864  0.0736
 1778W        W 5297   6.547   4.498   2.166  0.0117 -0.1571 -0.1013
 1779W        W 5298   2.056   7.812   3.511  0.0880 -0.0524 -0.1138
 1780W        W 5299   7.969   5.100   0.447  0.1500  0.0153  0.1097
 1781W        W 5300   9.296   8.739   4.755 -0.1238  0.0090  0.0117
 1782W        W 5301   8.372   0.138   8.800 -0.3287  0.0882 -0.1278
 1783W        W 5302   1.061   3.916  11.835 -0.0141 -0.0587  0.1840
 1784W        W 5303   4.071   3.760   1.698 -0.3369  0.2065 -0.2806
 1785W        W 5304   3.852   9.000  10.759 -0.0364 -0.1035 -0.0866
 1786W        W 5305   9.675   1.804   1.004 -0.0221  0.2140 -0.0788
 1787W        W 5306   7.903   4.451   4.379 -0.3684 -0.1317 -0.1692
 1788W        W 5307   9.680   1.375   1.980 -0.1182  0.1272 -0.0697
 1789W        W 5308   3.711   8.973   0.719  0.0010 -0.1312  0.1052
 1790W        W 5309   1.970   2.129   1.398 -0.1395  0.0748  0.0358
 1791W        W 5310   7.099   2.272  11.921 -0.1731 -0.0137  0.0481
 1792W        W 5311   0.222   0.646   0.890  0.1090  0.0066 -0.1593
 1793W        W 5312   3.445   8.065   3.329  0.0672 -0.4570  0.0504
 1794W        W 5313   1.733   1.605  10.700  0.0311  0.1242 -0.1160
 1795W        W 5314   6.919   8.938  11.243 -0.2470 -0.2176  0.0019
 1796W        W 5315   9.654   1.204   8.885  0.0604  0.0476 -0.2524
 1797W        W 5316   2.074   1.181  12.037  0.0724  0.0432  0.4521
 1798W        W 5317   9.654   0.327   3.228 -0.1702 -0.3786  0.0623
 1799W        W 5318   4.908   2.819   1.898  0.1972  0.0860  0.0354
 1800W        W 5319   1.208   5.587   8.426  0.1174  0.2567  0.5018
 1801W        W 5320   5.237   5.712   2.541 -0.0114  0.1271 -0.2180
 1802W        W 5321   2.089   1.774   0.621 -0.1603  0.2883 -0.1375
 1803W        W 5322   7.118   8.044  10.925 -0.1074 -0.0549 -0.2005
 1804W        W 5323   0.684   9.438   0.495  0.2483 -0.0179  0.0118
 1805W        W 5324   2.228   6.966   2.032 -0.3122  0.2401 -0.3544
 1806W        W 5325   9.271   0.008   1.113 -0.3849 -0.1594 -0.0446
 1807W        W 5326   2.682   0.922   3.591 -0.2356  0.1310  0.1501
 1808W        W 5327   3.056   7.433   9.805 -0.1535 -0.1344 -0.0578
 1809W        W 5328   5.959   6.813   2.791  0.2363  0.1990  0.0026
 1810W        W 5329   0.438   0.182   1.603 -0.0506  0.0900  0.1347
 1811W        W 5330   7.732   9.475   1.571  0.2007 -0.0811  0.3914
 1812W        W 5331   6.541   7.238   9.168  0.0880 -0.1311 -0.2174
 1813W        W 5332   5.880   7.253   8.012 -0.0530 -0.0033  0.0933
 1814W        W 5333   4.911   9.432   9.286  0.1705  0.3234  0.2075
 1815W        W 5334   3.043   8.439   9.845  0.3211  0.1163  0.2907
 1816W        W 5335   1.613   5.547   3.067  0.2627  0.1824 -0.0324
 1817W        W 5336   4.363   0.846   3.625  0.0174  0.5354 -0.2167
 1818W        W 5337   9.570   1.671   9.068 -0.0194  0.1210 -0.0395
 1819W        W 5338   4.578   0.150   8.841  0.2782  0.0083 -0.0160
 1820W        W 5339   1.047   4.709   1.517  0.0651 -0.1477  0.1777
 1821W        W 5340   6.200   4.222   9.238 -0.1630  0.3346  0.2072
 1822W        W 5341   5.943   8.660   3.538  0.1094 -0.0637  0.0631
 1823W        W 5342   8.211   5.664   9.765 -0.0200  0.2850  0.1657
 1824W        W 5343   6.538   5.406  10.923  0.0443  0.2942  0.0304
 1825W        W 5344   6.173   0.916   8.852  0.1640 -0.0350 -0.0008
 1826W        W 5345   8.114   6.485  11.266 -0.1328  0.0054 -0.0530
 1827W        W 5346   9.565   5.618   2.219 -0.0517  0.0934  0.0523
 1828W        W 5347   7.948   7.114   9.457 -0.1319  0.1364 -0.4581
 1829W        W 5348   1.849   3.124   0.662 -0.3637 -0.1292 -0.0001
 1830W        W 5349   5.830   9.622   2.428  0.0159  0.1690 -0.0568
 1831W        W 5350   2.815   7.702  12.457 -0.0979  0.3275  0.0065
 1832W        W 5351   7.048   5.465   0.728  0.1841 -0.0753 -0.0603
 1833W        W 5352   7.963   5.503   8.285  0.1341 -0.0168  0.1104
 1834W        W 5353   0.160   4.610   7.992 -0.1520  0.0634 -0.1088
 1835W        W 5354   9.230   7.495  10.609  0.1494 -0.3636  0.0320
 1836W        W 5355   2.354   7.608  10.611 -0.1119 -0.1597  0.0060
 1837W        W 5356   0.972   4.126   0.135 -0.0210  0.1313  0.0018
 1838W        W 5357   3.122   3.884   1.920  0.0133 -0.0515  0.2275
 1839W        W 5358   9.090   9.153   1.823  0.3165 -0.1854  0.1231
 1840W        W 5359   5.764   8.084  12.153  0.0629 -0.1862  0.3424
 1841W        W 5360   5.818   9.062  11.361 -0.1273 -0.1064  0.0741
 1842W        W 5361   7.725   7.230   1.406  0.0732  0.2443  0.2602
 1843W        W 5362   2.270   3.515   2.794  0.1086  0.3376 -0.0920
 1844W        W 5363   5.111   7.696   9.037  0.1482 -0.2082  0.2017
 1845W        W 5364   0.051   6.202   8.010 -0.0625  0.0591 -0.0733
 1846W        W 5365   3.446   8.190  10.081 -0.0720 -0.0084 -0.1525
 1847W        W 5366   4.362   4.712   0.700 -0.0527  0.3788 -0.1147
 1848W        W 5367   0.735   6.230   0.202 -0.1159 -0.0353 -0.1101
 1849W        W 5368   5.532   9.483   8.756 -0.1817 -0.1613 -0.0579
 1850W        W 5369   9.172   4.185  12.411  0.2621  0.0622  0.0853
 1851W        W 5370   6.329   4.080   2.283  0.2630  0.5634 -0.0400
 1852W        W 5371   1.610   3.001  10.914 -0.0798 -0.1501 -0.0747
 1853W        W 5372   0.304   5.016  12.155 -0.2562  0.2620 -0.1586
 1854W        W 5373   4.546   7.740   9.852  0.0709  0.0191  0.1870
 1855W        W 5374   1.945   6.757   0.583  0.0901  0.0286 -0.2102
 1856W        W 5375   7.586   2.298  11.932 -0.0355  0.1664 -0.1018
 1857W        W 5376   4.858   1.623   8.622  0.3091  0.3393  0.1281
 1858W        W 5377   6.040   9.706  11.042  0.1232 -0.1477 -0.0847
 1859W        W 5378   7.861   9.077   1.169 -0.1232 -0.2557  0.4935
 1860W        W 5379   6.669   6.604   1.650  0.0748  0.2449  0.0670
 1861W        W 5380   4.728   4.124   8.930 -0.2619 -0.2649 -0.0489
 1862W        W 5381   3.128   3.238   0.621  0.1900 -0.3449  0.0247
 1863W        W 5382   5.905   1.154  11.672  0.1463  0.1141  0.1357
 1864W        W 5383   9.531   8.445   9.138 -0.2313 -0.2723  0.0402
 1865W        W 5384   1.163   1.402  12.388  0.0359  0.0532  0.2570
 1866W        W 5385   2.206   5.792   9.448  0.0292  0.0601 -0.1235
 1867W        W 5386   7.786   6.718   1.380  0.2315 -0.3284  0.0359
 1868W        W 5387   2.259   0.451   2.365 -0.1894 -0.1700 -0.1435
 1869W        W 5388   6.322   4.359   1.232  0.0993 -0.3218 -0.1221
 1870W        W 5389   5.429   6.895   8.544 -0.2219  0.1547 -0.1947
 1871W        W 5390   3.042   7.683  10.622  0.3431  0.1463 -0.2529
 1872W        W 5391   2.667   6.409   0.392  0.0055  0.1252 -0.1090
 1873W        W 5392   8.591   8.694   2.538  0.0659  0.2384 -0.2028
 1874W        W 5393   2.432   5.242   1.101 -0.3224  0.0591 -0.1066
 1875W        W 5394   7.090   2.783   2.640  0.1466 -0.1522  0.1607
 1876W        W 5395   3.049   5.981  10.767  0.1212  0.1231 -0.0527
 1877W        W 5396   4.539   5.940   4.126  0.3191  0.2074  0.1177
 1878W        W 5397   3.097   9.143   2.558  0.1810  0.1833 -0.0820
 1879W        W 5398   5.277   8.657   0.735 -0.0278  0.2988  0.2987
 1880W        W 5399   3.325   8.920  11.936 -0.2257 -0.2536 -0.0905
 1881W        W 5400   0.506   2.028  10.470  0.2501 -0.2051 -0.1165
 1882W        W 5401   3.199   1.698  10.831  0.0303  0.3323  0.2600
 1883W        W 5402   3.958   2.123  11.325  0.4202  0.1630 -0.0975
 1884W        W 5403   3.068   5.267   0.930  0.0584 -0.0791 -0.1283
 1885W        W 5404   7.264   3.260  12.296  0.0627 -0.1653  0.1618
 1886W        W 5405   6.165   3.014   2.342  0.0881 -0.3221  0.2107
 1887W        W 5406   7.328   1.897   3.445 -0.0843 -0.0070 -0.0025
 1888W        W 5407   2.622   5.150   1.813  0.2126  0.1689  0.0493
 1889W        W 5408   3.878   6.780  12.130  0.1097 -0.1419 -0.0320
 1890W        W 5409   7.558   8.152  10.420 -0.0067  0.2585 -0.0691
 1891W        W 5410   4.580   3.896   9.671  0.3056 -0.0770 -0.0064
 1892W        W 5411   3.080   3.268   0.035 -0.0836 -0.2257  0.3614
 1893W        W 5412   9.047   5.788   8.288 -0.1271 -0.1109 -0.1553
 1894W        W 5413   9.403   9.350   0.129  0.0555 -0.0217  0.2423
 1895W        W 5414   9.019   8.272  11.775 -0.2710  0.0974  0.2253
 1896W        W 5415   5.868   3.772   8.539 -0.1482  0.0262  0.1609
 1897W        W 5416   2.623   5.727   2.855 -0.0311 -0.3465  0.2574
 1898W        W 5417   8.913   1.389  12.370  0.1714  0.2570  0.3145
 1899W        W 5418   3.830   4.785   3.397  0.0366  0.1790 -0.0655
 1900W        W 5419   2.859   6.278   4.097  0.1698 -0.1066  0.1747
 1901W        W 5420   3.494   5.833   4.156  0.1063 -0.1963 -0.0272
 1902W        W 5421   3.930   4.952   3.895  0.1318 -0.1738 -0.0671
 1903W        W 5422   4.671   8.795   1.667  0.0463  0.1401 -0.0252
 1904W        W 5423   6.876   6.249   1.244 -0.0329 -0.3008  0.0086
 1905W        W 5424   6.762   8.410  12.268 -0.2596 -0.2565  0.1037
 1906W        W 5425   3.256   7.329  10.887  0.1443  0.1718 -0.2311
 1907W        W 5426   9.367   5.328  10.497  0.2134  0.1030 -0.3678
 1908W        W 5427   8.978   9.481  10.212  0.0606  0.1837 -0.0777
 1909W        W 5428   8.511   8.596  11.673 -0.0541 -0.0814 -0.0173
 1910W        W 5429   1.477   5.064   2.638  0.0913  0.1846  0.1845
 1911W        W 5430   3.241   5.673   9.404 -0.0214  0.0826 -0.2634
 1912W        W 5431   3.204   5.456  10.572  0.0495 -0.0455  0.1264
 1913W        W 5432   1.679   3.713   8.826  0.0758 -0.1884  0.2881
 1914W        W 5433   0.638   6.998   1.635  0.5412 -0.3687 -0.0911
 1915W        W 5434   3.795   5.443   0.434  0.2678  0.0276  0.0881
 1916W        W 5435   2.580   8.599   9.545  0.1937 -0.3836  0.3571
 1917W        W 5436   6.471   3.610   3.655 -0.0347  0.4413  0.0699
 1918W        W 5437   5.924   1.767  11.104  0.1769 -0.0494 -0.0664
 1919W        W 5438   1.682   8.998   9.897  0.0189  0.0371  0.0558
 1920W        W 5439   7.685   6.704   7.774 -0.0620 -0.5216 -0.0448
 1921W        W 5440   0.066   6.908   9.215  0.4101 -0.1365 -0.1862
 1922W        W 5441   9.094   5.865   3.522  0.0754 -0.1362  0.1815
 1923W        W 5442   4.126   9.196   9.247  0.1279  0.1609 -0.0208
 1924W        W 5443   0.438   8.003   0.077  0.0261 -0.1114 -0.0382
 1925W        W 5444   4.635   4.332   2.541  0.0813 -0.3389 -0.2952
 1926W        W 5445   5.274   3.505   9.171  0.1271  0.0914  0.0803
 1927W        W 5446   1.937   1.725   3.113 -0.1450  0.2909  0.2047
 1928W        W 5447   4.126   0.869   0.355  0.0754  0.0293 -0.2829
 1929W        W 5448   9.322   5.313   0.623  0.1088 -0.0435  0.1039
 1930W        W 5449   8.379   8.254   1.691 -0.1073  0.2959 -0.2791
 1931W        W 5450   6.946   1.774   1.001  0.0226 -0.0309  0.0183
 1932W        W 5451   3.776   2.667   3.063 -0.2340  0.3005 -0.0790
 1933W        W 5452   4.136   5.660   7.881  0.2341  0.0782 -0.2076
 1934W        W 5453   8.726   0.495   4.003  0.1693 -0.1766  0.0374
 1935W        W 5454   6.460   6.074   4.582 -0.3438  0.2015 -0.1057
 1936W        W 5455   5.589   1.188   3.043  0.1511  0.1497 -0.2400
 1937W        W 5456   4.934   5.695   9.935  0.0465 -0.2776  0.0143
 1938W        W 5457   4.753   4.828   3.514 -0.0848  0.0838  0.0243
 1939W        W 5458   3.471   7.012   8.866  0.0638  0.1311 -0.1622
 1940W        W 5459   5.738   2.315   7.566  0.1000  0.2053 -0.2362
 1941W        W 5460   6.867   3.743   9.675 -0.0761  0.2969 -0.1159
 1942W        W 5461   2.273   3.516   9.699 -0.0833 -0.0103  0.0017
 1943W        W 5462   8.356   6.531   4.028 -0.2603 -0.1158 -0.1848
 1944W        W 5463   9.437   7.204   3.942 -0.0541  0.1072 -0.1352
 1945W        W 5464   3.549   4.740   9.279 -0.3592 -0.3459  0.0773
 1946W        W 5465   5.600   2.688   9.492 -0.3618  0.0977 -0.2360
 1947W        W 5466   2.277   2.483   2.027  0.1258  0.2947 -0.1294
 1948W        W 5467   6.487   1.808  11.316  0.1048 -0.2810  0.1205
 1949W        W 5468   1.446   4.675   2.359 -0.2092  0.0917 -0.0873
 1950W        W 5469   6.196   4.513   2.589  0.0023 -0.0902 -0.2066
 1951W        W 5470   9.106   8.894   8.880  0.2364  0.2741  0.0031
 1952W        W 5471   7.526   4.543  10.773  0.2549 -0.0907 -0.0709
 1953W        W 5472   2.371   7.241   1.608 -0.2970 -0.0651 -0.0866
 1954W        W 5473   5.852   2.241   2.084  0.0678  0.2215 -0.2371
 1955W        W 5474   9.101   4.584   9.490  0.2440  0.2941 -0.3933
 1956W        W 5475   7.779   5.827   9.169 -0.2191 -0.1279  0.0794
 1957W        W 5476   3.107   6.750   0.228 -0.1681  0.1574  0.0794
 1958W        W 5477   6.507   5.310   3.688 -0.1031 -0.1478 -0.0536
 1959W        W 5478   7.175   7.600   8.590  0.0328  0.0198  0.0837
 1960W        W 5479   3.233   1.472   3.224 -0.1070  0.0392  0.0145
 1961W        W 5480   0.742   0.630   0.843  0.5261 -0.1679  0.3947
 1962W        W 5481   1.255   5.649   3.447 -0.1236 -0.0435 -0.1407
 1963W        W 5482   7.431   6.037   2.127 -0.1301  0.1925 -0.2902
 1964W        W 5483   6.058   8.721   2.642  0.1138  0.0769  0.0663
 1965W        W 5484   7.387   0.654   1.859 -0.1940 -0.0067 -0.0807
 1966W        W 5485   4.675   3.689  11.949 -0.3029 -0.1326 -0.2285
 1967W        W 5486   6.396   1.442  10.095 -0.0575  0.1666 -0.1740
 1968W        W 5487   2.103   6.294   0.185  0.0403 -0.2710 -0.0357
 1969W        W 5488   1.947   0.634   9.777 -0.0123 -0.2514  0.0713
 1970W        W 5489   7.652   9.113   2.818 -0.0254  0.0847 -0.0286
 1971W        W 5490   6.626   7.438   1.739 -0.1561 -0.0332  0.3276
 1972W        W 5491   6.363   3.812   8.399 -0.0814  0.1975 -0.0160
 1973W        W 5492   0.167   5.322  11.223 -0.0449  0.0755  0.0153
 1974W        W 5493   9.462   7.974   8.238 -0.0416  0.2004  0.0496
 1975W        W 5494   0.158   0.069   1.980  0.0600 -0.2381  0.0352
 1976W        W 5495   8.012   0.489  10.831  0.0151  0.1626 -0.2040
 1977W        W 5496   3.696   5.933  11.790  0.1533  0.2406  0.1139
 1978W        W 5497   2.348   8.986  12.196 -0.0976  0.1136 -0.0021
 1979W        W 5498   9.049   9.676  12.419 -0.1585  0.2777  0.1151
 1980W        W 5499   2.762   7.397  10.232 -0.2446 -0.1039 -0.0760
 1981W        W 5500   6.935   1.373   1.329 -0.1467 -0.0812  0.0060
 1982W        W 5501   2.424   5.509   8.589  0.2865  0.1109  0.0283
 1983W        W 5502   1.390   5.980   8.718  0.0293  0.0250 -0.1489
 1984W        W 5503   3.967   4.753   8.417 -0.0491  0.0982  0.0851
 1985W        W 5504   4.279   4.463  12.166  0.2242  0.1557 -0.1448
 1986W        W 5505   0.417   8.365   2.615  0.2924  0.1297 -0.2102
 1987W        W 5506   4.127   0.330   1.381 -0.0547 -0.2390 -0.2032
 1988W        W 5507   6.009   4.723  10.981 -0.3048  0.1340 -0.1789
 1989W        W 5508   4.301   0.211   2.678 -0.0401  0.1625 -0.1767
 1990W        W 5509   3.549   3.280   9.608 -0.0726  0.0153  0.2090
 1991W        W 5510   2.622   0.705   2.098  0.0493  0.0349  0.1226
 1992W        W 5511   2.418   3.861   8.805 -0.4507  0.0550 -0.1399
 1993W        W 5512   4.926   5.481   8.993  0.0957  0.1489  0.1456
 1994W        W 5513   6.259   0.501   1.594 -0.1672 -0.0919 -0.1321
 1995W        W 5514   7.506   3.073  11.922 -0.5325 -0.1964  0.0593
 1996W        W 5515   4.623   5.145   3.063  0.1555  0.0130  0.1081
 1997W        W 5516   4.451   0.482   0.070 -0.0593  0.3105 -0.2139
 1998W        W 5517   7.142   8.874  10.719 -0.3198  0.3290  0.0669
 1999W        W 5518   1.933   9.112   0.476 -0.0350  0.0400 -0.2431
 2000W        W 5519   3.951   5.815   0.142  0.0138  0.1550 -0.3731
 2001W        W 5520   8.022   8.796  10.979  0.0019 -0.0561 -0.2982
 2002W        W 5521   7.123   3.720   2.657 -0.1314  0.3325 -0.0416
 2003W        W 5522   3.905   0.455   0.139 -0.0526  0.1016 -0.1272
 2004W        W 5523   6.102   4.425  12.030  0.3565 -0.1854 -0.2232
 2005W        W 5524   8.565   4.735  12.396 -0.2208 -0.0872 -0.3005
 2006W        W 5525   0.012   1.706  10.392 -0.0088  0.1486  0.0240
 2007W        W 5526   3.080   5.820   3.641  0.0947 -0.1148 -0.1615
 2008W        W 5527   5.273   6.010   9.740 -0.1408 -0.0646 -0.0031
 2009W        W 5528   3.769   0.902   2.862  0.0127 -0.4040  0.1872
 2010W        W 5529   6.633   1.639   2.633 -0.1049  0.1354 -0.1594
 2011W        W 5530   6.401   2.018   2.393  0.1642 -0.1262  0.1201
 2012W        W 5531   2.769   1.342   0.112 -0.2215  0.1577 -0.0708
 2013W        W 5532   8.560   0.932  10.705 -0.0072 -0.1670  0.3123
 2014W        W 5533   7.653   2.179  11.063  0.1841 -0.2277  0.0409
 2015W        W 5534   8.953   7.963   9.630 -0.1278 -0.0292 -0.1310
 2016W        W 5535   3.664   6.413  12.416  0.0062  0.3530 -0.3474
 2017W        W 5536   2.485   9.655   1.539 -0.0710  0.0262 -0.1168
 2018W        W 5537   2.958   3.522  10.828  0.1413 -0.0090  0.0405
 2019W        W 5538   0.673   1.436  12.152  0.1093  0.0586 -0.0623
 2020W        W 5539   2.051   4.692   9.805 -0.2764 -0.0061 -0.3228
 2021W        W 5540   1.539   1.642   0.752  0.2655 -0.1038 -0.1917
 2022W        W 5541   8.271   5.154   1.367 -0.0571  0.1647  0.1362
 2023W        W 5542   1.013   7.910   1.911 -0.0682  0.4597 -0.0026
 2024W        W 5543   3.842   3.194  11.794  0.0233  0.0952 -0.1586
 2025W        W 5544   6.961   7.034  11.760  0.0922  0.3140  0.0800
 2026W        W 5545   1.419   3.972   8.522  0.2463 -0.2705  0.1800
 2027W        W 5546   5.240   3.331   3.972 -0.0445  0.0125 -0.0776
 2028W        W 5547   8.589   9.612   9.306 -0.0749 -0.1566  0.1929
 2029W        W 5548   2.607   1.205   0.641 -0.2184  0.2138  0.0038
 2030W        W 5549   4.383   9.325   3.930  0.0118  0.0737 -0.1339
 2031W        W 5550   7.319   2.208   0.414  0.0331 -0.0666 -0.0491
 2032W        W 5551   5.950   3.150   3.156 -0.1118  0.1404  0.1899
 2033W        W 5552   3.479   5.323   2.242 -0.2690 -0.1716  0.0691
 2034W        W 5553   4.166   4.648   4.181 -0.1046  0.1753  0.0979
 2035W        W 5554   6.301   6.852  10.377  0.1452 -0.1224 -0.2060
 2036W        W 5555   5.168   2.689   1.444  0.3059 -0.0158  0.1085
 2037W        W 5556   0.230   4.145   2.024  0.1292  0.0735 -0.2740
 2038W        W 5557   4.387   8.213   8.935 -0.0378 -0.1367  0.0996
 2039W        W 5558   1.948   4.229   1.775  0.2555 -0.0167  0.0211
 2040W        W 5559   2.133   9.694  10.127 -0.2509 -0.0640  0.0360
 2041W        W 5560   4.624   7.268   1.058 -0.0018 -0.0223  0.2028
 2042W        W 5561   2.229   1.400   2.631 -0.0889  0.0076  0.0714
 2043W        W 5562   3.567   0.993  10.194 -0.1436 -0.0865 -0.2307
 2044W        W 5563   7.977   8.034   3.698  0.0123  0.0920 -0.2711
 2045W        W 5564   1.147   4.907  10.892 -0.0706 -0.2176 -0.3154
 2046W        W 5565   8.447   0.771   2.928 -0.1450  0.2207  0.1391
 2047W        W 5566   8.939   8.556  11.348  0.0813 -0.0174  0.2921
 2048W        W 5567   9.578   7.641  12.176  0.3340 -0.2239  0.0002
 2049W        W 5568   1.251   2.611  11.845  0.1374  0.1567 -0.0812
 2050W        W 5569   2.132   7.487   2.579  0.2438 -0.1701 -0.1241
 2051W        W 5570   5.564   7.482   9.776  0.0343  0.1406  0.0133
 2052W        W 5571   8.867   9.569   9.710  0.3407  0.1088  0.0928
 2053W        W 5572   6.035   7.339   2.992  0.0147  0.0116  0.0225
 2054W        W 5573   4.083   9.111   0.244 -0.2257  0.1326  0.3926
 2055W        W 5574   9.613   6.716   1.182 -0.3366 -0.0590  0.2362
 2056W        W 5575   6.692   6.066  10.021 -0.2166 -0.2170  0.6030
 2057W        W 5576   3.913   4.457  10.057 -0.2359 -0.1562 -0.1958
 2058W        W 5577   5.526   2.533  10.008 -0.3481  0.2034  0.0158
 2059W        W 5578   1.254   4.549   8.876 -0.1484  0.1257  0.2105
 2060W        W 5579   7.766   2.169   8.674 -0.1820  0.1091  0.2232
 2061W        W 5580   8.841   4.585   9.091  0.2110  0.0435  0.1009
 2062W        W 5581   7.271   9.667   1.069 -0.0131  0.0637  0.0661
 2063W        W 5582   6.865   5.123   2.294 -0.4055  0.0380  0.2047
 2064W        W 5583   7.613   1.166  10.540 -0.4132  0.0423  0.0625
 2065W        W 5584   7.334   7.071   9.765  0.1529 -0.0528 -0.0239
 2066W        W 5585   3.666   6.449   8.113 -0.1401  0.1410 -0.0786
 2067W        W 5586   3.877   9.191   3.090  0.0048 -0.0629 -0.0425
 2068W        W 5587   6.375   4.910  12.070 -0.0571  0.2803  0.1473
 2069W        W 5588   9.183   1.479   0.846  0.1160  0.4207  0.1202
 2070W        W 5589   7.590   6.797   2.823  0.1319  0.0422  0.1302
 2071W        W 5590   2.769   8.993   8.472  0.2080  0.2235 -0.3642
 2072W        W 5591   2.464   7.705   3.801 -0.0666  0.2052 -0.0182
 2073W        W 5592   6.032   7.261   9.076  0.1456 -0.2321  0.0578
 2074W        W 5593   8.339   5.610   8.696 -0.1830 -0.2739  0.2636
 2075W        W 5594   8.929   0.384   3.542  0.0414 -0.5090  0.2558
 2076W        W 5595   4.168   1.959  10.893  0.1653  0.2030 -0.0682
 2077W        W 5596   4.365   7.137   0.608  0.0965  0.0554  0.0632
 2078W        W 5597   8.627   3.697   9.816  0.1803  0.3859  0.0268
 2079W        W 5598   7.093   2.807  11.834  0.1230  0.1193  0.3679
 2080W        W 5599   8.587   6.579  10.474 -0.3696  0.2502  0.2477
 2081W        W 5600   0.825   2.741  11.445 -0.3302  0.1631  0.1142
 2082W        W 5601   9.448   9.161  10.258  0.1525 -0.2552  0.0224
 2083W        W 5602   5.972   1.422  10.583 -0.0707  0.1857  0.0538
 2084W        W 5603   0.392   9.346  10.821  0.0467  0.0840  0.0974
 2085W        W 5604   8.557   6.903  11.762  0.2155  0.0863 -0.1269
 2086W        W 5605   7.886   2.580   1.626 -0.0385  0.0144 -0.1903
 2087W        W 5606   4.660   4.129  12.258 -0.1749  0.0982 -0.1227
 2088W        W 5607   8.736   7.617   2.368  0.1259  0.3136 -0.0728
 2089W        W 5608   7.792   6.161  11.405 -0.3974  0.3357 -0.0714
 2090W        W 5609   6.474   3.891   7.892 -0.0230  0.1565  0.0487
 2091W        W 5610   5.573   2.485  10.510  0.0452 -0.0437  0.1166
 2092W        W 5611   0.718   3.631   9.813  0.1018 -0.1141  0.0390
 2093W        W 5612   3.218   3.608   1.301 -0.0104  0.0379  0.1559
 2094W        W 5613   7.031   5.104   0.225  0.2093 -0.0075  0.1246
 2095W        W 5614   1.648   7.564   3.600  0.0754 -0.0839 -0.1490
 2096W        W 5615   9.195   4.139  10.212  0.0605  0.1089  0.0825
 2097W        W 5616   6.055   0.208   4.464  0.0774 -0.1250  0.2449
 2098W        W 5617   1.490   8.629  11.402  0.4424  0.1211  0.0438
 2099W        W 5618   4.220   7.618  10.259  0.0098  0.0187  0.2247
 2100W        W 5619   7.433   8.896   3.289 -0.1070 -0.0451  0.1744
 2101W        W 5620   1.752   8.686   3.642 -0.1947 -0.0395 -0.0395
 2102W        W 5621   5.390   6.457  10.078  0.0618  0.2919 -0.0163
 2103W        W 5622   1.148   7.995  12.445 -0.1412  0.0686  0.2277
 2104W        W 5623   5.837   1.009   4.896 -0.0029 -0.0220  0.3064
 2105W        W 5624   1.060   0.558  10.323 -0.1360  0.3613  0.0958
 2106W        W 5625   0.153   4.167   2.590 -0.0251 -0.0480  0.0897
 2107W        W 5626   4.985   1.087   4.341  0.1922 -0.0751  0.3198
 2108W        W 5627   4.937   0.594   3.526  0.0204  0.0134  0.1382
 2109W        W 5628   9.081   1.640   0.278  0.1571  0.2191  0.0225
 2110W        W 5629   7.624   3.017   1.616 -0.0483 -0.1584 -0.2732
 2111W        W 5630   5.560   9.317   7.630  0.1752 -0.0579  0.0141
 2112W        W 5631   1.747   3.252   8.620 -0.1447  0.2068 -0.2204
 2113W        W 5632   4.174   6.472   2.929  0.0753  0.1755 -0.0134
 2114W        W 5633   4.498   2.042   9.533 -0.0043  0.0563 -0.2295
 2115W        W 5634   9.658   6.923   3.548 -0.1989  0.0300 -0.0608
 2116W        W 5635   4.041   3.871  10.602  0.4893 -0.2754 -0.0685
 2117W        W 5636   3.356   0.135   1.160 -0.0813  0.1776 -0.0829
 2118W        W 5637   8.103   6.251   0.848  0.1389 -0.0451 -0.0421
 2119W        W 5638   1.000   7.323  11.051  0.2613  0.3748  0.0779
 2120W        W 5639   9.243   3.315   2.776 -0.0141  0.0325 -0.4947
 2121W        W 5640   1.265   2.819  12.363  0.1566  0.0371 -0.0845
 2122W        W 5641   2.812   9.255  12.421 -0.0620 -0.2280  0.1944
 2123W        W 5642   5.622   1.577  11.876  0.2700 -0.1559  0.0787
 2124W        W 5643   6.608   2.974   2.585 -0.2500 -0.2181 -0.0881
 2125W        W 5644   3.188   6.245   2.816  0.0585  0.3286  0.1026
 2126W        W 5645   3.507   3.475  10.055 -0.0616 -0.1689  0.1868
 2127W        W 5646   9.394   2.625   2.160  0.0981  0.1009  0.0421
 2128W        W 5647   9.520   3.231  11.702 -0.4509  0.1081  0.2394
 2129W        W 5648   7.389   9.054   8.498 -0.0672 -0.1081 -0.0351
 2130W        W 5649   6.058   6.862   1.957 -0.0640  0.2155  0.1666
 2131W        W 5650   2.597   4.809   2.208  0.2478 -0.2157  0.1530
 2132W        W 5651   8.050   7.970   9.933 -0.1855 -0.1030  0.0567
 2133W        W 5652   8.910   5.041   9.919 -0.0021  0.2432 -0.0382
 2134W        W 5653   2.175   1.537   9.949  0.2956 -0.0509  0.3695
 2135W        W 5654   7.415   9.467   8.750 -0.0091 -0.2759  0.3323
 2136W        W 5655   2.089   5.545   0.899  0.0018  0.0449  0.1994
 2137W        W 5656   3.617   5.813   3.584 -0.1943  0.4701 -0.3795
 2138W        W 5657   3.052   4.720   8.489  0.0611 -0.0022 -0.2480
 2139W        W 5658   7.808   4.182  11.099  0.0070 -0.3086 -0.0241
 2140W        W 5659   7.015   1.764   4.650  0.0579 -0.6069 -0.3467
 2141W        W 5660   7.901   2.544  10.170  0.2875  0.0492 -0.1128
 2142W        W 5661   9.573   9.001   3.067 -0.1607 -0.3035  0.2160
 2143W        W 5662   1.959   5.062   0.103 -0.4683 -0.2853 -0.0929
 2144W        W 5663   7.427   4.683   5.068 -0.0077  0.0502 -0.2445
 2145W        W 5664   4.164   7.069   1.042  0.0871 -0.2199  0.0719
 2146W        W 5665   5.134   8.948  11.866  0.1557  0.3010  0.0365
 2147W        W 5666   6.421   7.950   2.271  0.2699 -0.1643 -0.1491
 2148W        W 5667   4.069   3.199   9.160 -0.0494  0.0635 -0.0213
 2149W        W 5668   8.299   4.297   2.127  0.1964  0.0056 -0.2421
 2150W        W 5669   4.740   4.656  12.297 -0.2629 -0.3396  0.0846
 2151W        W 5670   2.419   5.032   8.753 -0.1492  0.2976  0.0618
 2152W        W 5671   7.378   7.898   3.285  0.0123  0.0015  0.1744
 2153W        W 5672   2.450   4.893   9.614  0.3027  0.3616 -0.6300
 2154W        W 5673   9.127   4.218  11.409  0.4859 -0.0747 -0.1452
 2155W        W 5674   4.416   6.092   2.615 -0.1215 -0.3634 -0.0116
 2156W        W 5675   3.822   6.340   9.571 -0.3861  0.0886 -0.2411
 2157W        W 5676   7.297   1.757   9.772  0.1850  0.2079 -0.2193
 2158W        W 5677   3.391   0.175   2.065  0.2438  0.0949  0.2045
 2159W        W 5678   0.987   3.611   0.923  0.0404  0.4208  0.1977
 2160W        W 5679   0.932   7.741  10.802 -0.0198 -0.0560  0.2336
 2161W        W 5680   3.356   7.385   3.813 -0.1064  0.1069 -0.0592
 2162W        W 5681   7.290   6.312   3.022 -0.3154 -0.0109 -0.1050
 2163W        W 5682   9.595   3.365   8.978  0.1011 -0.0110 -0.0211
 2164W        W 5683   9.538   4.749   1.479 -0.1470 -0.1034 -0.4075
 2165W        W 5684   1.374   0.908   3.025 -0.2892  0.1378 -0.1098
 2166W        W 5685   1.375   6.513   4.671  0.0907  0.2953  0.2248
 2167W        W 5686   3.973   4.668   0.083 -0.3821  0.0704  0.3893
 2168W        W 5687   6.988   5.923  11.562  0.4144 -0.0925 -0.1663
 2169W        W 5688   8.937   0.889   3.807 -0.0679 -0.1218  0.1582
 2170W        W 5689   2.429   4.825  10.159 -0.1237 -0.1365  0.3454
 2171W        W 5690   7.115   1.161  11.395 -0.1981  0.1922 -0.1920
 2172W        W 5691   3.165   6.611   3.436  0.2308  0.3817 -0.0778
 2173W        W 5692   8.227   9.602   3.328  0.0532 -0.0462  0.0680
 2174W        W 5693   2.548   2.463  12.193 -0.1737  0.3782  0.0727
 2175W        W 5694   7.342   2.930   2.075  0.0316 -0.0459  0.2122
 2176W        W 5695   2.112   5.784   3.961  0.2791  0.2088  0.0189
 2177W        W 5696   8.467   7.716   9.686 -0.0516 -0.0276 -0.0401
 2178W        W 5697   6.883   7.752   3.239 -0.0758  0.0633  0.1331
 2179W        W 5698   9.263   5.400   9.982  0.3752 -0.3755 -0.2667
 2180W        W 5699   3.044   1.330   4.240 -0.2681 -0.3898 -0.3965
 2181W        W 5700   4.691   3.470   1.648  0.1825 -0.1257  0.0767
 2182W        W 5701   2.100   2.960   9.511  0.0842  0.1468  0.2355
 2183W        W 5702   2.309   1.485  12.327 -0.1538  0.0918 -0.0491
 2184W        W 5703   7.204   2.115   9.367 -0.1368  0.1393 -0.1507
 2185W        W 5704   6.930   4.136   2.961 -0.0272  0.1844  0.1588
 2186W        W 5705   4.405   8.548   9.862  0.1485 -0.2430  0.2243
 2187W        W 5706   2.126   8.658   0.396 -0.1035  0.0139  0.0312
 2188W        W 5707   6.981   7.068   2.755  0.1545 -0.0070  0.2192
 2189W        W 5708   0.118   8.404   1.783 -0.1942  0.0094 -0.2797
 2190W        W 5709   8.384   2.869  12.405 -0.1260  0.2901 -0.2425
 2191W        W 5710   1.795   5.078   0.705  0.0627  0.1369 -0.1090
 2192W        W 5711   3.261   3.394   1.741 -0.3111 -0.2955 -0.0220
 2193W        W 5712   0.970   6.122  12.256  0.0265  0.0003 -0.3250
 2194W        W 5713   2.776   9.691  10.425 -0.2577  0.2655 -0.0677
 2195W        W 5714   9.479   4.931   3.533  0.1918  0.1194 -0.0925
 2196W        W 5715   7.556   0.434  11.100  0.2613 -0.0166  0.1333
 2197W        W 5716   7.424   1.974   0.870  0.1646  0.4020 -0.0496
 2198W        W 5717   2.602   9.183   1.444 -0.1922  0.1181 -0.0573
 2199W        W 5718   7.430   0.742  10.039 -0.1761  0.1070  0.0693
 2200W        W 5719   2.680   3.524   9.164 -0.0781 -0.0020 -0.2655
 2201W        W 5720   6.434   8.093   4.078 -0.0680 -0.2741 -0.1732
 2202W        W 5721   8.220   3.515   9.433  0.1196  0.4586  0.2515
 2203W        W 5722   4.580   8.989  10.154 -0.0253  0.1256  0.1247
 2204W        W 5723   5.742   1.266   2.106  0.1783 -0.0012  0.1521
 2205W        W 5724   1.633   9.051  11.579 -0.1816  0.2575  0.0993
 2206W        W 5725   9.004   5.828   8.799  0.1590  0.1743  0.4292
 2207W        W 5726   6.482   9.308   8.861  0.1216  0.4070  0.5515
 2208W        W 5727   0.697   1.675   0.065 -0.1896  0.1137  0.1899
 2209W        W 5728   7.922   0.694   1.080 -0.0773  0.3289 -0.2156
 2210W        W 5729   6.445   2.188   1.931  0.2237  0.1090 -0.0651
 2211W        W 5730   0.326   6.110  11.124 -0.2721 -0.0340 -0.4430
 2212W        W 5731   2.392   3.566  10.734  0.0678  0.0017 -0.0899
 2213W        W 5732   4.915   3.334   0.119 -0.1030 -0.0667 -0.2834
 2214W        W 5733   2.255   5.083   0.627 -0.2645 -0.1309  0.0479
 2215W        W 5734   6.063   4.710   2.122 -0.1383 -0.0921 -0.1003
 2216W        W 5735   1.873   3.427  10.056 -0.1760 -0.2078 -0.2262
 2217W        W 5736   0.342   4.931   9.636  0.0500  0.3331  0.0199
 2218W        W 5737   7.958   4.708   3.439 -0.2310  0.0037 -0.0966
 2219W        W 5738   6.208   8.464   8.974 -0.0043  0.3483 -0.0587
 2220W        W 5739   8.576   1.463  10.738 -0.0738  0.0861 -0.1429
 2221W        W 5740   8.820   0.322   0.185 -0.4106 -0.1456  0.1924
 2222W        W 5741   1.605   4.857   1.121  0.2424  0.1262 -0.2237
 2223W        W 5742   1.553   4.442   4.219 -0.2089 -0.0793  0.3267
 2224W        W 5743   5.341   1.047  10.925  0.2184 -0.1798  0.0356
 2225W        W 5744   9.063   1.108   9.545  0.1610 -0.1677  0.1687
 2226W        W 5745   0.981   6.112   2.752 -0.2222 -0.0333 -0.1795
 2227W        W 5746   6.712   1.222  11.140 -0.0658  0.2117  0.2120
 2228W        W 5747   4.720   2.960   0.437 -0.2468 -0.0125  0.0411
 2229W        W 5748   5.636   1.708   4.138  0.3065 -0.0168  0.2798
 2230W        W 5749   0.235   8.670   2.208  0.0534 -0.0448  0.0393
 2231W        W 5750   5.967   5.719   0.486 -0.2016  0.0006 -0.2324
 2232W        W 5751   3.535   3.925   8.225  0.0264 -0.0455 -0.1911
 2233W        W 5752   2.744   1.601   9.415  0.1326  0.0021 -0.0167
 2234W        W 5753   5.926   5.330   0.113 -0.1370  0.1590  0.0986
 2235W        W 5754   0.513   2.102  12.294 -0.3822 -0.0959  0.2724
 2236W        W 5755   5.051   5.018   8.730 -0.1723 -0.2111 -0.1207
 2237W        W 5756   0.994   3.609  11.412  0.1863 -0.2954  0.0864
 2238W        W 5757   3.303   2.331   1.171  0.0617  0.1386 -0.0627
 2239W        W 5758   4.463   3.025   1.764  0.1836 -0.0396 -0.1184
 2240W        W 5759   2.450   2.441  10.722  0.1727 -0.1065  0.1342
 2241W        W 5760   2.668   1.616   1.921  0.0373  0.2190 -0.3407
 2242W        W 5761   6.634   0.570  11.104 -0.2986 -0.1085  0.1447
 2243W        W 5762   0.638   5.639   9.345 -0.0753  0.2873 -0.3417
 2244W        W 5763   7.258   2.723   1.227  0.1396 -0.2309 -0.1645
 2245W        W 5764   6.765   6.394  10.440  0.1400  0.2770  0.2809
 2246W        W 5765   2.269   2.507   1.024  0.3630  0.1436  0.0247
 2247W        W 5766   8.484   6.233  10.876 -0.1078 -0.1077  0.3678
 2248W        W 5767   9.270   7.556   9.696  0.0144 -0.0759 -0.1503
 2249W        W 5768   3.755   4.745  10.676  0.2585  0.0580 -0.0746
 2250W        W 5769   1.668   4.304   9.052  0.1013  0.0231 -0.2730
 2251W        W 5770   7.368   3.584   2.203 -0.0938  0.1484 -0.0401
 2252W        W 5771   5.489   0.652   2.875  0.0693 -0.1331 -0.1628
 2253W        W 5772   8.295   0.993   4.666  0.2587 -0.3190  0.1547
 2254W        W 5773   2.739   7.059   2.009 -0.0331 -0.1344 -0.2559
 2255W        W 5774   2.658   6.179  11.191  0.1646  0.2174 -0.2602
 2256W        W 5775   7.597   0.392   0.820 -0.2487 -0.0311  0.0259
 2257W        W 5776   2.217   2.502   9.700 -0.0589  0.1965 -0.0147
 2258W        W 5777   8.119   1.197   0.876  0.2991  0.2034  0.3595
 2259W        W 5778   1.324   8.468   3.317  0.0699 -0.2040  0.2250
 2260W        W 5779   8.456   0.840  12.311  0.2671 -0.0713 -0.1215
 2261W        W 5780   8.105   2.102   9.387 -0.0942 -0.0555 -0.1250
 2262W        W 5781   1.608   2.994   3.357  0.0759  0.1146 -0.0688
 2263W        W 5782   0.657   4.220   9.797 -0.2356 -0.0329  0.2438
 2264W        W 5783   8.694   8.490   4.051  0.0611 -0.0651 -0.2916
 2265W        W 5784   7.521   9.210   3.723 -0.2867 -0.1367  0.0167
 2266W        W 5785   1.238   5.371  11.873  0.1468  0.0174 -0.0160
 2267W        W 5786   9.403   0.763  11.841 -0.1818 -0.1064  0.2271
 2268W        W 5787   6.130   0.876  11.355 -0.1840  0.2148  0.0625
 2269W        W 5788   3.349   4.600  10.947 -0.3680 -0.1810 -0.0510
 2270W        W 5789   3.332   5.779   2.082  0.0892 -0.1074 -0.1561
 2271W        W 5790   6.415   2.713  12.384 -0.1314  0.1760 -0.1758
 2272W        W 5791   8.127   3.520  12.190  0.0503  0.2699  0.1542
 2273W        W 5792   2.548   0.811   0.296 -0.2906  0.0701  0.0178
 2274W        W 5793   1.962   3.063  11.968 -0.1362 -0.0876  0.0528
 2275W        W 5794   7.754   8.657   4.388 -0.1889 -0.0057 -0.2027
 2276W        W 5795   5.344   2.828  12.024 -0.2005  0.0700  0.0153
 2277W        W 5796   0.317   1.295   0.040 -0.1797  0.1333 -0.4538
 2278W        W 5797   8.830   0.096  10.617 -0.0066 -0.0270 -0.3748
 2279W        W 5798   9.499   6.189   3.507 -0.0701  0.1312 -0.2500
 2280W        W 5799   2.759   5.651   9.327  0.2005 -0.1113 -0.1720
 2281W        W 5800   2.974   0.391   3.032  0.2092 -0.1504 -0.0046
 2282W        W 5801   9.314   8.895   0.958  0.1245  0.0034 -0.0103
 2283W        W 5802   5.721   7.254   4.212  0.0102 -0.1450 -0.0220
 2284W        W 5803   1.559   7.647  11.689  0.0596  0.0244 -0.0411
 2285W        W 5804   2.774   0.901  11.300  0.0161 -0.1585 -0.0797
 2286W        W 5805   0.742   6.050  10.268  0.1955  0.0334  0.0939
 2287W        W 5806   7.910   8.635   3.124 -0.1009  0.0462  0.1932
 2288W        W 5807   6.070   4.068  11.039  0.1219 -0.4543  0.0428
 2289W        W 5808   8.012   9.291  11.112 -0.2672  0.0642  0.0887
 2290W        W 5809   8.237   0.327   3.001 -0.0719 -0.2089 -0.0412
 2291W        W 5810   1.580   8.107   9.661 -0.0378 -0.0488 -0.1209
 2292W        W 5811   3.328   8.559   1.410  0.1283  0.0327 -0.0971
 2293W        W 5812   2.072   2.024  11.619  0.2700 -0.1139  0.0545
 2294W        W 5813   3.847   2.763   3.658 -0.1093 -0.1622  0.0350
 2295W        W 5814   6.651   1.684   9.641  0.1367 -0.1848  0.0289
 2296W        W 5815   5.337   3.934   0.644  0.0278 -0.2894 -0.4519
 2297W        W 5816   6.824   1.925   4.154  0.0730  0.0958  0.0325
 2298W        W 5817   6.548   2.339   8.829 -0.1914 -0.3430 -0.0857
 2299W        W 5818   1.078   3.332   1.832 -0.0462  0.1279 -0.0656
 2300W        W 5819   3.919   9.576   2.042  0.0651 -0.1854  0.0062
 2301W        W 5820   1.543   5.080   2.077  0.0145 -0.0032  0.1445
 2302W        W 5821   5.677   5.408  12.150 -0.0770  0.2064 -0.5542
 2303W        W 5822   1.456   7.790  11.131 -0.0611 -0.0921  0.1704
 2304W        W 5823   5.203   7.797   9.941  0.0583 -0.1760 -0.0673
 2305W        W 5824   3.475   5.455   0.035 -0.1857  0.0783 -0.0160
 2306W        W 5825   2.707   8.564  10.608 -0.0134 -0.2335 -0.1457
 2307W        W 5826   8.486   1.258   0.602  0.1737 -0.0309  0.0347
 2308W        W 5827   3.165   5.081  10.996 -0.0166 -0.1047 -0.1524
 2309W        W 5828   2.005   5.870  11.610  0.3689 -0.3014 -0.0535
 2310W        W 5829   8.520   1.595  11.573  0.0420  0.0884  0.3159
 2311W        W 5830   4.228   6.673   1.816  0.1708 -0.0613 -0.4755
 2312W        W 5831   3.618   4.037   0.550 -0.0991 -0.0012  0.0583
 2313W        W 5832   5.914   7.976   0.619 -0.3101  0.0899  0.1229
 2314W        W 5833   9.137   6.293   8.639 -0.0738 -0.0429 -0.3397
 2315W        W 5834   5.813   4.883  12.178 -0.0680 -0.2618 -0.0189
 2316W        W 5835   2.343   4.017  10.494 -0.0621  0.0765 -0.0231
 2317W        W 5836   7.476   6.715   3.864  0.2308 -0.1678 -0.0941
 2318W        W 5837   7.695   2.231   7.988  0.0949  0.3282 -0.2512
 2319W        W 5838   8.814   6.800   3.398  0.0182  0.2269 -0.1622
 2320W        W 5839   5.994   7.395  11.404  0.0478 -0.1929 -0.0955
 2321W        W 5840   7.834   5.296   9.322 -0.1089 -0.0406 -0.0360
 2322W        W 5841   5.466   8.511   2.191  0.1068 -0.1955 -0.1461
 2323W        W 5842   2.483   1.100  11.828 -0.1343 -0.1973  0.0705
 2324W        W 5843   6.991   0.929   1.878  0.3177 -0.0533 -0.4294
 2325W        W 5844   7.290   1.995   3.937 -0.4409 -0.1224 -0.1340
 2326W        W 5845   1.342   3.682   1.635 -0.2029  0.1066 -0.3449
 2327W        W 5846   9.401   5.313  11.099  0.1143 -0.4383 -0.1984
 2328W        W 5847   5.282   5.970   2.055 -0.1604  0.1450 -0.2725
 2329W        W 5848   9.660   6.228   0.219  0.0360 -0.1521 -0.1770
 2330W        W 5849   9.038   1.240  11.908 -0.0627  0.2280  0.3348
 2331W        W 5850   8.974   3.123   1.509  0.1561  0.0536 -0.1978
 2332W        W 5851   3.030   2.438  12.400  0.2942  0.0495 -0.0400
 2333W        W 5852   6.836   3.817  11.444  0.2094 -0.0115  0.2787
 2334W        W 5853   6.297   8.618   3.960  0.0135 -0.4307  0.1403
 2335W        W 5854   3.846   8.284   1.590 -0.0321 -0.0484  0.1461
 2336W        W 5855   4.934   8.908   9.250  0.2268  0.0360  0.1777
 2337W        W 5856   5.340   9.572   1.357 -0.0312 -0.0224 -0.0191
 2338W        W 5857   4.705   8.994   0.261 -0.1865  0.4490  0.1690
 2339W        W 5858   1.066   5.320   8.895  0.0187  0.0885 -0.0644
 2340W        W 5859   4.625   8.511   9.278 -0.1235 -0.0750 -0.0070
 2341W        W 5860   2.475   1.569   0.964  0.0487  0.1428 -0.2121
 2342W        W 5861   3.561   1.229   9.373  0.2982 -0.1714  0.0412
 2343W        W 5862   9.402   6.574   8.337 -0.2448 -0.1096 -0.1511
 2344W        W 5863   6.663   5.289   1.018 -0.0750  0.0754  0.1008
 2345W        W 5864   9.494   4.805  10.908  0.1427  0.0828  0.0916
 2346W        W 5865   9.061   8.466   2.568 -0.0236  0.1713 -0.0318
 2347W        W 5866   5.432   5.193   9.001 -0.0424 -0.2131 -0.3468
 2348W        W 5867   4.194   1.766   1.658  0.2025 -0.1470 -0.2195
 2349W        W 5868   6.603   5.861  12.202  0.0780 -0.1017  0.0881
 2350W        W 5869   3.074   6.209   1.165 -0.0508  0.1705 -0.0276
 2351W        W 5870   0.467   0.582   2.099 -0.0341  0.0257  0.0953
 2352W        W 5871   5.053   5.289   1.146 -0.4434 -0.1903 -0.0193
 2353W        W 5872   3.065   6.759   9.085  0.2707 -0.0363 -0.2380
 2354W        W 5873   8.134   4.090  10.423  0.0889 -0.2452  0.1385
 2355W        W 5874   1.461   0.652  10.571  0.0975  0.0755  0.0036
 2356W        W 5875   4.469   2.789   2.705 -0.3044 -0.2916 -0.1120
 2357W        W 5876   8.115   0.259  11.824 -0.0497  0.2232  0.0135
 2358W        W 5877   8.290   0.260  11.281  0.0325 -0.3562  0.0516
 2359W        W 5878   2.242   2.533  11.268 -0.1139 -0.1810 -0.0588
 2360W        W 5879   2.446   0.349  11.412  0.0753 -0.2482  0.0310
 2361W        W 5880   5.040   4.333   0.034  0.0222 -0.0583  0.1380
 2362W        W 5881   5.320   2.944  10.560 -0.1676  0.1795 -0.1915
 2363W        W 5882   1.033   9.479   0.142  0.2083 -0.1897  0.3499
 2364W        W 5883   2.031   0.952   2.288  0.2327 -0.3014  0.0605
 2365W        W 5884   9.602   1.834   1.769 -0.1475  0.2052 -0.1885
 2366W        W 5885   0.569   3.658   4.034  0.0369  0.2302  0.2323
 2367W        W 5886   4.244   2.579   4.613 -0.0509 -0.0964 -0.3786
 2368W        W 5887   2.585   4.683   9.139 -0.1389  0.0251  0.2306
 2369W        W 5888   8.028   6.812   3.627 -0.0923 -0.4374  0.0799
 2370W        W 5889   1.624   2.774  11.338 -0.1306 -0.0231 -0.1719
 2371W        W 5890   7.205   6.311   4.061 -0.0387 -0.0674  0.3472
 2372W        W 5891   2.938   1.959   2.307 -0.1386  0.1856  0.0321
 2373W        W 5892   9.412   9.439   0.732  0.2083 -0.0981  0.0466
 2374W        W 5893   2.916   5.931   0.472  0.1302 -0.0767 -0.2897
 2375W        W 5894   2.871   1.484   1.452  0.0797  0.3063 -0.1641
 2376W        W 5895   8.747   9.579   0.405  0.0235 -0.1601  0.0341
 2377W        W 5896   0.004   2.368   1.842  0.0556 -0.0740  0.0366
 2378W        W 5897   6.552   6.308   0.806  0.0189 -0.2852  0.0658
 2379W        W 5898   2.526   2.886   1.247 -0.0615  0.2248  0.0824
 2380W        W 5899   2.992   2.504  11.830 -0.2287 -0.1321  0.1408
 2381W        W 5900   2.673   2.260   9.771 -0.0326  0.0973  0.0713
 2382W        W 5901   8.549   1.929  10.096 -0.1523 -0.0483 -0.4227
 2383W        W 5902   3.346   0.920   1.514 -0.1268  0.4265 -0.1849
 2384W        W 5903   7.770   8.848   9.758  0.1794  0.1113 -0.3578
 2385W        W 5904   8.601   4.970  11.761 -0.2229 -0.3047 -0.1250
 2386W        W 5905   1.998   6.406   9.428  0.1106  0.0774 -0.7009
 2387W        W 5906   9.420   1.576   2.356 -0.1632 -0.1198 -0.0779
 2388W        W 5907   3.373   5.508  11.997 -0.1218  0.1961  0.0241
 2389W        W 5908   5.839   4.160  12.468 -0.0555  0.1262 -0.0914
 2390W        W 5909   1.787   5.498   1.955  0.0897 -0.0737 -0.0843
 2391W        W 5910   3.363   7.634  12.400  0.0592 -0.0763  0.2216
 2392W        W 5911   4.520   8.322  10.362 -0.3712 -0.1876 -0.1452
 2393W        W 5912   4.933   5.163   1.800  0.1599 -0.1393 -0.2720
 2394W        W 5913   4.977   0.442   4.016 -0.0633  0.3012 -0.1919
 2395W        W 5914   9.460   3.449   3.225  0.0921  0.3877  0.1254
 2396W        W 5915   3.590   4.019   1.564 -0.2877  0.0881  0.2860
 2397W        W 5916   3.292   1.970   3.294  0.1647 -0.1513 -0.0589
 2398W        W 5917   4.907   7.263   9.250  0.0545  0.2025  0.0385
 2399W        W 5918   1.664   3.077   2.469 -0.0991 -0.1050 -0.0090
 2400W        W 5919   1.942   7.997  12.353  0.0917  0.1772  0.1143
 2401W        W 5920   6.115   4.172   8.726  0.1055 -0.0629 -0.0538
 2402W        W 5921   0.116   0.827  12.434  0.1817 -0.0095  0.1321
 2403W        W 5922   5.743   2.017  12.167  0.2220  0.2307  0.0940
 2404W        W 5923   5.694   3.320   8.366  0.4387 -0.1334 -0.1070
 2405W        W 5924   9.642   0.186   2.766 -0.3162 -0.0732 -0.1406
 2406W        W 5925   8.185   3.339   2.931  0.1785 -0.0597  0.1853
 2407W        W 5926   5.615   9.165   2.522 -0.0572 -0.0220 -0.0688
 2408W        W 5927   7.109   3.465   9.991  0.1655  0.1407 -0.1942
 2409W        W 5928   1.538   5.731  10.727 -0.2328  0.3189  0.2278
 2410W        W 5929   1.002   1.411  10.679  0.1246  0.0104  0.2271
 2411W        W 5930   5.121   8.539   2.910  0.2847  0.3289  0.0928
 2412W        W 5931   1.502   7.985  12.080  0.1311 -0.0572  0.0907
 2413W        W 5932   0.016   0.444  10.969  0.2255  0.2481 -0.0107
 2414W        W 5933   5.439   3.633  10.886  0.0986  0.4316 -0.2934
 2415W        W 5934   8.875   4.201   2.860  0.1968  0.0493  0.2693
 2416W        W 5935   3.483   4.936   2.563 -0.0231  0.0365 -0.1709
 2417W        W 5936   0.740   3.992   1.112 -0.0984 -0.0163  0.4709
 2418W        W 5937   7.795   2.191   3.465 -0.1811 -0.2162  0.1394
 2419W        W 5938   6.821   3.733   1.473 -0.1327  0.0262 -0.2356
 2420W        W 5939   8.630   6.005   8.519 -0.1668  0.0312 -0.0095
 2421W        W 5940   9.268   9.303   9.756 -0.0375  0.2888 -0.0361
 2422W        W 5941   4.437   9.195   1.964 -0.3641  0.2092  0.2940
 2423W        W 5942   5.886   7.858   2.189  0.3624  0.0812 -0.0373
 2424W        W 5943   2.729   1.631  11.058  0.3016  0.0903 -0.0366
 2425W        W 5944   3.127   9.348  11.141 -0.2050  0.1719  0.0716
 2426W        W 5945   6.820   2.804   1.626  0.0140  0.1059 -0.0932
 2427W        W 5946   1.832   3.309   2.881  0.3202 -0.0345  0.5428
 2428W        W 5947   0.763   7.552   1.343 -0.1922  0.1717  0.3096
 2429W        W 5948   5.328   3.170   8.780 -0.0459 -0.0913  0.4847
 2430W        W 5949   4.981   8.285  11.794  0.1514  0.2313 -0.2806
 2431W        W 5950   6.195   2.393   4.453  0.0104 -0.1631  0.0018
 2432W        W 5951   1.831   6.425   4.222  0.0810 -0.1456 -0.2109
 2433W        W 5952   1.391   9.193   0.299  0.1114 -0.2392 -0.3056
 2434W        W 5953   4.449   0.600  10.563  0.2633  0.1567 -0.2836
 2435W        W 5954   0.798   5.486   3.700 -0.0766  0.2068 -0.2329
 2436W        W 5955   2.035   6.804   8.055 -0.2382 -0.4213  0.4813
 2437W        W 5956   9.291   0.712   1.587 -0.3273  0.0992 -0.2783
 2438W        W 5957   9.175   1.632   1.969  0.1476  0.2328  0.0174
 2439W        W 5958   1.193   3.010   9.537 -0.4029 -0.0524  0.0061
 2440W        W 5959   7.949   5.235  11.208 -0.3526  0.2832  0.0536
 2441W        W 5960   9.667   9.571  11.864  0.1269 -0.2726 -0.3649
 2442W        W 5961   0.987   6.343   9.526 -0.2990 -0.0175 -0.2739
 2443W        W 5962   7.292   4.242   1.445  0.2375 -0.0329  0.0237
 2444W        W 5963   5.685   2.455   4.974 -0.1714  0.0727  0.1050
 2445W        W 5964   4.127   5.207  10.629  0.1295 -0.7142 -0.0632
 2446W        W 5965   3.560   1.329   4.084  0.0604 -0.1344  0.0019
 2447W        W 5966   4.701   2.274  11.859 -0.0766 -0.2249  0.2681
 2448W        W 5967   7.145   5.513   9.827 -0.0159 -0.0109  0.2320
 2449W        W 5968   1.634   4.815   3.675  0.1558  0.0100  0.1156
 2450W        W 5969   6.373   2.907   1.070  0.0316  0.2857  0.0062
 2451W        W 5970   0.993   6.658   2.657 -0.1200  0.1758  0.0519
 2452W        W 5971   2.169   3.926   0.926 -0.0482 -0.3037 -0.1397
 2453W        W 5972   2.873   2.698   3.856 -0.2161  0.2676 -0.0162
 2454W        W 5973   5.313   9.672  11.186 -0.1026 -0.0818  0.3509
 2455W        W 5974   5.987   3.151   9.816 -0.1848 -0.0145 -0.1297
 2456W        W 5975   1.429   8.042   1.133 -0.2169 -0.2559 -0.0538
 2457W        W 5976   7.737   7.593  10.736  0.0965  0.0150 -0.2306
 2458W        W 5977   9.296   8.784  11.958  0.0573 -0.3332  0.1277
 2459W        W 5978   0.402   9.682  11.242 -0.0468  0.2236  0.1971
 2460W        W 5979   0.751   2.016   0.709  0.1970 -0.0825  0.1194
 2461W        W 5980   5.132   6.023   1.138 -0.1465  0.0790 -0.2680
 2462W        W 5981   8.102   0.160   2.521 -0.0473  0.0074  0.1760
 2463W        W 5982   5.155   7.911   1.306  0.1380  0.2205 -0.0602
 2464W        W 5983   7.071   2.301   7.972  0.1234 -0.0301  0.1183
 2465W        W 5984   5.430   1.526   8.677 -0.0123  0.0142 -0.0290
 2466W        W 5985   5.098   6.446   3.308 -0.3452 -0.0534  0.2847
 2467W        W 5986   3.798   4.261   3.655 -0.0282  0.2401  0.1733
 2468W        W 5987   5.300   7.329   1.721  0.2188  0.3326  0.0346
 2469W        W 5988   7.704   7.989   9.399 -0.1294  0.0832  0.1395
 2470W        W 5989   3.563   4.527   4.026  0.0881  0.0137 -0.1338
 2471W        W 5990   2.417   5.707  11.874 -0.1957  0.2262 -0.0047
 2472W        W 5991   8.618   4.913   1.610 -0.3523  0.0754  0.2355
 2473W        W 5992   5.477   6.217   0.076 -0.4730 -0.3037 -0.0561
 2474W        W 5993   7.422   0.675   1.200 -0.0928 -0.3109 -0.0651
 2475W        W 5994   9.368   9.230  12.147 -0.0166 -0.1715  0.2163
 2476W        W 5995   4.183   8.791   1.810 -0.0786  0.0531 -0.2246
 2477W        W 5996   8.554   4.508  10.454 -0.3330  0.0110 -0.1154
 2478W        W 5997   0.345   2.920   9.977 -0.0088 -0.3207  0.0865
 2479W        W 5998   8.349   5.739   1.496  0.1775  0.0784 -0.2522
 2480W        W 5999   0.280   1.455   2.384 -0.0268 -0.0240 -0.0313
 2481W        W 6000   4.224   3.800  11.082  0.1352  0.1393  0.3134
 2482W        W 6001   8.663   9.204   9.982 -0.0345 -0.0811 -0.2896
 2483W        W 6002   0.136   0.442   9.750  0.1971 -0.0794 -0.1317
 2484W        W 6003   3.352   7.337   2.948  0.1731  0.1241  0.1719
 2485W        W 6004   5.762   7.106  11.049 -0.1813 -0.0132 -0.1174
 2486W        W 6005   9.684   3.802   8.728  0.2878  0.0449  0.0913
 2487W        W 6006   7.997   1.015  12.089  0.1736  0.3758  0.0546
 2488W        W 6007   7.155   0.008  12.413 -0.1228 -0.1750  0.0538
 2489W        W 6008   0.825   7.839  10.035 -0.0732  0.0588  0.1328
 2490W        W 6009   7.701   8.676  11.983 -0.0850  0.1086  0.0350
 2491W        W 6010   9.314   1.486  10.616  0.0224  0.1157 -0.1014
 2492W        W 6011   6.683   2.554   1.200 -0.1535  0.1261  0.0257
 2493W        W 6012   8.844   1.709   2.987  0.0339 -0.1798  0.2283
 2494W        W 6013   4.555   2.037  10.293 -0.2540  0.0591 -0.0759
 2495W        W 6014   1.939   5.442  10.588 -0.1333 -0.0124 -0.1265
 2496W        W 6015   5.333   6.834  10.872 -0.3326  0.1424 -0.0403
 2497W        W 6016   5.616   5.304   0.616 -0.2495  0.1378  0.0925
 2498W        W 6017   7.195   2.956  10.726  0.3325 -0.3603 -0.0330
 2499W        W 6018   6.262   8.833   9.327  0.3284  0.0302  0.1981
 2500W        W 6019   8.302   3.620  10.321 -0.0628  0.0528  0.1735
 2501W        W 6020   3.398   2.220   9.214  0.0892  0.1618 -0.0663
 2502W        W 6021   1.501   3.191  10.473  0.0528  0.0515  0.0853
 2503W        W 6022   7.601   5.144  12.471 -0.0110 -0.0639 -0.0840
 2504W        W 6023   9.056   6.288  10.738 -0.0173  0.2125 -0.1018
 2505W        W 6024   1.112   3.665   3.749  0.0886 -0.4396  0.2814
 2506W        W 6025   6.127   6.020   8.705 -0.1030 -0.1131 -0.3679
 2507W        W 6026   7.356   9.304  10.545  0.2708  0.0990 -0.1563
 2508W        W 6027   3.415   0.859   9.017  0.1655 -0.1097 -0.1949
 2509W        W 6028   8.170   5.766  10.754  0.0052 -0.0701  0.1422
 2510W        W 6029   7.769   8.128   1.030 -0.1438 -0.0160  0.2465
 2511W        W 6030   5.006   2.920  12.371 -0.0021  0.4903  0.1260
 2512W        W 6031   2.138   6.985  11.201 -0.2346  0.1232 -0.0109
 2513W        W 6032   5.743   8.919   9.032  0.1294  0.2911 -0.2809
 2514W        W 6033   2.545   4.679   8.348 -0.1940  0.0653  0.1178
 2515W        W 6034   0.209   4.140   7.808 -0.0782 -0.3152 -0.2826
 2516W        W 6035   8.613   6.301   2.098  0.0571 -0.1470  0.1352
 2517W        W 6036   1.393   0.497   2.681 -0.3106 -0.0269  0.0780
 2518W        W 6037   0.262   0.721  11.855 -0.3259  0.0456  0.4516
 2519W        W 6038   9.342   6.293   2.943  0.1623  0.2157  0.2072
 2520W        W 6039   1.676   6.890   3.014  0.0728 -0.2625 -0.1177
 2521W        W 6040   7.352   8.550   9.020 -0.1784  0.2561 -0.2989
 2522W        W 6041   4.429   4.606   3.071  0.0348 -0.1339 -0.2898
 2523W        W 6042   0.210   5.357   3.530 -0.0780  0.0640  0.2014
 2524W        W 6043   9.223   6.849   3.702  0.1615 -0.0486 -0.1226
 2525W        W 6044   0.110   1.906   2.305  0.1628 -0.0322 -0.0006
 2526W        W 6045   7.897   0.667  12.437  0.0896 -0.0135 -0.0058
 2527W        W 6046   2.603   9.271   2.400  0.0445 -0.0206  0.3202
 2528W        W 6047   8.584   0.877   9.925 -0.1723  0.0176  0.1106
 2529W        W 6048   7.393   7.368   3.143  0.0336 -0.5041  0.2244
 2530W        W 6049   8.038   7.794   0.282  0.1579  0.1273  0.4191
 2531W        W 6050   3.889   9.014   2.572  0.1297  0.0069 -0.1797
 2532W        W 6051   9.055   2.516  11.576  0.2625  0.0684  0.1877
 2533W        W 6052   0.606   1.904  11.861 -0.1245  0.1572  0.1365
 2534W        W 6053   0.355   0.767   9.020 -0.5415  0.0255  0.1202
 2535W        W 6054   2.772   6.245   7.680  0.0365 -0.1352  0.0832
 2536W        W 6055   6.689   3.395   8.605  0.0068 -0.4508  0.1846
 2537W        W 6056   7.655   6.714  12.215  0.1241  0.1040  0.0923
 2538W        W 6057   9.598   7.474   2.968 -0.1731  0.0893  0.1346
 2539W        W 6058   6.654   4.276   2.595 -0.2179 -0.1614  0.1396
 2540W        W 6059   1.282   8.622  10.643 -0.1442 -0.2920  0.2963
 2541W        W 6060   4.166   2.064   9.909  0.0795  0.0820  0.0830
 2542W        W 6061   6.585   2.281  10.532  0.5133  0.2316 -0.3605
 2543W        W 6062   6.988   0.930   0.958 -0.1430  0.1864 -0.1520
 2544W        W 6063   8.109   7.982  11.018 -0.0022 -0.0236 -0.2676
 2545W        W 6064   2.511   0.659   0.991  0.3653  0.0281 -0.2278
 2546W        W 6065   9.136   2.373  12.381  0.0915 -0.1644  0.2022
 2547W        W 6066   3.281   0.826  11.086 -0.1417 -0.1259 -0.1084
 2548W        W 6067   7.490   0.721   9.467  0.2831  0.1002 -0.2656
 2549W        W 6068   7.330   0.209   3.259 -0.0445  0.1351 -0.1512
 2550W        W 6069   2.915   8.903  11.007 -0.0943 -0.3062 -0.1502
 2551W        W 6070   7.925   2.656   9.156  0.1014  0.2164 -0.0357
 2552W        W 6071   4.303   1.895   3.125  0.2504 -0.1379  0.0795
 2553W        W 6072   9.063   8.706   0.473 -0.4367  0.2039 -0.0752
 2554W        W 6073   7.581   4.601  11.661 -0.1863  0.0667 -0.0588
 2555W        W 6074   3.903   7.663  11.288 -0.0175 -0.0923  0.0647
 2556W        W 6075   0.435   4.194  11.035  0.1067 -0.0802  0.0973
 2557W        W 6076   1.896   7.497   1.747  0.1106  0.2015 -0.0543
 2558W        W 6077   4.411   8.224   0.839 -0.0616 -0.0625  0.0087
 2559W        W 6078   5.959   9.355   0.975 -0.1385  0.2871 -0.2909
 2560W        W 6079   6.325   2.139   3.976 -0.0272 -0.0078 -0.2665
 2561W        W 6080   8.667   0.784   0.344  0.2129  0.0438 -0.0336
 2562W        W 6081   1.769   7.080   1.566  0.2745 -0.0669  0.0772
 2563W        W 6082   9.518   1.030   9.870  0.2704  0.2324 -0.1229
 2564W        W 6083   5.346   0.927   4.969  0.0337 -0.3701  0.0322
 2565W        W 6084   8.684   8.258  12.284  0.0726 -0.3767  0.0164
 2566W        W 6085   8.817   2.742   2.017 -0.1415  0.0150  0.0159
 2567W        W 6086   6.415   7.433   1.304  0.0181 -0.0350  0.0439
 2568W        W 6087   8.068   4.780   8.088  0.1242 -0.0474  0.0968
 2569W        W 6088   7.884   4.449   2.993 -0.0915  0.1633 -0.0078
 2570W        W 6089   7.068   6.932   2.016  0.1409  0.0485  0.0362
 2571W        W 6090   0.035   9.449   9.000  0.1463 -0.0216  0.0737
 2572W        W 6091   9.092   3.181  11.352 -0.1482  0.4020  0.2747
 2573W        W 6092   1.525   0.712   1.476 -0.2670 -0.0851  0.1171
 2574W        W 6093   3.461   8.986   2.823  0.0221 -0.0103 -0.0842
 2575W        W 6094   3.126   4.010   3.031 -0.1024 -0.0652  0.2426
 2576W        W 6095   9.103   4.597   2.618  0.0589  0.1523 -0.0686
 2577W        W 6096   2.355   8.147   9.130  0.2672 -0.2920 -0.1684
 2578W        W 6097   4.916   2.214   0.582 -0.1454  0.0325 -0.1810
 2579W        W 6098   2.620   2.339   0.239 -0.0785  0.1871 -0.2523
 2580W        W 6099   8.993   6.668   2.936 -0.1038 -0.1700  0.4634
 2581W        W 6100   9.118   4.717  10.450 -0.0601 -0.1861 -0.1311
 2582W        W 6101   8.457   6.067   3.829  0.3942 -0.0701 -0.2540
 2583W        W 6102   9.182   5.385   8.612 -0.1089  0.0265  0.1534
 2584W        W 6103   8.402   5.471  11.206 -0.0665 -0.2740 -0.0902
 2585W        W 6104   2.236   4.562   3.062 -0.1494 -0.3104 -0.0446
 2586W        W 6105   3.895   0.330   1.931  0.2756 -0.0042  0.1939
 2587W        W 6106   0.024   9.644  10.951 -0.1942  0.2707 -0.1514
 2588W        W 6107   9.020   7.040   4.081 -0.2612  0.0383  0.1232
 2589W        W 6108   5.929   2.872  10.516  0.1879  0.0137 -0.3025
 2590W        W 6109   6.730   0.021   0.897 -0.1898 -0.5588  0.1252
 2591W        W 6110   0.703   5.234   1.609  0.0863  0.1522 -0.0710
 2592W        W 6111   5.648   7.248   1.161  0.2681 -0.1038 -0.0556
 2593W        W 6112   8.251   3.875  12.449  0.1986  0.1546  0.1476
 2594W        W 6113   7.601   8.196   9.896 -0.3377 -0.2082 -0.1800
 2595W        W 6114   7.218   1.543  11.713  0.0163  0.1276 -0.1389
 2596W        W 6115   1.569   5.175  11.050 -0.2517 -0.2140  0.0406
 2597W        W 6116   1.819   1.917  11.062 -0.0461  0.1701 -0.3780
 2598W        W 6117   3.194   6.799   2.884  0.1689  0.0555  0.0331
 2599W        W 6118   0.995   6.898   0.652  0.2067 -0.1708 -0.1998
 2600W        W 6119   1.443   6.441   2.859 -0.0830  0.0876  0.1321
 2601W        W 6120   0.887   4.870   8.784  0.0610  0.0108  0.2188
 2602W        W 6121   2.640   5.141  12.139 -0.0894 -0.0705 -0.1113
 2603W        W 6122   9.394   6.124   9.544  0.1694  0.0104  0.0066
 2604W        W 6123   1.620   5.494   2.469 -0.3777 -0.0261 -0.2115
 2605W        W 6124   7.473   3.137   0.334 -0.4656  0.2749 -0.2817
 2606W        W 6125   4.086   4.632   9.344 -0.0257  0.0943 -0.2225
 2607W        W 6126   6.168   5.413  12.111  0.1363 -0.2508 -0.0051
 2608W        W 6127   9.628   5.217   1.692 -0.0091 -0.3459 -0.1331
 2609W        W 6128   4.159   8.412   3.941 -0.0862 -0.0047  0.4099
 2610W        W 6129   5.873   4.463   0.381  0.1822 -0.1225  0.0831
 2611W        W 6130   0.078   6.390   7.577 -0.0611 -0.2753  0.0515
 2612W        W 6131   3.331   4.999   0.210  0.0734 -0.0952  0.0847
 2613W        W 6132   1.714   4.202  10.250  0.0746 -0.0469 -0.0590
 2614W        W 6133   1.651   5.190   1.595 -0.0480 -0.1541  0.1161
 2615W        W 6134   0.664   5.064   2.724 -0.2519  0.0022  0.0318
 2616W        W 6135   0.491   8.841   1.745 -0.0114  0.0226  0.0180
 2617W        W 6136   5.039   9.649  10.244 -0.0823 -0.0822  0.1025
 2618W        W 6137   8.339   3.278   9.906  0.0931  0.0560  0.1033
 2619W        W 6138   3.733   0.493   1.117 -0.3666 -0.2365 -0.3397
 2620W        W 6139   2.107   9.163  10.045 -0.2672 -0.3703 -0.2369
 2621W        W 6140   3.404   3.712   8.915 -0.1714  0.0775  0.1886
 2622W        W 6141   3.786   8.957  11.663 -0.1588 -0.0044  0.0445
 2623W        W 6142   7.443   5.522   8.909 -0.3633 -0.1949  0.5043
 2624W        W 6143   0.444   8.434   3.565 -0.0307 -0.0040 -0.3294
 2625W        W 6144   7.903   8.036   2.056 -0.0058 -0.1231  0.1169
 2626W        W 6145   8.671   3.697   9.321 -0.0032 -0.2240 -0.5198
 2627W        W 6146   0.923   2.095   9.941  0.1440 -0.1017  0.3003
 2628W        W 6147   6.098   1.843   4.402  0.1413  0.0317 -0.0331
 2629W        W 6148   7.273   4.675   8.920  0.0482 -0.2085 -0.1168
 2630W        W 6149   4.758   9.135   2.970 -0.1537  0.0568 -0.1151
 2631W        W 6150   4.465   8.011  10.720  0.1277 -0.0694 -0.1113
 2632W        W 6151   0.777   4.312   7.894 -0.1369  0.1118 -0.1724
 2633W        W 6152   7.084   8.801   1.062 -0.0158 -0.0730  0.2199
 2634W        W 6153   0.493   2.516   8.951 -0.1360  0.0575  0.1444
 2635W        W 6154   5.335   4.860  12.108  0.1370 -0.0539  0.4875
 2636W        W 6155   0.126   3.111   2.049  0.0298 -0.0382  0.0208
 2637W        W 6156   2.467   0.475   1.455  0.2203 -0.1467  0.0377
 2638W        W 6157   4.139   7.157  11.908  0.0139 -0.2956  0.1035
 2639W        W 6158   2.922   4.677   4.313 -0.1247  0.0787 -0.0358
 2640W        W 6159   7.940   3.831   3.682 -0.1857 -0.1691  0.3446
 2641W        W 6160   4.366   7.033   7.650  0.1473 -0.0133  0.0360
 2642W        W 6161   1.116   6.957   2.025 -0.0091  0.0269 -0.0338
 2643W        W 6162   7.659   4.996   1.284 -0.1157 -0.1459 -0.2883
 2644W        W 6163   7.347   9.146   0.759 -0.0387  0.0079 -0.2481
 2645W        W 6164   7.010   7.129   9.301  0.1357 -0.0823  0.2019
 2646W        W 6165   2.946   3.843   8.811  0.0480 -0.0062  0.0054
 2647W        W 6166   5.625   3.037  10.128  0.1599 -0.1113 -0.2633
 2648W        W 6167   7.725   5.584   2.469 -0.2364  0.2799  0.0549
 2649W        W 6168   2.517   0.333   0.623 -0.5339 -0.2405  0.0590
 2650W        W 6169   5.065   7.491   1.018 -0.1152  0.1426  0.0778
 2651W        W 6170   9.315   4.625   9.959 -0.0514 -0.0888 -0.1503
 2652W        W 6171   8.640   6.486   0.315  0.1285  0.0405  0.5646
 2653W        W 6172   7.864   8.032   8.835  0.0850  0.0630 -0.0180
 2654W        W 6173   7.373   9.243   4.923 -0.0031 -0.0041 -0.3229
 2655W        W 6174   3.517   0.385   9.249  0.2456 -0.0479 -0.0042
 2656W        W 6175   0.726   7.564  10.409 -0.1732 -0.1933  0.0586
 2657W        W 6176   1.691   1.873   2.669  0.0736 -0.0686 -0.4044
 2658W        W 6177   1.011   5.925  11.824  0.1238  0.0525  0.0466
 2659W        W 6178   0.968   4.763   2.452  0.2700  0.2375 -0.1361
 2660W        W 6179   1.972   5.096   3.348  0.2194  0.0136 -0.0066
 2661W        W 6180   8.910   7.013   1.561 -0.3207  0.1278 -0.2904
 2662W        W 6181   7.542   3.608   1.223 -0.2625  0.7075  0.1021
 2663W        W 6182   6.433   7.984  12.124 -0.1705 -0.1871 -0.2457
 2664W        W 6183   9.325   2.578   8.160  0.2510 -0.1710 -0.1286
 2665W        W 6184   7.073   3.851  11.942  0.0014  0.0230  0.1082
 2666W        W 6185   4.387   4.260  11.087  0.0465 -0.0444  0.2045
 2667W        W 6186   8.000   8.586   1.830 -0.1981 -0.0286  0.0111
 2668W        W 6187   4.580   3.426   0.498 -0.3455 -0.0240  0.0719
 2669W        W 6188   7.707   3.951   4.330  0.0899 -0.0763 -0.3652
 2670W        W 6189   0.995   4.716  11.331  0.1966 -0.0412  0.1285
 2671W        W 6190   4.140   7.216  11.350 -0.1111  0.0871 -0.2993
 2672W        W 6191   0.806   3.537   2.436  0.2144  0.0136  0.1415
 2673W        W 6192   0.294   1.377   9.731  0.2244 -0.1203  0.1037
 2674W        W 6193   5.160   0.867   1.615 -0.3790  0.2549  0.1996
 2675W        W 6194   8.349   4.312  10.990  0.3190  0.1481  0.0959
 2676W        W 6195   0.423   1.584  10.738  0.2731  0.0159  0.0300
 2677W        W 6196   5.648   1.982   3.648 -0.1305  0.2433  0.0971
 2678W        W 6197   3.039   0.248   9.249  0.0285  0.1607 -0.0149
 2679W        W 6198   8.031   0.736   3.230  0.0829 -0.0150  0.2060
 2680W        W 6199   1.588   8.422  12.265 -0.0945 -0.1011 -0.0693
 2681W        W 6200   7.244   6.521  12.451  0.0521 -0.1605 -0.2536
 2682W        W 6201   5.892   0.197   9.668  0.2106  0.1442  0.0896
 2683W        W 6202   5.393   0.649   9.179 -0.0622  0.0042 -0.0344
 2684W        W 6203   6.654   0.035   8.644  0.2101 -0.0146  0.0390
 2685W        W 6204   7.376   8.381   1.203  0.0440 -0.0326 -0.0237
 2686W        W 6205   1.959   2.414  10.894 -0.1783  0.2089 -0.3264
 2687W        W 6206   3.610   4.361   9.590 -0.2118 -0.2543 -0.0025
 2688W        W 6207   4.944   4.052   3.884 -0.2822  0.0087  0.3296
 2689W        W 6208   0.229   8.463  12.440  0.0980  0.1781 -0.2799
 2690W        W 6209   5.209   7.402  10.204 -0.2021  0.0688 -0.0203
 2691W        W 6210   5.041   1.030   9.308  0.1541 -0.1459  0.1693
 2692W        W 6211   3.330   6.397   8.874  0.2539  0.1427 -0.0540
 2693W        W 6212   8.350   8.736  10.617 -0.0855  0.0535  0.4109
 2694W        W 6213   3.891   6.126  10.282  0.2330  0.1980 -0.3561
 2695W        W 6214   5.534   6.665   3.063  0.1676 -0.1237 -0.0023
 2696W        W 6215   7.400   4.610   3.547 -0.1182  0.3228 -0.0749
 2697W        W 6216   3.130   6.799  10.469 -0.1150 -0.2086  0.3175
 2698W        W 6217   1.429   8.936   3.373  0.1881  0.0360 -0.4116
 2699W        W 6218   8.001   8.375  10.677  0.1131  0.0272  0.0035
 2700W        W 6219   4.260   8.871   0.727 -0.3139  0.1199  0.0730
 2701W        W 6220   7.223   4.917  10.710  0.0530 -0.2512 -0.1130
 2702W        W 6221   6.803   5.300   3.273 -0.0861  0.4559  0.0110
 2703W        W 6222   0.129   8.906  10.393 -0.3320  0.2149 -0.2793
 2704W        W 6223   9.360   6.691   9.374 -0.0455  0.2377  0.0716
 2705W        W 6224   7.148   0.319   3.690 -0.5862  0.1040 -0.1927
 2706W        W 6225   5.042   2.713   0.785 -0.3779 -0.3893  0.0413
 2707W        W 6226   5.893   4.221   1.441  0.1380 -0.3711 -0.3731
 2708W        W 6227   8.517   4.907   8.092 -0.0356  0.1553 -0.1112
 2709W        W 6228   0.077   5.998  11.929 -0.0606 -0.1205 -0.1847
 2710W        W 6229   6.404   7.523  10.401  0.1990 -0.2287 -0.1941
 2711W        W 6230   3.232   7.120   2.013 -0.1578  0.0796  0.0754
 2712W        W 6231   1.952   9.048   8.976  0.2777  0.1391 -0.1451
 2713W        W 6232   6.989   2.296   3.241  0.0871 -0.0770 -0.0817
 2714W        W 6233   7.425   6.066  11.899  0.1294 -0.0608 -0.2341
 2715W        W 6234   3.418   6.447  10.643  0.2606 -0.1996 -0.0547
 2716W        W 6235   2.898   8.215   2.480  0.0118 -0.1464 -0.0755
 2717W        W 6236   4.212   9.341   8.748  0.1020  0.0741 -0.1039
 2718W        W 6237   0.829   1.566   2.069  0.2744 -0.1099  0.0693
 2719W        W 6238   1.475   6.622   8.873 -0.0467  0.2846 -0.0786
 2720W        W 6239   1.431   5.712  11.551 -0.2136  0.0083  0.2660
 2721W        W 6240   3.261   5.448   3.351 -0.0925 -0.0066  0.2483
 2722W        W 6241   0.975   9.093  11.657  0.0639 -0.2966  0.3464
 2723W        W 6242   1.752   6.789   7.642 -0.0659  0.2045  0.1706
 2724W        W 6243   3.235   6.113  10.203 -0.1583  0.1672  0.2159
 2725W        W 6244   1.245   7.019   3.627  0.0518 -0.1470  0.2581
 2726W        W 6245   6.801   8.272   2.507 -0.0927  0.1579 -0.1363
 2727W        W 6246   8.301   9.420  11.979  0.1182 -0.0958  0.1276
 2728W        W 6247   1.173   5.176   1.283 -0.1461  0.1534 -0.0293
 2729W        W 6248   7.676   6.757   2.331  0.4199  0.3873  0.0861
 2730W        W 6249   4.516   2.561   0.681 -0.0870  0.2543 -0.3361
 2731W        W 6250   1.943   4.926  11.767  0.1233 -0.1023  0.1535
 2732W        W 6251   2.212   6.758   1.580  0.2654  0.0287  0.1789
 2733W        W 6252   5.452   1.653   2.254 -0.2146  0.1496  0.2702
 2734W        W 6253   2.524   2.846  11.903 -0.0434  0.2740  0.1277
 2735W        W 6254   8.907   7.295   0.307  0.0329  0.1083 -0.0201
 2736W        W 6255   0.347   1.937  11.388  0.1832 -0.3913 -0.0511
 2737W        W 6256   5.867   0.514   9.266  0.2335 -0.0365  0.1043
 2738W        W 6257   6.291   2.086  10.935 -0.0614  0.1035  0.0028
 2739W        W 6258   3.087   7.332   9.008 -0.0714 -0.0833 -0.1223
 2740W        W 6259   9.134   4.784   1.211  0.0234  0.0785 -0.0499
 2741W        W 6260   1.047   0.297  11.825 -0.1004  0.4107 -0.1641
 2742W        W 6261   6.218   7.754   3.780  0.1206  0.0522  0.0578
 2743W        W 6262   1.509   8.560  10.060  0.2250  0.0503 -0.1979
 2744W        W 6263   7.842   2.760  11.676  0.0383 -0.0688  0.0241
 2745W        W 6264   8.272   2.998   0.476 -0.4613 -0.0585  0.2291
 2746W        W 6265   0.407   3.910   1.532  0.1103 -0.0607 -0.2447
 2747W        W 6266   9.143   1.316   9.085  0.0750 -0.1801 -0.2118
 2748W        W 6267   6.144   8.466   8.409  0.0500  0.1878  0.5716
 2749W        W 6268   0.390   9.356  11.757  0.1576 -0.2715  0.0788
 2750W        W 6269   2.509   6.943   1.247  0.0093  0.2282 -0.0276
 2751W        W 6270   0.761   9.231   1.780  0.0122 -0.3669  0.0984
 2752W        W 6271   6.083   6.859   4.330 -0.1610  0.2808 -0.2585
 2753W        W 6272   5.468   6.923   2.057 -0.0181  0.0835  0.0335
 2754W        W 6273   3.165   7.707   0.353  0.1368 -0.1801 -0.1411
 2755W        W 6274   0.163   3.897   0.491 -0.0536 -0.1375 -0.2066
 2756W        W 6275   5.484   3.393  10.447  0.0804 -0.1970 -0.1029
 2757W        W 6276   2.789   4.281   8.636  0.0519 -0.5293 -0.0197
 2758W        W 6277   7.225   8.548   9.905  0.0846 -0.1565 -0.0354
 2759W        W 6278   0.195   4.511  10.013  0.1428  0.0656  0.0812
 2760W        W 6279   1.730   2.722   2.881  0.1594 -0.3703 -0.3179
 2761W        W 6280   0.306   8.370  10.630  0.2975 -0.0383  0.1248
 2762W        W 6281   5.628   4.608   2.893 -0.2265 -0.0214  0.0169
 2763W        W 6282   0.276   6.702   8.812  0.1954 -0.3914 -0.1310
 2764W        W 6283   8.329   5.245   0.019 -0.0335 -0.1231 -0.0825
 2765W        W 6284   0.488   0.298   0.548 -0.0027  0.0885 -0.4321
 2766W        W 6285   3.009   2.866   1.974 -0.0897 -0.1402 -0.0361
 2767W        W 6286   5.448   6.160   3.616  0.1582  0.2445  0.3780
 2768W        W 6287   5.243   3.754   3.660  0.0157 -0.3945  0.0150
 2769W        W 6288   5.795   8.202   2.612 -0.0397 -0.0914 -0.0888
 2770W        W 6289   2.303   8.422  10.953 -0.1966  0.0679 -0.0501
 2771W        W 6290   7.416   2.530  10.757  0.1026 -0.2142 -0.0054
 2772W        W 6291   6.242   8.637   1.156  0.4014  0.1355  0.2021
 2773W        W 6292   1.360   3.261   0.626  0.2829 -0.0545  0.5566
 2774W        W 6293   8.364   3.239   2.454 -0.1560 -0.1173  0.1619
 2775W        W 6294   6.448   4.021   9.912  0.1824  0.2447 -0.1518
 2776W        W 6295   5.709   6.877   1.508 -0.3200  0.0258 -0.3112
 2777W        W 6296   2.394   9.566  11.479 -0.0578 -0.1881 -0.2844
 2778W        W 6297   8.621   4.972   4.530  0.4320  0.0551  0.1604
 2779W        W 6298   6.376   3.222  12.356  0.1190 -0.1197 -0.2586
 2780W        W 6299   3.288   7.113   3.362  0.0254  0.0026 -0.0391
 2781W        W 6300   4.534   0.952   0.678 -0.1448  0.0001  0.1697
 2782W        W 6301   7.088   4.372  10.747  0.0840 -0.1101 -0.2598
 2783W        W 6302   9.611   0.373   1.329  0.2872  0.1228 -0.0831
 2784W        W 6303   7.982   8.734   0.528 -0.2768  0.1781  0.0878
 2785W        W 6304   1.243   1.072  10.332 -0.2459  0.1614  0.0312
 2786W        W 6305   7.446   4.516   7.662  0.1046 -0.0427 -0.1272
 2787W        W 6306   9.300   3.536   1.735  0.2993  0.2558  0.1256
 2788W        W 6307   8.564   1.999   8.048 -0.3194 -0.2101 -0.1198
 2789W        W 6308   7.700   1.457  10.959  0.0836 -0.1152 -0.1107
 2790W        W 6309   3.986   2.368   9.562  0.0430  0.0303  0.0007
 2791W        W 6310   7.953   6.975   0.104  0.0692  0.0104  0.3701
 2792W        W 6311   0.627   4.692  12.002  0.0522  0.1220  0.1127
 2793W        W 6312   6.884   3.332  10.507 -0.1601  0.1449  0.1616
 2794W        W 6313   2.043   7.888   2.049  0.0816 -0.0725  0.1250
 2795W        W 6314   6.253   6.362  10.527 -0.3080  0.1805 -0.1919
 2796W        W 6315   4.119   2.930   2.119 -0.0561  0.0741 -0.2653
 2797W        W 6316   1.183   4.395  11.020 -0.2463 -0.1259 -0.3292
 2798W        W 6317   7.399   3.510  10.582  0.0678  0.0166  0.0174
 2799W        W 6318   3.512   5.534  10.973  0.1553  0.0636  0.4806
 2800W        W 6319   4.590   7.771   8.904 -0.1366 -0.2361 -0.0837
 2801W        W 6320   1.304   0.551  11.083  0.0681 -0.0126  0.1619
 2802W        W 6321   8.882   3.475   2.435  0.3534  0.1697 -0.1916
 2803W        W 6322   8.920   4.105   9.231 -0.0155 -0.1526  0.0726
 2804W        W 6323   5.648   7.744   2.644  0.1517  0.0719 -0.2540
 2805W        W 6324   3.854   7.792  12.308  0.0184 -0.3026 -0.1543
 2806W        W 6325   5.173   1.695  12.364 -0.3626  0.2920  0.1481
 2807W        W 6326   6.280   6.330   9.979  0.0512  0.2702  0.1093
 2808W        W 6327   3.736   0.910  12.380 -0.1615 -0.4486 -0.0501
 2809W        W 6328   3.809   4.932   0.445 -0.2300  0.0698 -0.0346
 2810W        W 6329   4.152   1.442  10.830 -0.0948  0.0177 -0.4379
 2811W        W 6330   5.201   4.898   3.729 -0.1132 -0.3324  0.2962
 2812W        W 6331   5.377   8.086  11.040 -0.1675 -0.1852  0.0571
 2813W        W 6332   8.668   5.376   1.504  0.0707  0.0209  0.2779
 2814W        W 6333   2.313   6.594   2.498  0.2248  0.0033 -0.0464
 2815W        W 6334   2.816   2.072   8.357  0.0363 -0.2103 -0.2236
 2816W        W 6335   7.181   1.253   0.358 -0.3429  0.1983  0.2133
 2817W        W 6336   8.894   8.998   3.959  0.0956 -0.0004  0.0318
 2818W        W 6337   5.757   3.117  11.384  0.1718 -0.1951  0.0416
 2819W        W 6338   4.533   2.366   3.082 -0.3110  0.2727 -0.1326
 2820W        W 6339   3.938   5.591   1.270  0.1233  0.0445 -0.1463
 2821W        W 6340   1.940   3.585  11.828  0.4414 -0.0885 -0.0839
 2822W        W 6341   4.693   3.817   0.796  0.0958  0.0305 -0.1444
 2823W        W 6342   3.760   8.032   1.175 -0.1241  0.3840  0.0163
 2824W        W 6343   0.025   6.578   3.974 -0.1903  0.3167 -0.3308
 2825W        W 6344   2.342   6.220   8.587 -0.0741  0.2048  0.1987
 2826W        W 6345   8.701   5.536   9.179 -0.5148  0.0880 -0.0732
 2827W        W 6346   2.816   9.131   1.949 -0.0929  0.1991 -0.2121
 2828W        W 6347   3.701   2.612  10.517  0.1479  0.1858 -0.0892
 2829W        W 6348   8.309   1.752   1.540 -0.2387 -0.0101 -0.3699
 2830W        W 6349   1.127   6.849  10.185 -0.2470  0.1439  0.1927
 2831W        W 6350   3.516   1.531   0.942  0.5614  0.0932  0.4640
 2832W        W 6351   6.702   7.476   3.725 -0.1590 -0.2421  0.1590
 2833W        W 6352   4.796   3.000   3.053 -0.1914 -0.1265  0.1916
 2834W        W 6353   3.612   4.526  12.310 -0.0857  0.2048 -0.1320
 2835W        W 6354   6.373   8.331  11.360  0.0679 -0.2429 -0.1204
 2836W        W 6355   8.407   3.673   2.131 -0.0295 -0.4646 -0.0366
 2837W        W 6356   8.732   8.121   2.613  0.0898 -0.4179  0.0923
 2838W        W 6357   4.965   0.842   1.114  0.1127 -0.1049 -0.1871
 2839W        W 6358   4.823   7.112   1.791 -0.0904 -0.1364  0.4250
 2840W        W 6359   5.698   1.491   3.403 -0.0342 -0.1503  0.0120
 2841W        W 6360   2.846   8.992   0.997  0.0582 -0.1793 -0.2329
 2842W        W 6361   5.919   2.757   1.927  0.3645 -0.0473 -0.2971
 2843W        W 6362   6.507   1.049  11.596 -0.0810  0.1308 -0.1890
 2844W        W 6363   0.892   8.881  12.107 -0.0123 -0.0510 -0.0470
 2845W        W 6364   6.673   6.856  11.271 -0.0965 -0.1222 -0.1134
 2846W        W 6365   8.983   5.024   3.508 -0.2478 -0.1103  0.0536
 2847W        W 6366   4.868   2.833  11.858 -0.3015 -0.1443  0.0206
 2848W        W 6367   6.127   5.933   4.076 -0.0094 -0.2940  0.2963
 2849W        W 6368   9.422   7.086   8.825  0.2802  0.0266  0.0054
 2850W        W 6369   8.359   5.445   3.167 -0.0400  0.3407 -0.2030
 2851W        W 6370   4.902   5.497  10.893  0.1160 -0.0374  0.3056
 2852W        W 6371   6.327   9.673   1.621  0.0001  0.0975 -0.1743
 2853W        W 6372   5.548   4.172   9.865 -0.2651 -0.1033 -0.1729
 2854W        W 6373   3.606   7.535   8.727  0.1301  0.0084  0.0234
 2855W        W 6374   3.357   0.196   2.785  0.0928 -0.2645  0.2108
 2856W        W 6375   8.205   6.704  10.757 -0.3245 -0.0565  0.1660
 2857W        W 6376   1.177   2.769  10.580  0.1898 -0.0589  0.3160
 2858W        W 6377   6.357   3.813   4.670  0.0919 -0.0105  0.0714
 2859W        W 6378   2.207   4.064  11.504  0.2094 -0.0044 -0.1620
 2860W        W 6379   7.291   7.429   1.641  0.1536  0.0394 -0.0033
 2861W        W 6380   7.728   0.906   1.547 -0.0612  0.3623 -0.1416
 2862W        W 6381   4.421   6.382  10.957 -0.2914  0.0681  0.0110
 2863W        W 6382   5.097   3.252   3.445 -0.0038  0.1049 -0.3501
 2864W        W 6383   4.850   7.909  10.292 -0.3400 -0.0772  0.2385
 2865W        W 6384   3.085   3.214   3.057  0.1910 -0.0802  0.0561
 2866W        W 6385   4.342   7.919   3.711 -0.0285  0.0972  0.1733
 2867W        W 6386   2.109   9.110  10.756  0.1502  0.4574  0.1710
 2868W        W 6387   3.610   1.403   2.756  0.0065 -0.0404 -0.3907
 2869W        W 6388   4.237   9.336   0.777  0.0411 -0.0946  0.1675
 2870W        W 6389   4.329   8.445  11.508 -0.0656 -0.1083  0.0094
 2871W        W 6390   6.975   8.100   8.890  0.2165 -0.0362 -0.1546
 2872W        W 6391   8.955   9.714   1.882 -0.2217  0.0487  0.0983
 2873W        W 6392   2.670   5.339   7.669  0.0320 -0.1010 -0.1684
 2874W        W 6393   0.490   7.310   9.999 -0.4426 -0.4925 -0.0137
 2875W        W 6394   0.760   6.575  10.443 -0.0685 -0.1681 -0.1841
 2876W        W 6395   5.267   7.786  10.554  0.0799 -0.2600 -0.0071
 2877W        W 6396   6.146   1.765   2.812  0.0753 -0.2606  0.0483
 2878W        W 6397   2.217   8.064   2.554 -0.1539  0.1354 -0.0751
 2879W        W 6398   8.283   6.449   1.712  0.3885 -0.2895 -0.0914
 2880W        W 6399   5.847   6.643  10.803 -0.4299 -0.0706 -0.4271
 2881W        W 6400   3.652   1.704   9.284  0.0230  0.0045  0.0053
 2882W        W 6401   1.580   0.707   0.518  0.0044  0.0408 -0.1085
 2883W        W 6402   7.108   4.842   0.630 -0.0380  0.0852 -0.1106
 2884W        W 6403   1.773   5.801   3.457 -0.3278  0.3074  0.0469
 2885W        W 6404   1.348   2.427  10.216  0.0559 -0.1502  0.1506
 2886W        W 6405   0.323   3.562   2.243 -0.0563 -0.0114  0.0998
 2887W        W 6406   1.756   8.123   2.763 -0.0708  0.3402 -0.1411
 2888W        W 6407   3.530   5.238   9.223  0.3124  0.3604 -0.0695
 2889W        W 6408   0.711   4.339   1.426 -0.0745  0.0964 -0.1470
 2890W        W 6409   7.511   5.503  10.106 -0.2928 -0.1860 -0.3799
 2891W        W 6410   8.475   9.509  10.427  0.0488 -0.0030 -0.0827
 2892W        W 6411   6.477   4.250   3.802  0.1963 -0.1999 -0.0820
 2893W        W 6412   5.548   3.173  10.931  0.2476  0.2542  0.2485
 2894W        W 6413   6.103   1.785   0.423  0.2892 -0.1263 -0.1534
 2895W        W 6414   5.470   5.660   8.934  0.1872  0.0044  0.0117
 2896W        W 6415   3.213   0.709   2.075 -0.1564 -0.3185 -0.0243
 2897W        W 6416   0.348   5.821   3.671  0.1840  0.0138 -0.1674
 2898W        W 6417   7.840   7.560  11.835  0.0749  0.0941 -0.0820
 2899W        W 6418   2.691   7.072   8.692 -0.0833  0.1497 -0.2751
 2900W        W 6419   8.417   7.173   2.260 -0.0675  0.2668  0.1662
 2901W        W 6420   3.554   3.947  11.601  0.2301  0.0776 -0.1555
 2902W        W 6421   9.271   9.401   9.094  0.0821 -0.1874  0.1112
 2903W        W 6422   0.945   6.637   1.654  0.2217 -0.4464  0.1658
 2904W        W 6423   0.083   4.416   0.557  0.1104 -0.0113  0.2180
 2905W        W 6424   4.227   5.192   0.374 -0.2270  0.0852  0.1883
 2906W        W 6425   8.959   4.572   3.141 -0.2383 -0.4893 -0.2608
 2907W        W 6426   6.743   0.723  12.023 -0.0753  0.3335  0.1929
 2908W        W 6427   2.012   4.009  12.018 -0.0163 -0.2693  0.0522
 2909W        W 6428   1.328   4.367  11.491  0.0010  0.1475  0.0185
 2910W        W 6429   8.854   6.259  10.197  0.3773  0.2554 -0.0344
 2911W        W 6430   1.217   1.233   0.445 -0.1959  0.0676  0.0804
 2912W        W 6431   1.996   9.177   2.357  0.0523  0.2151  0.2745
 2913W        W 6432   0.195   5.276   2.594 -0.1061  0.2271  0.2946
 2914W        W 6433   7.682   6.543  11.702  0.0238 -0.0868 -0.1630
 2915W        W 6434   6.355   3.844  11.318  0.1355  0.0381 -0.2614
 2916W        W 6435   7.721   3.741  11.276 -0.0937 -0.1926  0.0104
 2917W        W 6436   6.212   9.589  12.297  0.0254  0.2110  0.0919
 2918W        W 6437   5.619   3.929  11.377  0.1690  0.2672  0.2506
 2919W        W 6438   5.333   4.780   8.344  0.1869 -0.2654  0.1070
 2920W        W 6439   4.521   5.143   2.118 -0.2447 -0.0645 -0.1592
 2921W        W 6440   8.290   6.010  11.503  0.0598  0.2305 -0.2295
 2922W        W 6441   0.662   5.427  11.609  0.0917 -0.2113 -0.0962
 2923W        W 6442   3.923   4.379  11.216 -0.0093  0.3310  0.0172
 2924W        W 6443   1.866   0.024   3.080 -0.0653  0.1662 -0.0536
 2925W        W 6444   8.114   4.557   0.587  0.3511 -0.0791  0.1482
 2926W        W 6445   4.508   5.380   9.186  0.2566  0.2490 -0.5898
 2927W        W 6446   6.895   5.403   9.256 -0.0448  0.0369 -0.0024
 2928W        W 6447   1.666   1.752  11.481  0.4000  0.0370 -0.2523
 2929W        W 6448   3.066   0.114   8.653  0.1418  0.2798 -0.1303
 2930W        W 6449   7.347   4.708   9.909  0.1831  0.0826  0.1319
 2931W        W 6450   4.247   8.774   2.294  0.1805 -0.0202 -0.2043
 2932W        W 6451   3.290   4.874   1.573 -0.1923  0.3316 -0.1785
 2933W        W 6452   0.489   5.402   8.912 -0.2525 -0.1519  0.1076
 2934W        W 6453   4.113   0.462  11.007 -0.0268  0.1347  0.3446
 2935W        W 6454   2.766   7.068   9.775 -0.1044 -0.1491  0.1598
 2936W        W 6455   7.328   2.375   3.600  0.1693 -0.5751 -0.2927
 2937W        W 6456   3.823   9.090   2.063  0.0088 -0.3283 -0.3200
 2938W        W 6457   8.091   3.014  10.857 -0.0430  0.0382  0.1344
 2939W        W 6458   2.385   6.251   9.165 -0.2103 -0.0929  0.1831
 2940W        W 6459   5.742   4.569   1.754  0.1459  0.4054 -0.1776
 2941W        W 6460   9.151   2.918  11.895  0.1144 -0.0371 -0.1072
 2942W        W 6461   2.839   3.063  10.104  0.1000 -0.3013 -0.1743
 2943W        W 6462   4.612   2.251  10.720  0.0858  0.0140  0.2224
 2944W        W 6463   8.629   4.607   3.631 -0.7480 -0.1997 -0.3079
 2945W        W 6464   3.227   3.649   3.373  0.1398 -0.2532  0.1019
 2946W        W 6465   9.331   5.394   2.571  0.2023 -0.1173 -0.1376
 2947W        W 6466   2.911   7.107  11.734 -0.0008 -0.5542  0.2676
 2948W        W 6467   3.773   7.021  10.192  0.1666  0.0640  0.2153
 2949W        W 6468   7.183   6.797   8.824  0.0050 -0.1741 -0.0377
 2950W        W 6469   6.682   3.296   1.397  0.1116 -0.1785  0.0398
 2951W        W 6470   1.327   4.735   4.500  0.1056  0.1592 -0.1427
 2952W        W 6471   8.699   7.877   1.150 -0.1143 -0.2151 -0.0665
 2953W        W 6472   8.583   6.985   8.625 -0.0797 -0.3309  0.2669
 2954W        W 6473   0.577   0.078   2.261 -0.1664 -0.1491  0.1413
 2955W        W 6474   6.735   0.750   4.717 -0.0324 -0.2070  0.1404
 2956W        W 6475   8.656   6.420   9.447 -0.0919 -0.1860  0.0555
 2957W        W 6476   5.009   0.566   2.037 -0.1330  0.0767 -0.3848
 2958W        W 6477   8.837   7.376   4.380 -0.2205 -0.1995  0.0544
 2959W        W 6478   6.217   3.606   0.656  0.0939  0.1825 -0.1975
 2960W        W 6479   2.679   3.669   1.626  0.0297  0.0411 -0.1714
 2961W        W 6480   7.433   1.429   8.991 -0.2020 -0.0399 -0.0195
 2962W        W 6481   4.451   1.377   2.983 -0.0871  0.0009 -0.1255
 2963W        W 6482   6.545   3.315   0.909  0.0775  0.0899 -0.1492
 2964W        W 6483   6.722   9.342   4.086  0.2196  0.0889 -0.4831
 2965W        W 6484   1.883   8.533   1.351 -0.1499 -0.0572 -0.0106
 2966W        W 6485   1.059   7.796   3.182  0.4473 -0.3271 -0.2330
 2967W        W 6486   3.752   0.695  11.283 -0.1238 -0.2439 -0.1386
 2968W        W 6487   4.712   1.506   4.446  0.1089 -0.1782 -0.0739
 2969W        W 6488   0.358   2.165   2.703 -0.0682  0.1676 -0.2502
 2970W        W 6489   4.559   3.440  11.006  0.0993  0.3338  0.1513
 2971W        W 6490   9.218   2.008  10.642 -0.1677  0.0528 -0.0345
 2972W        W 6491   0.092   5.233  10.738 -0.0729 -0.2906 -0.2102
 2973W        W 6492   4.711   5.601  11.874  0.2540  0.3292  0.2857
 2974W        W 6493   9.138   3.881   2.558 -0.1950  0.0464  0.1559
 2975W        W 6494   5.479   4.531  12.430 -0.2216  0.2409 -0.0451
 2976W        W 6495   6.653   1.196  12.096 -0.1900  0.4970  0.1717
 2977W        W 6496   3.160   6.355  11.055 -0.0333 -0.2236  0.2738
 2978W        W 6497   1.357   5.302   9.325 -0.1989  0.2036 -0.0320
 2979W        W 6498   2.735   1.893   1.193  0.1458 -0.3018  0.2840
 2980W        W 6499   7.719   7.010   0.560 -0.0353 -0.1003 -0.1218
 2981W        W 6500   4.620   3.837  11.383 -0.1999  0.0313  0.0018
 2982W        W 6501   6.883   6.169   2.514 -0.0973  0.2743 -0.0847
 2983W        W 6502   4.009   4.302   0.409  0.0555  0.0277 -0.2893
 2984W        W 6503   9.624   8.909   9.017  0.2296 -0.2792 -0.0749
 2985W        W 6504   4.258   2.531  11.192  0.1265 -0.2262  0.0634
 2986W        W 6505   4.088   2.345   2.398  0.2715 -0.0149  0.1677
 2987W        W 6506   4.337   9.413   2.909  0.3324  0.3011  0.1519
 2988W        W 6507   8.849   9.312   8.367 -0.0341 -0.2523 -0.0594
 2989W        W 6508   4.417   7.472   1.520 -0.2591  0.1892 -0.1566
 2990W        W 6509   3.500   4.398  11.435  0.0688  0.0421 -0.2809
 2991W        W 6510   0.821   4.151  10.667 -0.2497 -0.1850 -0.0018
 2992W        W 6511   5.739   5.946   1.785  0.2334 -0.0865 -0.0264
 2993W        W 6512   6.264   1.856  10.403 -0.2268  0.1819 -0.0377
 2994W        W 6513   1.591   6.626  10.347  0.2074  0.0553 -0.0880
 2995W        W 6514   5.635   1.451  11.369  0.2990 -0.1105  0.1726
 2996W        W 6515   7.135   9.256   8.000 -0.1649 -0.0823  0.0260
 2997W        W 6516   8.059   0.189  12.343 -0.0903  0.0227  0.1936
 2998W        W 6517   8.820   2.756   9.130 -0.3020  0.1283  0.2941
 2999W        W 6518   7.780   0.181  10.096 -0.1066 -0.1548 -0.0177
 3000W        W 6519   7.498   1.992  11.507  0.0354 -0.2173 -0.0192
 3001W        W 6520   0.537   8.809  11.713 -0.0154  0.0709 -0.4823
 3002W        W 6521   7.413   0.077   1.832  0.5553 -0.1924 -0.0260
 3003W        W 6522   5.325   4.611   8.914 -0.1019  0.1499  0.0727
 3004W        W 6523   6.182   3.267  10.296  0.2135 -0.2977  0.5839
 3005W        W 6524   1.643   2.164  10.514  0.1103 -0.2140 -0.2747
 3006W        W 6525   8.793   1.423   1.634  0.2043 -0.1769  0.0860
 3007W        W 6526   1.327   8.099  11.580  0.0084 -0.0518 -0.1667
 3008W        W 6527   7.099   6.485   3.504 -0.0305 -0.2120 -0.4383
 3009W        W 6528   2.339   1.429  10.415 -0.2818 -0.0356  0.0630
 3010W        W 6529   7.878   1.701  12.279  0.2807  0.0529 -0.0737
 3011W        W 6530   3.679   7.824   0.291  0.0938  0.0530  0.0909
 3012W        W 6531   8.846   1.721  11.924 -0.2111  0.3077 -0.0702
 3013W        W 6532   6.372   2.421   9.455 -0.3829 -0.1632 -0.0968
 3014W        W 6533   2.654   4.426   2.644  0.0041  0.4119 -0.1548
 3015W        W 6534   3.777   7.814  10.135 -0.3463 -0.3392 -0.0289
 3016W        W 6535   3.312   5.578   8.532 -0.2307  0.3817  0.3190
 3017W        W 6536   7.891   3.352   0.485 -0.0557  0.2117 -0.3729
 3018W        W 6537   5.031   7.938   3.735 -0.1069 -0.1526  0.0810
 3019W        W 6538   8.962   9.527   1.427  0.0714  0.0974 -0.1011
 3020W        W 6539   8.943   2.459   2.438 -0.1602 -0.0084  0.0765
 3021W        W 6540   4.506   5.211  11.027 -0.2468 -0.1740  0.1879
 3022W        W 6541   1.567   9.708  11.910  0.0706  0.2093 -0.0754
 3023W        W 6542   6.175   4.781   1.619 -0.2759  0.0492 -0.4004
 3024W        W 6543   8.800   3.202   9.359  0.0157  0.2970  0.0762
 3025W        W 6544   6.467   2.846  11.436 -0.0097  0.1523 -0.0094
 3026W        W 6545   1.108   7.159   1.468 -0.2062  0.1419  0.2832
 3027W        W 6546   9.607   8.896  12.442 -0.0363 -0.0548 -0.0167
 3028W        W 6547   7.789   1.319   2.353 -0.1008  0.1403 -0.0301
 3029W        W 6548   2.462   7.547   3.327 -0.0223  0.1020 -0.1658
 3030W        W 6549   3.522   9.381   1.769  0.0625 -0.1609 -0.1555
 3031W        W 6550   7.551   8.201   4.565  0.1321 -0.2523  0.0232
 3032W        W 6551   9.639   4.896   0.510  0.0080  0.0310  0.2487
 3033W        W 6552   7.406   7.176   2.472 -0.0992  0.0028  0.0840
 3034W        W 6553   6.723   3.237  11.428  0.1577  0.0936  0.1634
 3035W        W 6554   2.981   7.306   0.636  0.3135  0.1970  0.1894
 3036W        W 6555   6.894   6.324   2.050 -0.2602  0.1715  0.3184
 3037W        W 6556   7.458   0.246   9.290  0.0857  0.1553  0.0848
 3038W        W 6557   2.169   8.936   1.717  0.0843  0.1992  0.1444
 3039W        W 6558   8.957   4.244   0.989 -0.0556  0.0917 -0.1125
 3040W        W 6559   0.550   0.602  10.466  0.0885  0.2137  0.3850
 3041W        W 6560   4.043   2.573  10.062 -0.0768 -0.2662 -0.4166
 3042W        W 6561   9.408   7.952   2.931  0.0791  0.1182  0.1428
 3043W        W 6562   3.907   1.744   0.293 -0.0182 -0.0309  0.1163
 3044W        W 6563   5.436   5.601  10.658  0.0433 -0.0210  0.3182
 3045W        W 6564   9.054   7.941  12.237 -0.1804 -0.0909  0.0877
 3046W        W 6565   8.603   4.027   1.275  0.0661  0.2513 -0.4522
 3047W        W 6566   4.737   7.920   1.738  0.0123  0.2634  0.4862
 3048W        W 6567   9.622   9.173  10.782  0.1846  0.0619  0.0305
 3049W        W 6568   9.178   6.352   0.092  0.0577 -0.1743 -0.1129
 3050W        W 6569   2.118   5.242   4.252  0.2455 -0.1070  0.0415
 3051W        W 6570   0.381   6.353   0.498  0.1730  0.0999  0.3310
 3052W        W 6571   7.509   7.288  10.364 -0.3042 -0.2976  0.2068
 3053W        W 6572   3.581   5.434   9.669  0.1697  0.1724 -0.0120
 3054W        W 6573   1.833   6.695   1.970  0.3776  0.1669 -0.0455
 3055W        W 6574   4.867   9.464   1.128 -0.3206 -0.0527  0.2223
 3056W        W 6575   7.255   3.037   3.816  0.2743 -0.2192  0.3107
 3057W        W 6576   5.951   3.378   0.304 -0.2419 -0.1009 -0.1679
 3058W        W 6577   0.529   0.947   3.482  0.0995 -0.1471  0.4285
 3059W        W 6578   1.472   8.491   2.560  0.1768  0.0491 -0.0104
 3060W        W 6579   8.656   3.724   3.148  0.3221 -0.3081  0.0575
 3061W        W 6580   4.581   7.537   2.008  0.0192  0.0229  0.1464
 3062W        W 6581   7.050   8.166   1.601 -0.2383 -0.0266 -0.1613
 3063W        W 6582   0.514   5.361   4.449  0.0222 -0.1013 -0.0939
 3064W        W 6583   4.823   0.940  11.724  0.1384 -0.0395  0.1866
 3065W        W 6584   1.878   6.739   0.035 -0.2550 -0.0147  0.1226
 3066W        W 6585   8.000   0.395   3.864  0.1342  0.0448  0.2419
 3067W        W 6586   8.897   0.905   0.838 -0.0901  0.0132  0.0366
 3068W        W 6587   7.588   0.237   8.755  0.0281 -0.0674  0.0564
 3069W        W 6588   5.956   3.625   4.411 -0.1180  0.0027 -0.0554
 3070W        W 6589   0.902   1.746  11.460  0.0296  0.1398  0.1403
 3071W        W 6590   2.066   0.633   1.207  0.0853 -0.1209  0.0357
 3072W        W 6591   7.172   7.484   3.578  0.3148  0.3333 -0.0241
 3073W        W 6592   6.615   4.350   9.498  0.1173 -0.2034  0.2871
 3074W        W 6593   2.340   3.561  11.403  0.1557 -0.0722  0.0348
 3075W        W 6594   9.671   0.444   9.236  0.1007 -0.0018  0.2376
 3076W        W 6595   7.579   1.566   8.036 -0.3321  0.2135  0.1145
 3077W        W 6596   9.187   0.221  12.014  0.0623 -0.2936  0.0047
 3078W        W 6597   3.418   0.420   1.592  0.0564 -0.0649 -0.0773
 3079W        W 6598   9.170   4.284  10.807 -0.3180 -0.3053  0.0459
 3080W        W 6599   7.727   9.510   9.214  0.0101  0.2427 -0.1692
 3081W        W 6600   1.148   5.037   3.009 -0.1130 -0.1163  0.1257
 3082W        W 6601   5.469   2.646  12.469  0.1909 -0.1242 -0.0599
 3083W        W 6602   5.358   7.295   8.763 -0.1690  0.0894 -0.1636
 3084W        W 6603   9.073   1.558  11.513  0.4299 -0.2961  0.2688
 3085W        W 6604   7.863   9.541  10.544 -0.0589  0.2861 -0.5009
 3086W        W 6605   1.590   2.146  12.349  0.1449 -0.1026 -0.0997
 3087W        W 6606   5.809   0.224   8.882  0.0955 -0.1965 -0.0398
 3088W        W 6607   8.898   0.048   8.761 -0.0983  0.3732 -0.0805
 3089W        W 6608   8.363   4.258   9.289 -0.0415  0.2041 -0.0370
 3090W        W 6609   2.022   8.273   8.273 -0.1439 -0.1400  0.0132
 3091W        W 6610   5.435   5.338   0.078  0.3282  0.0556 -0.0284
 3092W        W 6611   5.396   6.149   9.238  0.4394 -0.1025 -0.0542
 3093W        W 6612   4.622   3.895   1.899 -0.0091  0.1690  0.2080
 3094W        W 6613   6.648   5.339  12.106 -0.3376 -0.2082  0.1674
 3095W        W 6614   0.894   2.445  12.306  0.2436  0.3616  0.1595
 3096W        W 6615   8.527   1.685   0.237  0.1067  0.0621  0.0454
 3097W        W 6616   4.688   3.021   2.290 -0.2961 -0.0815 -0.0141
 3098W        W 6617   6.367   1.385   0.333  0.0334  0.0971  0.3177
 3099W        W 6618   4.116   1.585  11.273  0.2566  0.0913 -0.1250
 3100W        W 6619   1.105   5.805  10.459  0.1221  0.1556 -0.2624
 3101W        W 6620   6.224   1.191   2.110 -0.2120 -0.2101 -0.2103
 3102W        W 6621   7.700   0.481  11.923 -0.3293  0.2527 -0.0041
 3103W        W 6622   9.713   1.544   3.214 -0.1661  0.0400  0.1980
 3104W        W 6623   4.303   9.589   9.415  0.1513 -0.0307  0.1766
 3105W        W 6624   0.947   6.289   3.247 -0.3510  0.0093  0.3074
 3106W        W 6625   7.093   8.708   9.431  0.0452  0.2742  0.1219
 3107W        W 6626   8.577   6.512   0.822 -0.2652  0.1695 -0.0034
 3108W        W 6627   2.416   3.335  11.876 -0.1271 -0.2438  0.1531
 3109W        W 6628   8.640   5.690   1.921 -0.3679  0.0491 -0.0194
 3110W        W 6629   0.584   4.019   9.336  0.0381  0.2303 -0.0839
 3111W        W 6630   6.237   5.917  10.344 -0.1077 -0.0725  0.0316
 3112W        W 6631   6.267   0.818  12.005  0.0397 -0.0902  0.0037
 3113W        W 6632   1.685   2.792   0.292 -0.2309  0.3135  0.0260
 3114W        W 6633   9.356   1.792   2.786  0.1411  0.1285 -0.1203
 3115W        W 6634   1.358   8.130  10.151  0.4007 -0.0333  0.1450
 3116W        W 6635   4.308   7.155   1.879  0.2870 -0.2198 -0.1650
 3117W        W 6636   6.377   3.741   4.136  0.1071 -0.1980  0.0026
 3118W        W 6637   8.767   3.463  10.318  0.1575  0.0392 -0.1824
 3119W        W 6638   6.451   7.261  11.014  0.2114  0.2478  0.0101
 3120W        W 6639   5.546   5.880   7.839 -0.0300 -0.0954 -0.0015
 3121W        W 6640   9.648   8.341   3.813  0.2806  0.1977  0.1711
 3122W        W 6641   5.034   1.732  10.132 -0.2907 -0.3437  0.0221
 3123W        W 6642   1.442   7.002  12.329 -0.6417  0.1533 -0.0401
 3124W        W 6643   3.329   7.710  10.230 -0.3095 -0.0049  0.1301
 3125W        W 6644   5.133   8.454   9.343  0.0089  0.0281 -0.1183
 3126W        W 6645   1.238   1.955   1.029 -0.1263  0.5213  0.0025
 3127W        W 6646   8.519   3.587  11.815 -0.0850 -0.0212 -0.2738
 3128W        W 6647   6.189   1.246   2.956 -0.3883 -0.1843  0.3535
 3129W        W 6648   4.465   9.709  11.668 -0.4165  0.0034 -0.0678
 3130W        W 6649   7.681   1.228   0.560 -0.3272 -0.0957 -0.3296
 3131W        W 6650   2.505   7.086   3.551 -0.3797  0.0896  0.2338
 3132W        W 6651   3.137   5.268   1.828 -0.2171 -0.1202  0.1471
 3133W        W 6652   0.186   9.255   0.344  0.0599 -0.1186 -0.2499
 3134W        W 6653   8.812   9.505  11.950  0.0056  0.3467  0.3704
 3135W        W 6654   4.617   4.808   2.636  0.0438 -0.3318  0.2432
 3136W        W 6655   5.327   9.150   3.987 -0.0158 -0.1462 -0.0076
 3137W        W 6656   4.583   0.944  12.200 -0.2382  0.2168  0.2317
 3138W        W 6657   0.051   8.696   9.483 -0.3101  0.2520 -0.0055
 3139W        W 6658   2.075   3.336  11.077  0.1788  0.0924 -0.1339
 3140W        W 6659   5.444   8.837  11.083 -0.1674  0.1248 -0.2170
 3141W        W 6660   9.250   3.891  11.036  0.0639 -0.2428  0.2860
 3142W        W 6661   1.448   0.863   0.102  0.3316 -0.0388  0.0587
 3143W        W 6662   8.482   6.132   1.195  0.1907  0.0096  0.1596
 3144W        W 6663   6.736   2.846   8.810 -0.0934  0.0695  0.2280
 3145W        W 6664   1.852   5.614  11.207  0.2783  0.1154 -0.2872
 3146W        W 6665   3.786   2.103   3.083 -0.0190 -0.1173  0.2016
 3147W        W 6666   9.514   7.819   1.550 -0.0961 -0.1669  0.0100
 3148W        W 6667   7.266   4.105   0.578 -0.0492 -0.2489  0.1491
 3149W        W 6668   1.898   0.723  10.234  0.2801  0.1169  0.3148
 3150W        W 6669   5.054   4.696  10.324 -0.2582  0.0852 -0.1835
 3151W        W 6670   6.502   0.348   4.447  0.1532 -0.3789 -0.2180
 3152W        W 6671   1.655   6.458   8.076  0.0966  0.0965 -0.1339
 3153W        W 6672   7.345   5.526   2.092 -0.0771 -0.0213 -0.1950
 3154W        W 6673   6.329   2.297   0.259  0.2175  0.1403 -0.0574
 3155W        W 6674   5.728   1.898   5.150 -0.2306 -0.0062  0.0720
 3156W        W 6675   6.094   8.412   1.584  0.2585  0.0043  0.2315
 3157W        W 6676   8.566   2.870   8.296  0.0268 -0.2696  0.2651
 3158W        W 6677   2.200   6.296  10.392 -0.1203  0.3742  0.1439
 3159W        W 6678   4.194   7.509   3.947 -0.0151 -0.0215 -0.0523
 3160W        W 6679   6.369   6.899   8.890 -0.0223 -0.1789 -0.3485
 3161W        W 6680   1.466   3.076  11.953  0.0502 -0.0742 -0.2261
 3162W        W 6681   5.954   2.759   8.447  0.2052 -0.1260 -0.4402
 3163W        W 6682   7.765   0.275   4.265  0.3151  0.2522  0.0530
 3164W        W 6683   8.940   7.689  11.365  0.2208  0.2125 -0.0459
 3165W        W 6684   7.439   2.799   3.003 -0.0757 -0.3318  0.1841
 3166W        W 6685   9.079   4.040   1.441 -0.2012 -0.0064 -0.0054
 3167W        W 6686   2.883   6.398  10.543 -0.1108  0.0608  0.0508
 3168W        W 6687   7.425   4.068   2.006  0.1491 -0.1276  0.2563
 3169W        W 6688   0.258   9.189   2.690 -0.3287  0.0582 -0.2169
 3170W        W 6689   2.179   4.841  12.218  0.2731  0.1928 -0.2010
 3171W        W 6690   9.457   9.676  10.113  0.3834  0.2305  0.0820
 3172W        W 6691   8.266   3.590   1.332 -0.0726 -0.2016  0.3623
 3173W        W 6692   2.131   6.077   9.925 -0.0033  0.3296  0.0764
 3174W        W 6693   2.771   0.502  12.368 -0.0127  0.3758  0.1251
 3175W        W 6694   3.036   4.550   3.011  0.3023  0.1371 -0.0811
 3176W        W 6695   8.562   6.066   9.012  0.0135  0.1503 -0.0925
 3177W        W 6696   1.612   1.867   3.483 -0.1728 -0.0930  0.0867
 3178W        W 6697   9.451   6.263   1.023 -0.0618 -0.0715  0.1156
 3179W        W 6698   0.346   5.363   3.963  0.0441 -0.3060 -0.1077
 3180W        W 6699   1.868   9.508   9.713 -0.2806  0.1682 -0.0473
 3181W        W 6700   4.386   0.427   0.576  0.0179 -0.1256 -0.0791
 3182W        W 6701   1.743   8.389  10.628 -0.2335 -0.1612  0.0263
 3183W        W 6702   8.438   1.054   7.994 -0.0961 -0.0834  0.1520
 3184W        W 6703   2.739   3.080  10.592 -0.0024  0.1235 -0.2053
 3185W        W 6704   8.330   0.763  11.791 -0.2926  0.1486 -0.2862
 3186W        W 6705   9.458   7.082  10.486 -0.0644 -0.1009 -0.2461
 3187W        W 6706   8.463   2.705  10.824 -0.4187  0.0844 -0.0166
 3188W        W 6707   4.875   4.808   2.248 -0.1587  0.3709  0.0324
 3189W        W 6708   7.344   8.282   0.716  0.0758 -0.1399 -0.3839
 3190W        W 6709   8.861   2.565   3.193  0.1234 -0.0258 -0.1153
 3191W        W 6710   4.075   6.620   0.810  0.0607 -0.3930 -0.0298
 3192W        W 6711   5.092   8.916   8.486  0.1001 -0.0672  0.0445
 3193W        W 6712   3.398   9.298  10.332 -0.1193  0.1021  0.1563
 3194W        W 6713   7.469   5.192   0.530  0.0729 -0.2139  0.2011
 3195W        W 6714   8.013   4.840   0.037  0.2359 -0.1365 -0.0185
 3196W        W 6715   2.476   7.953   1.755  0.3345 -0.0261  0.2466
 3197W        W 6716   0.024   4.014  11.391 -0.1022  0.2030 -0.0661
 3198W        W 6717   6.553   9.019   1.121 -0.2368 -0.1137  0.0342
 3199W        W 6718   7.877   5.686   4.875 -0.4448  0.3378  0.0215
 3200W        W 6719   0.002   2.836   8.997 -0.0710  0.1632  0.1235
 3201W        W 6720   1.175   5.439   0.230 -0.3162  0.1048  0.1988
 3202W        W 6721   4.067   5.073   1.901 -0.0403 -0.0853  0.2175
 3203W        W 6722   4.899   6.675   1.310  0.0430 -0.0673  0.1520
 3204W        W 6723   8.035   8.944  11.525  0.1479  0.1865  0.0664
 3205W        W 6724   5.436   8.139  10.237  0.0238  0.2735 -0.4766
 3206W        W 6725   3.455   7.219   0.910  0.3428  0.0960  0.1718
 3207W        W 6726   2.344   5.349   3.064 -0.0884 -0.0415 -0.0724
 3208W        W 6727   4.450   0.741  10.057 -0.1656  0.0643 -0.2264
 3209W        W 6728   7.992   5.197   3.445 -0.1507  0.0600 -0.1596
 3210W        W 6729   0.420   2.634  10.566 -0.1862  0.0917  0.1767
 3211W        W 6730   2.142   4.613  11.451  0.0316 -0.2852  0.0728
 3212W        W 6731   2.688   4.316   0.874 -0.1155  0.1438  0.0029
 3213W        W 6732   6.290   9.133   3.856  0.1879 -0.3202 -0.1481
 3214W        W 6733   5.394   1.939  11.307  0.0348  0.1756 -0.0808
 3215W        W 6734   9.265   1.758   1.288 -0.1716 -0.1248 -0.1070
 3216W        W 6735   5.559   1.271   9.982  0.0936 -0.3781  0.1904
 3217W        W 6736   7.611   3.208  10.945  0.1382  0.0591  0.1421
 3218W        W 6737   0.416   0.155   3.328  0.0532 -0.1438 -0.0574
 3219W        W 6738   6.911   4.860  12.309  0.2241 -0.1030  0.3434
 3220W        W 6739   6.610   8.642   0.311  0.1451 -0.0079 -0.0654
 3221W        W 6740   5.411   4.681   2.336 -0.0554  0.0939  0.2607
 3222W        W 6741   8.454   6.178  12.431  0.0095 -0.2219  0.1068
 3223W        W 6742   8.854   7.156   2.980  0.1780 -0.0210 -0.0569
 3224W        W 6743   2.325   3.414  10.189  0.2107 -0.2448  0.1199
 3225W        W 6744   3.589   0.297   9.747 -0.4895  0.0575  0.1071
 3226W        W 6745   4.506   6.838   2.188 -0.1310 -0.1230 -0.0053
 3227W        W 6746   4.955   4.130  10.678 -0.0297  0.1193 -0.1869
 3228W        W 6747   9.445   9.215   1.493  0.2604  0.1186  0.0414
 3229W        W 6748   2.568   0.648   2.699  0.0487 -0.0356 -0.1009
 3230W        W 6749   6.420   1.383   8.720  0.2548 -0.0372 -0.1908
 3231W        W 6750   8.245   0.926   2.410 -0.1128  0.0107  0.4016
 3232W        W 6751   1.531   6.022  11.164  0.0426  0.2087  0.0791
 3233W        W 6752   0.450   9.697   2.752  0.2284 -0.1907 -0.2554
 3234W        W 6753   0.002   7.774   0.308  0.0272 -0.0190  0.0751
 3235W        W 6754   4.969   2.212   9.955  0.0584 -0.1634 -0.0276
 3236W        W 6755   8.130   6.081   0.367  0.0831  0.1575  0.0139
 3237W        W 6756   9.401   1.538  11.948  0.2548 -0.0287  0.0872
 3238W        W 6757   9.668   8.660   2.691  0.0743 -0.1757 -0.1981
 3239W        W 6758   2.839   1.229  10.266  0.0030  0.1969 -0.2049
 3240W        W 6759   0.355   4.370  12.164 -0.0356  0.1041 -0.0493
 3241W        W 6760   3.811   4.336  11.814 -0.1348 -0.2391 -0.0752
 3242W        W 6761   6.120   0.610   3.461 -0.2467 -0.0995 -0.0982
 3243W        W 6762   8.593   5.901   3.393 -0.4253  0.1011  0.1269
 3244W        W 6763   7.472   7.122  11.015 -0.0059  0.3676 -0.2059
 3245W        W 6764   3.929   6.637  10.502  0.1070 -0.0733  0.0969
 3246W        W 6765   0.627   5.127   2.212 -0.0836 -0.2115  0.3172
 3247W        W 6766   5.150   0.812  11.297  0.0939 -0.0406  0.3198
 3248W        W 6767   3.412   5.977  11.253 -0.0959  0.2446 -0.0072
 3249W        W 6768   1.792   3.220  11.517 -0.0549  0.0949  0.0926
 3250W        W 6769   5.661   3.192   9.347 -0.1332 -0.1165  0.0895
 3251W        W 6770   1.187   4.913  12.265  0.2486 -0.1014  0.0115
 3252W        W 6771   0.368   5.621   1.452  0.0013  0.3305 -0.0590
 3253W        W 6772   5.752   2.492   2.864 -0.3254  0.0527  0.1315
 3254W        W 6773   3.007   3.862  11.808 -0.1062  0.1035 -0.0789
 3255W        W 6774   0.213   5.439  11.800 -0.0681  0.0447  0.1977
 3256W        W 6775   4.075   4.275   3.198  0.1439  0.2786  0.1193
 3257W        W 6776   4.627   7.859  12.410 -0.1605 -0.1404  0.1498
 3258W        W 6777   3.093   4.691  11.354 -0.0010 -0.3314  0.0610
 3259W        W 6778   8.893   5.436  10.324  0.0313 -0.1175  0.2067
 3260W        W 6779   5.706   8.554   8.716 -0.1214  0.3252 -0.0488
 3261W        W 6780   0.756   0.182   8.958 -0.0076 -0.0953 -0.1320
 3262W        W 6781   1.766   4.329  11.210 -0.0231  0.1573  0.0508
 3263W        W 6782   4.837   5.900   9.195  0.3709  0.0307  0.3190
 3264W        W 6783   9.509   0.538  10.138 -0.1029  0.1769  0.1364
 3265W        W 6784   2.218   1.943   2.679 -0.2323  0.4440  0.1619
 3266W        W 6785   9.033   7.445  12.179 -0.2128  0.1858 -0.0496
 3267W        W 6786   0.614   1.417   1.533  0.4538  0.0113 -0.2903
 3268W        W 6787   0.730   4.053  12.157 -0.1133 -0.0010 -0.4627
 3269W        W 6788   9.164   8.316   3.999  0.0853  0.1338 -0.0921
 3270W        W 6789   1.263   9.135   1.469 -0.0179 -0.1442 -0.1359
 3271W        W 6790   0.543   0.249  11.930 -0.1499  0.0574  0.1211
 3272W        W 6791   0.748   3.086   2.187  0.3562 -0.0446  0.1078
 3273W        W 6792   0.382   0.614   1.366 -0.0721  0.1082  0.0654
 3274W        W 6793   0.808   5.588   2.565  0.1060  0.0853 -0.0808
 3275W        W 6794   2.053   8.532  12.358 -0.0830  0.1745 -0.1504
 3276W        W 6795   7.697   6.343  10.376  0.0081 -0.1638 -0.1000
 3277W        W 6796   0.700   5.144   9.346  0.1870 -0.2532 -0.0598
 3278W        W 6797   3.497   4.141   2.159  0.1170 -0.1834  0.2063
 3279W        W 6798   5.140   3.307   1.571  0.3396 -0.1796  0.1076
 3280W        W 6799   7.612   9.139   8.086  0.0787  0.0574  0.2051
 3281W        W 6800   7.322   4.561   1.045 -0.5031  0.0751  0.0955
 3282W        W 6801   3.962   5.230   8.231  0.1872  0.1519  0.0325
 3283W        W 6802   7.769   2.776   1.174 -0.1457  0.2871  0.0807
 3284W        W 6803   0.687   7.458   9.611  0.1972 -0.2425  0.3147
 3285W        W 6804   8.814   1.998  11.446 -0.0041  0.0623  0.5295
 3286W        W 6805   5.961   8.025   8.631  0.0697 -0.2249  0.0867
 3287W        W 6806   1.085   4.156   1.668  0.4476  0.0190 -0.0722
 3288W        W 6807   2.825   1.720  10.490  0.0931  0.1178 -0.1739
 3289W        W 6808   0.419   2.696   2.057 -0.2098 -0.1898 -0.0563
 3290W        W 6809   5.828   2.254   0.124  0.0188  0.3010  0.0693
 3291W        W 6810   7.429   8.706   2.591 -0.0056  0.5128  0.0339
 3292W        W 6811   9.060   0.735   9.842  0.1355 -0.2741 -0.3318
 3293W        W 6812   9.684   3.837   3.458  0.1453 -0.3565  0.1648
 3294W        W 6813   9.130   2.274   8.452  0.1140  0.1467 -0.1306
 3295W        W 6814   7.369   3.696   9.585 -0.1875  0.0084  0.1893
 3296W        W 6815   7.511   1.971   2.513  0.0201 -0.1614 -0.0464
 3297W        W 6816   7.998   1.827  11.280 -0.1570  0.0689 -0.1356
 3298W        W 6817   7.708   7.358   0.920 -0.0193  0.0751 -0.4983
 3299W        W 6818   4.247   4.013   0.812 -0.1006 -0.0607 -0.0454
 3300W        W 6819   3.181   3.045   9.776 -0.1952 -0.1182 -0.1826
 3301W        W 6820   2.003   5.081   2.794 -0.0134 -0.0993  0.2033
 3302W        W 6821   4.327   2.122   8.843  0.1341 -0.0145 -0.1237
 3303W        W 6822   0.016   6.633  11.172 -0.1185  0.0600 -0.3263
 3304W        W 6823   0.835   8.249   0.560 -0.0708 -0.2514  0.0375
 3305W        W 6824   0.128   4.697   1.019 -0.2315 -0.0131 -0.2548
 3306W        W 6825   3.061   4.611   3.817 -0.2056  0.0404 -0.0415
 3307W        W 6826   9.363   5.831   0.325  0.1754 -0.1967 -0.2611
 3308W        W 6827   7.796   0.597   9.075 -0.4478 -0.0952  0.0542
 3309W        W 6828   1.174   6.475   0.452 -0.1171 -0.2928  0.1532
 3310W        W 6829   8.614   1.210  11.184  0.1297 -0.0613  0.4422
 3311W        W 6830   5.570   5.028   3.316 -0.3403  0.0623  0.0655
 3312W        W 6831   6.083   4.021   3.573  0.1996 -0.1810 -0.0317
 3313W        W 6832   6.867   3.137   9.154 -0.3957 -0.0098  0.1388
 3314W        W 6833   1.103   6.925   4.636  0.1870  0.0551 -0.1829
 3315W        W 6834   6.381   0.508  11.607  0.3666 -0.1438 -0.2519
 3316W        W 6835   3.251   2.673  11.337  0.2631 -0.0489 -0.0827
 3317W        W 6836   3.932   0.012   8.885 -0.1805  0.1154  0.0506
 3318W        W 6837   5.699   4.941   8.637  0.3932 -0.0144 -0.0304
 3319W        W 6838   5.528   0.146   2.984 -0.0846 -0.2389 -0.3149
 3320W        W 6839   7.738   3.163  11.458  0.0427  0.1673 -0.2789
 3321W        W 6840   8.673   8.676   0.119  0.2950  0.0649  0.3542
 3322W        W 6841   5.638   0.546  10.232  0.1495  0.0036 -0.1814
 3323W        W 6842   4.137   5.228  11.458 -0.0587  0.0180 -0.2639
 3324W        W 6843   8.109   6.120   8.772  0.1522  0.0741  0.0540
 3325W        W 6844   4.050   2.656   0.691  0.1244 -0.4130 -0.1014
 3326W        W 6845   6.347   4.224   0.059 -0.0829  0.1075 -0.2599
 3327W        W 6846   8.213   6.888   0.875 -0.1472 -0.1372 -0.1704
 3328W        W 6847   1.882   2.541   9.314 -0.1391  0.2418  0.1788
 3329W        W 6848   3.916   7.361   0.145  0.1362 -0.4828 -0.0885
 3330W        W 6849   5.568   6.759   0.968  0.4482 -0.0540  0.0547
 3331W        W 6850   8.434   2.481  10.276 -0.2272  0.1570 -0.0739
 3332W        W 6851   6.755   5.800   9.606  0.3249 -0.4555 -0.3655
 3333W        W 6852   4.173   2.564  10.701 -0.0180  0.0293  0.2878
 3334W        W 6853   8.581   2.453  11.470 -0.0857 -0.0614 -0.0827
 3335W        W 6854   6.487   2.877  10.375  0.1936  0.0999 -0.0833
 3336W        W 6855   5.144   5.208   9.777  0.1086  0.2554  0.1691
 3337W        W 6856   6.138   6.914  11.354 -0.1020 -0.0228  0.0523
 3338W        W 6857   7.345   4.353  10.267 -0.0658  0.2292  0.3927
 3339W        W 6858   0.927   0.379   3.522 -0.0650  0.0684  0.1269
 3340W        W 6859   9.478   5.390   8.250  0.1316  0.1741 -0.1424
 3341W        W 6860   7.098   4.733   1.498  0.0552 -0.0864 -0.1666
 3342W        W 6861   5.453   4.785   9.439  0.2288 -0.0317 -0.0949
 3343W        W 6862   5.719   8.596   1.214 -0.1458  0.0831 -0.0744
 3344W        W 6863   2.498   0.202  11.939 -0.0147  0.0008  0.0105
 3345W        W 6864   5.423   9.350   0.122 -0.3411 -0.4194 -0.0319
 3346W        W 6865   5.894   0.324   2.683  0.2080 -0.0811  0.2206
 3347W        W 6866   2.910   8.253   1.616  0.0493  0.2197 -0.1845
 3348W        W 6867   6.892   6.938   0.116  0.3543  0.1172 -0.0347
 3349W        W 6868   0.281   0.904   9.938 -0.1093  0.1475 -0.0225
 3350W        W 6869   6.798   9.456   0.174 -0.0174  0.2739  0.2061
 3351W        W 6870   7.852   3.661   9.702  0.0442 -0.0969 -0.2698
 3352W        W 6871   2.870   7.525   2.136 -0.3221  0.0789  0.1643
 3353W        W 6872   8.486   6.990   9.291  0.0760 -0.2004  0.0642
 3354W        W 6873   4.183   8.218  12.381 -0.0163 -0.1731 -0.0060
 3355W        W 6874   8.099   5.945   2.384  0.1288  0.1212 -0.0970
 3356W        W 6875   7.722   3.521   0.043 -0.3986 -0.3194  0.0686
 3357W        W 6876   5.815   6.346  12.172 -0.0706  0.2080  0.0295
 3358W        W 6877   9.173   8.520   1.272  0.0646  0.2045 -0.0094
 3359W        W 6878   5.784   7.224   8.553  0.2894  0.2153 -0.2741
 3360W        W 6879   4.524   5.909   1.355 -0.1756 -0.0154  0.0440
 3361W        W 6880   0.190   3.573  11.501 -0.1903 -0.0556 -0.1206
 3362W        W 6881   7.098   6.128   4.512  0.1943 -0.1924 -0.0046
 3363W        W 6882   3.996   0.316   9.394  0.1425  0.2227 -0.0949
 3364W        W 6883   7.541   5.661  12.195 -0.1598 -0.2675 -0.1075
 3365W        W 6884   3.567   6.392   0.459 -0.0482  0.0055 -0.2489
 3366W        W 6885   3.447   2.126   1.682  0.2167 -0.1236  0.1786
 3367W        W 6886   0.940   8.954   0.417 -0.1452  0.0222 -0.3000
 3368W        W 6887   4.768   6.140   9.985 -0.0702  0.1143  0.2618
 3369W        W 6888   3.638   5.254   1.689 -0.2330  0.0394  0.0728
 3370W        W 6889   6.808   2.216   9.648  0.2350  0.2992  0.2558
 3371W        W 6890   5.102   9.210   8.879 -0.0676  0.3392  0.1953
 3372W        W 6891   1.968   8.457   2.420  0.1487  0.0174  0.0189
 3373W        W 6892   9.554   8.526   0.292 -0.1153 -0.0989  0.0198
 3374W        W 6893   7.835   3.181   2.216  0.1547 -0.0899 -0.1405
 3375W        W 6894   9.582   4.309   9.651  0.0760 -0.3763 -0.1096
 3376W        W 6895   5.704   3.532   2.913 -0.0686  0.0618 -0.0395
 3377W        W 6896   0.555   6.732   4.892 -0.2312  0.2164 -0.2349
 3378W        W 6897   9.551   4.789   2.497  0.0506  0.0950  0.1557
 3379W        W 6898   5.207   0.467   4.930 -0.1314 -0.1997  0.2906
 3380W        W 6899   0.186   8.234   9.732 -0.1610  0.2538 -0.1648
 3381W        W 6900   7.759   8.175  12.009  0.1063 -0.0191 -0.1236
 3382W        W 6901   2.267   3.789   2.352  0.3414  0.1724  0.0723
 3383W        W 6902   3.562   1.595  11.229  0.0103  0.0169 -0.0884
 3384W        W 6903   3.294   5.346   2.767 -0.0345 -0.0432 -0.3008
 3385W        W 6904   2.835   1.838   3.440  0.0790  0.0699 -0.1255
 3386W        W 6905   5.718   7.987  10.667  0.3107  0.2337 -0.1420
 3387W        W 6906   1.707   2.072   0.384  0.3520  0.3566  0.1505
 3388W        W 6907   5.865   1.384   4.554  0.0361  0.0336  0.1214
 3389W        W 6908   6.912   6.366   8.797  0.0010 -0.1893  0.2633
 3390W        W 6909   2.370   6.689   8.873  0.1526  0.3706 -0.1024
 3391W        W 6910   5.603   6.016   8.616  0.0579 -0.0960  0.1184
 3392W        W 6911   9.148   4.480   1.674 -0.3143  0.0754 -0.4484
 3393W        W 6912   2.532   6.783  11.850 -0.0792 -0.0543 -0.0699
 3394W        W 6913   6.869   1.739  10.805  0.2345 -0.1832  0.0955
 3395W        W 6914   8.329   8.922   3.667  0.2163 -0.1101 -0.1429
 3396W        W 6915   3.660   8.352  12.226 -0.0760 -0.1501  0.1552
 3397W        W 6916   0.896   5.041  11.778 -0.0742 -0.0777  0.1122
 3398W        W 6917   6.899   3.775   0.655  0.3116 -0.2053 -0.0812
 3399W        W 6918   5.865   6.970   3.309  0.1907 -0.0688 -0.5732
 3400W        W 6919   3.139   6.389   8.336  0.2149 -0.1341 -0.0744
 3401W        W 6920   4.484   7.149  10.904  0.1159  0.1674 -0.2349
 3402W        W 6921   4.312   1.241   1.617  0.2147  0.0623  0.2498
 3403W        W 6922   3.869   8.103   3.073 -0.3554  0.1745 -0.3454
 3404W        W 6923   4.162   4.266   2.620 -0.1838 -0.0607  0.3106
 3405W        W 6924   4.713   5.702   2.689  0.2712  0.0074 -0.1176
 3406W        W 6925   0.526   8.521   1.353  0.0584 -0.2087 -0.0192
 3407W        W 6926   9.335   0.690   2.206 -0.1748  0.0556 -0.1866
 3408W        W 6927   1.950   3.931   9.186 -0.2510  0.0684  0.1686
 3409W        W 6928   5.295   5.647   3.691  0.2205 -0.5102  0.1639
 3410W        W 6929   9.170   1.660   3.324 -0.1914 -0.1305 -0.0502
 3411W        W 6930   5.846   2.102   2.545  0.0404  0.1497  0.0425
 3412W        W 6931   1.264   1.042  11.245  0.2690  0.0947 -0.1306
 3413W        W 6932   0.990   7.438   2.826 -0.1716 -0.0424  0.1899
 3414W        W 6933   7.021   4.485   1.958  0.1913 -0.0439 -0.0212
 3415W        W 6934   7.765   4.938   7.750  0.3556  0.1708 -0.3046
 3416W        W 6935   3.669   6.903   9.701 -0.0831 -0.0275 -0.0209
 3417W        W 6936   2.918   1.811   0.036  0.0455 -0.0050 -0.0445
 3418W        W 6937   6.242   1.309   4.226  0.0074 -0.1956 -0.1656
 3419W        W 6938   0.956   6.856  11.529 -0.0265  0.0439 -0.0650
 3420W        W 6939   8.990   4.891   8.192  0.0684 -0.0268  0.3616
 3421W        W 6940   7.826   1.391   9.724 -0.1052  0.1415  0.3598
 3422W        W 6941   9.466   8.595   2.153 -0.0472  0.0869  0.0500
 3423W        W 6942   8.808   1.645   1.202 -0.1538  0.3481  0.2699
 3424W        W 6943   3.834   3.476  11.323 -0.4798  0.1262 -0.1448
 3425W        W 6944   0.700   2.749  10.987 -0.0794  0.2072  0.0906
 3426W        W 6945   0.053   8.400  11.066 -0.1162  0.2793 -0.1410
 3427W        W 6946   2.290   2.579   3.104 -0.0691 -0.0514  0.6269
 3428W        W 6947   9.406   6.620  10.779  0.0112  0.0638  0.0031
 3429W        W 6948   7.439   4.155   0.039 -0.4260 -0.1119  0.0981
 3430W        W 6949   4.351   5.593   1.704 -0.0481 -0.1267 -0.2184
 3431W        W 6950   6.203   6.645  12.151  0.0505 -0.2527  0.0486
 3432W        W 6951   8.538   2.356  12.377 -0.0980 -0.2628  0.2947
 3433W        W 6952   6.762   9.260   2.374  0.1196 -0.2450 -0.0205
 3434W        W 6953   0.463   6.112   1.449  0.0591 -0.1345  0.0470
 3435W        W 6954   9.662   0.344  11.913  0.0039 -0.3887  0.2895
 3436W        W 6955   1.131   5.274  11.351  0.1625 -0.2017 -0.2805
 3437W        W 6956   9.004   1.124   0.385 -0.0454  0.0679  0.0655
 3438W        W 6957   8.010   5.534   2.039 -0.4623  0.0796 -0.0653
 3439W        W 6958   1.792   6.319  11.562  0.0790 -0.3034  0.1181
 3440W        W 6959   4.570   1.480   2.395 -0.3008 -0.0842  0.0121
 3441W        W 6960   7.919   4.275   1.768  0.0699  0.0699  0.1213
 3442W        W 6961   4.367   5.943   3.621  0.0466 -0.1854  0.3759
 3443W        W 6962   7.419   5.146   3.536 -0.4559  0.2403 -0.2679
 3444W        W 6963   2.290   4.407  11.943  0.1117 -0.0309  0.1560
 3445W        W 6964   8.370   5.245   9.498  0.0549 -0.1667  0.1418
 3446W        W 6965   4.991   3.573  10.693  0.0271 -0.2080  0.0407
 3447W        W 6966   2.649   4.943   2.975  0.0999 -0.0566  0.0855
 3448W        W 6967   7.484   5.763  11.521  0.2783  0.0870 -0.0910
 3449W        W 6968   5.760   7.656  11.800 -0.0881  0.3457 -0.2067
 3450W        W 6969   0.527   7.791   0.527 -0.1855 -0.1205 -0.1337
 3451W        W 6970   2.067   4.738   8.344  0.0702  0.0580  0.2898
 3452W        W 6971   3.105   5.028  11.801 -0.1672  0.0496 -0.1532
 3453W        W 6972   9.151   3.146   1.021 -0.2003 -0.1938 -0.0962
 3454W        W 6973   8.524   1.778   2.063  0.1566 -0.1558  0.2295
 3455W        W 6974   9.672   1.669  11.584 -0.2082  0.0870  0.0399
 3456W        W 6975   6.680   2.951  12.018  0.1059 -0.3174 -0.0328
 3457W        W 6976   1.089   3.750  10.893 -0.2137  0.0088 -0.0883
 3458W        W 6977   6.728   9.447   4.940  0.1368  0.1574 -0.0148
 3459W        W 6978   6.017   1.166   9.812  0.1145  0.2488 -0.1281
 3460W        W 6979   0.916   3.222   0.456  0.0086 -0.2579  0.1508
 3461W        W 6980   9.231   0.598   1.127  0.1552 -0.3661 -0.1222
 3462W        W 6981   7.277   2.708   0.205  0.1579 -0.0037  0.3002
 3463W        W 6982   4.301   1.080   2.185 -0.1584 -0.0003  0.3152
 3464W        W 6983   0.996   9.457   2.250  0.1210  0.4228  0.0471
 3465W        W 6984   4.923   3.578   8.810  0.2222 -0.2111 -0.0613
 3466W        W 6985   7.646   7.777   0.672  0.0576  0.0568  0.0314
 3467W        W 6986   5.377   2.539   1.921 -0.2152 -0.1233  0.0170
 3468W        W 6987   8.261   8.304  10.244  0.0617 -0.1915 -0.1801
 3469W        W 6988   6.056   9.275  11.924  0.0367 -0.0866 -0.3415
 3470W        W 6989   4.721   7.172   3.095 -0.0549 -0.1309 -0.1378
 3471W        W 6990   8.824   7.969   4.109 -0.0629 -0.2495 -0.1112
 3472W        W 6991   7.610   0.275  10.552 -0.0543  0.3122 -0.1957
 3473W        W 6992   6.186   3.424   1.263 -0.1274  0.0342 -0.2684
 3474W        W 6993   3.598   3.668   2.003  0.1380  0.2815  0.0478
 3475W        W 6994   7.417   5.358  10.616 -0.1033 -0.1656 -0.0249
 3476W        W 6995   4.426   1.114  10.588 -0.1705 -0.3591 -0.0726
 3477W        W 6996   5.956   9.174   0.502  0.0478 -0.1863  0.0724
 3478W        W 6997   3.502   1.835   0.042 -0.0558  0.5188 -0.0889
 3479W        W 6998   9.032   4.133   0.436 -0.1800  0.3702  0.4673
 3480W        W 6999   4.327   4.705   2.179  0.1184  0.0884 -0.2478
 3481W        W 7000   8.840   0.776  11.847 -0.1619 -0.1499  0.0064
 3482W        W 7001   1.373   3.150   2.877 -0.0025 -0.1768  0.0248
 3483W        W 7002   5.110   3.836  11.175  0.1049  0.1691 -0.1431
 3484W        W 7003   0.596   6.140   9.274 -0.0301 -0.0750  0.2992
 3485W        W 7004   5.934   1.166   2.533 -0.2320  0.2115 -0.0978
 3486W        W 7005   3.786   6.218   9.055  0.0329  0.0799 -0.3168
 3487W        W 7006   1.267   5.426   1.818 -0.1388  0.0828  0.1073
 3488W        W 7007   9.680   4.228  12.416  0.4519  0.0989  0.2146
 3489W        W 7008   2.807   6.607   1.050 -0.0396  0.1029 -0.1373
 3490W        W 7009   5.822   1.231   8.713 -0.2200 -0.0607 -0.0705
 3491W        W 7010   9.330   2.208   1.507  0.1590  0.0730 -0.4243
 3492W        W 7011   7.832   7.192  10.020 -0.0039  0.0156 -0.0625
 3493W        W 7012   0.986   5.950   4.513 -0.2094 -0.2169 -0.1509
 3494W        W 7013   5.570   5.038  10.896  0.1345  0.2577  0.0114
 3495W        W 7014   8.877   5.955   0.258  0.0150 -0.1351  0.2464
 3496W        W 7015   2.121   4.472   4.063  0.1318  0.2047  0.0554
 3497W        W 7016   3.001   6.077   9.709 -0.1134  0.1554 -0.0833
 3498W        W 7017   1.460   3.854   9.265  0.3326  0.2185 -0.2633
 3499W        W 7018   8.840   5.350   0.206  0.3131  0.1526 -0.2399
 3500W        W 7019   0.739   7.161   3.839  0.1220  0.2778 -0.1311
 3501W        W 7020   6.302   8.429   7.729  0.1175  0.0145  0.0903
 3502W        W 7021   5.502   3.840   2.182  0.0893 -0.2372  0.0637
 3503W        W 7022   6.485   2.557   0.647  0.0530  0.1010  0.2282
 3504W        W 7023   0.339   6.105  10.557 -0.3525 -0.2822 -0.0238
 3505W        W 7024   4.397   5.459   1.174 -0.1717  0.1817  0.1921
 3506W        W 7025   8.611   4.629   9.595  0.0863 -0.3136  0.2148
 3507W        W 7026   4.746   3.565   3.785  0.0407 -0.0181 -0.0159
 3508W        W 7027   6.437   8.261   0.593 -0.1123  0.2959  0.3291
 3509W        W 7028   8.238   2.725   2.010  0.0609 -0.1332 -0.0019
 3510W        W 7029   5.611   8.453   9.186 -0.1073 -0.1438 -0.0429
 3511W        W 7030   9.051   8.886   9.995  0.2364  0.1113 -0.0379
 3512W        W 7031   8.220   7.023   1.395 -0.1918 -0.0094 -0.2377
 3513W        W 7032   1.034   0.133  12.294  0.2235  0.0878  0.3778
 3514W        W 7033   2.966   7.823   0.777 -0.0059  0.0334 -0.2892
 3515W        W 7034   5.451   1.789   9.877  0.0112  0.0847  0.0205
 3516W        W 7035   9.216   3.648  10.188 -0.0222  0.0704  0.0295
 3517W        W 7036   3.020   9.519   1.692 -0.0700  0.0742 -0.0673
 3518W        W 7037   8.059   0.172   9.179 -0.4102 -0.3112 -0.0951
 3519W        W 7038   8.615   7.081   7.731  0.0585 -0.0692 -0.1673
 3520W        W 7039   5.028   7.385   9.721  0.1318 -0.2368  0.0283
 3521W        W 7040   5.842   6.692  10.321 -0.1807 -0.7798 -0.1358
 3522W        W 7041   6.217   4.416  10.619 -0.1593  0.2265 -0.3463
 3523W        W 7042   0.733   7.080  10.314 -0.1499  0.3507  0.1372
 3524W        W 7043   7.147   9.169  11.654 -0.0955 -0.0293 -0.1426
 3525W        W 7044   7.089   7.493   2.176 -0.0265  0.0250  0.0440
 3526W        W 7045   1.260   3.415   3.282  0.0229 -0.0513 -0.2961
 3527W        W 7046   5.436   0.579   8.295  0.1044 -0.1858 -0.1681
 3528W        W 7047   6.568   5.737   3.363 -0.3210 -0.0322 -0.3925
 3529W        W 7048   2.868   9.115  11.496 -0.0556  0.0544 -0.0784
 3530W        W 7049   5.828   9.072   9.484  0.0508 -0.1797  0.0200
 3531W        W 7050   8.398   4.983   9.875  0.2772  0.2388  0.0310
 3532W        W 7051   5.522   7.791   1.028  0.1844 -0.1206 -0.2377
 3533W        W 7052   7.744   5.667   9.671 -0.0191  0.0443 -0.3419
 3534W        W 7053   6.087   9.069   1.414  0.0244  0.1226 -0.1650
 3535W        W 7054   8.264   8.426   3.618 -0.0803 -0.1087  0.0761
 3536W        W 7055   4.336   1.605   1.223 -0.2679  0.2320 -0.0239
 3537W        W 7056   1.450   0.434  12.032 -0.2912  0.1513  0.3718
 3538W        W 7057   8.425   6.439   3.535 -0.1242 -0.1629  0.0645
 3539W        W 7058   5.663   5.015   1.996  0.1585 -0.0454 -0.2256
 3540W        W 7059   4.880   4.395   2.964  0.1131 -0.3585 -0.1786
 3541W        W 7060   2.860   9.234   9.613 -0.1795 -0.2237  0.1142
 3542W        W 7061   3.885   2.901   2.543  0.2718 -0.1289  0.3824
 3543W        W 7062   2.071   3.618   0.561  0.0497 -0.4850 -0.0865
 3544W        W 7063   6.682   4.683   1.071 -0.0762  0.1907 -0.0509
 3545W        W 7064   0.605   6.408   2.925 -0.0765 -0.0004 -0.2143
 3546W        W 7065   6.452   2.991   8.394  0.1366  0.0783  0.0466
 3547W        W 7066   0.674   8.025   2.272 -0.1131  0.1257 -0.3284
 3548W        W 7067   9.049   6.860  11.909  0.0185  0.1798  0.0129
 3549W        W 7068   5.786   0.961   3.557 -0.2931 -0.3280 -0.3922
 3550W        W 7069   7.513   2.844   9.839 -0.2431 -0.1110  0.1932
 3551W        W 7070   6.413   5.602   8.860  0.0227  0.0556 -0.0336
 3552W        W 7071   0.855   6.444  10.929 -0.1450  0.1896 -0.0696
 3553W        W 7072   8.347   7.523  12.027  0.1388 -0.0253 -0.1713
 3554W        W 7073   2.562   8.491   0.458 -0.0879  0.1462  0.0365
 3555W        W 7074   5.068   3.795   9.750 -0.1041 -0.4335 -0.0107
 3556W        W 7075   8.318   8.067  11.761 -0.0580 -0.0787 -0.2572
 3557W        W 7076   1.584   8.557   9.071  0.2025  0.0475  0.0332
 3558W        W 7077   9.276   6.647  10.222 -0.1502 -0.3083  0.0829
 3559W        W 7078   9.411   4.281   2.299 -0.1781  0.0304 -0.0078
 3560W        W 7079   6.296   8.152   1.108 -0.2376 -0.0288  0.2548
 3561W        W 7080   2.876   0.454  10.159 -0.0728 -0.5162  0.1499
 3562W        W 7081   2.208   8.382  11.893 -0.0056 -0.2738 -0.3059
 3563W        W 7082   5.360   0.659  12.150  0.4166  0.3312 -0.1541
 3564W        W 7083   6.009   3.766   2.605 -0.5101 -0.3873  0.1288
 3565W        W 7084   1.404   0.311   0.072 -0.0501 -0.5369  0.2686
 3566W        W 7085   9.211   3.347  12.180  0.0517  0.0618 -0.2789
 3567W        W 7086   8.953   7.796   0.760  0.1419 -0.0742  0.3261
 3568W        W 7087   9.204   1.941   0.715 -0.0615 -0.0588 -0.1874
 3569W        W 7088   6.940   8.764   2.555 -0.2067  0.1442 -0.0463
 3570W        W 7089   6.041   5.382   9.518 -0.0275 -0.0699  0.0682
 3571W        W 7090   3.562   2.045   9.642 -0.0564  0.4042 -0.0797
 3572W        W 7091   7.093   4.533   9.451 -0.0300 -0.4150  0.3740
 3573W        W 7092   5.143   0.457  10.121 -0.1554  0.1880  0.0567
 3574W        W 7093   1.866   1.138   9.862 -0.0731 -0.3631  0.0669
 3575W        W 7094   7.338   0.603   2.745  0.1960 -0.1236 -0.3612
 3576W        W 7095   5.304   0.492   1.374  0.3063 -0.4311  0.2141
 3577W        W 7096   6.568   3.653  11.843  0.1006  0.1365  0.2030
 3578W        W 7097   7.938   2.615  12.341  0.0955  0.1410 -0.0573
 3579W        W 7098   7.237   6.030   0.908  0.0745 -0.0452 -0.1518
 3580W        W 7099   9.613   4.459   3.592  0.1143  0.1359  0.1492
 3581W        W 7100   2.335   5.562   2.116  0.0459  0.1178  0.0499
 3582W        W 7101   5.444   0.341  11.418 -0.3012 -0.4611 -0.0848
 3583W        W 7102   2.157   3.524  12.259  0.1081 -0.2073 -0.2833
 3584W        W 7103   7.922   8.482   9.087  0.3526  0.0105  0.0890
 3585W        W 7104   5.982   8.076   3.412  0.1017  0.1425 -0.1742
 3586W        W 7105   1.609   8.729   0.413  0.0802 -0.0225 -0.0123
 3587W        W 7106   2.299   6.543  12.236  0.2163  0.0579 -0.2293
 3588W        W 7107   4.855   3.098   9.635  0.1145  0.0196  0.0021
 3589W        W 7108   9.590   8.230   2.491  0.2369  0.2740  0.1052
 3590W        W 7109   4.523   4.005   0.284  0.0744  0.0493  0.5351
 3591W        W 7110   4.963   5.623  11.359 -0.2114 -0.1302  0.2193
 3592W        W 7111   6.114   6.191   0.021  0.0797 -0.1263  0.1748
 3593W        W 7112   6.590   4.230  11.672  0.3184  0.1377 -0.2712
 3594W        W 7113   3.987   3.261   1.794  0.0375 -0.1513 -0.1524
 3595W        W 7114   5.772   5.004   2.460 -0.3861 -0.0772  0.5774
 3596W        W 7115   6.933   3.036   7.780 -0.0912  0.1615 -0.0365
 3597W        W 7116   9.691   5.716  10.420  0.0946  0.3445  0.0123
 3598W        W 7117   2.569   7.527   8.872  0.2683 -0.2881  0.0346
 3599W        W 7118   2.264   2.517   2.541 -0.0302 -0.1184  0.0008
 3600W        W 7119   8.126   0.432   1.422  0.2584  0.3588  0.1042
 3601W        W 7120   5.143   6.649   8.080 -0.2479  0.1022  0.0123
 3602W        W 7121   8.111   8.863   9.344  0.2815 -0.0552  0.2379
 3603W        W 7122   4.124   4.708   1.141  0.1210  0.0270  0.1335
 3604W        W 7123   3.967   9.473  10.805  0.1749  0.2216  0.4280
 3605W        W 7124   6.833   7.662   9.140 -0.4481 -0.0269 -0.0987
 3606W        W 7125   3.061   5.873   3.127  0.0628 -0.0581  0.2103
 3607W        W 7126   2.118   8.443   1.835 -0.0794  0.1847 -0.2028
 3608W        W 7127   5.074   7.864   8.563 -0.0246 -0.3632  0.0729
 3609W        W 7128   2.422   3.020   1.717  0.1680 -0.2275 -0.2844
 3610W        W 7129   8.054   2.117  10.317  0.2255 -0.1595 -0.0740
 3611W        W 7130   8.532   6.483   8.504  0.2924 -0.0297  0.1166
 3612W        W 7131   7.978   5.388  12.189  0.3588  0.4995 -0.0376
 3613W        W 7132   4.110   7.541  10.795  0.3191 -0.0369 -0.2318
 3614W        W 7133   6.539   0.578  10.477 -0.0756 -0.0721 -0.0417
 3615W        W 7134   7.430   7.859  11.832  0.2950  0.1617  0.0108
 3616W        W 7135   7.112   5.467   7.872  0.1985 -0.1840  0.0122
 3617W        W 7136   5.482   1.638  10.871 -0.1091  0.1379 -0.1680
 3618W        W 7137   4.124   2.419   2.863 -0.1569 -0.3124  0.0011
 3619W        W 7138   0.812   0.093  10.352  0.1067 -0.2268  0.1514
 3620W        W 7139   8.875   9.672   3.850  0.1272 -0.0812 -0.0608
 3621W        W 7140   0.126   2.791  10.924  0.1049  0.3259  0.0691
 3622W        W 7141   1.443   7.231  10.223 -0.0790  0.1986 -0.1776
 3623W        W 7142   9.319   6.599   3.319  0.0825  0.1062  0.1022
 3624W        W 7143   6.899   4.394   0.643  0.0592  0.1593 -0.0660
 3625W        W 7144   1.105   4.551   1.016  0.0457 -0.0274  0.2172
 3626W        W 7145   3.300   7.612   1.764 -0.3096  0.3314  0.0746
 3627W        W 7146   5.272   8.747   8.935  0.0564 -0.0319  0.1406
 3628W        W 7147   2.648   0.065   2.155  0.1272 -0.0403 -0.2568
 3629W        W 7148   2.570   5.879   8.902  0.0511  0.3163 -0.2060
 3630W        W 7149   6.972   7.641   1.330  0.0696 -0.4872  0.3118
 3631W        W 7150   6.389   4.045   0.590 -0.0383 -0.3342  0.0101
 3632W        W 7151   3.317   8.616   3.231  0.1759 -0.2393  0.1807
 3633W        W 7152   4.414   3.843   3.501 -0.3465  0.1256 -0.1023
 3634W        W 7153   9.341   4.399   9.048 -0.1783  0.1464  0.2090
 3635W        W 7154   8.151   3.057   1.446 -0.1256 -0.2279 -0.1372
 3636W        W 7155   2.274   1.588  11.798 -0.0369  0.2938  0.1363
 3637W        W 7156   7.932   4.424  12.005  0.0335  0.0120 -0.3211
 3638W        W 7157   4.913   4.631   9.138  0.1994  0.0515 -0.0967
 3639W        W 7158   9.321   2.459   9.960  0.2735 -0.0088 -0.0940
 3640W        W 7159   6.163   0.909   3.920  0.0833  0.1481 -0.0191
 3641W        W 7160   8.511   7.542   0.458  0.0404 -0.2075  0.4186
 3642W        W 7161   7.892   7.506  11.184 -0.1866  0.0854  0.0842
 3643W        W 7162   8.245   5.101  10.825  0.0245  0.0301 -0.0659
 3644W        W 7163   4.412   9.638   1.209 -0.2927 -0.2383  0.0342
 3645W        W 7164   6.618   1.065   9.011  0.5479 -0.0371  0.1113
 3646W        W 7165   7.229   3.256   2.880  0.0363 -0.0882 -0.0916
 3647W        W 7166   9.389   0.880   9.159  0.1215  0.3631  0.0670
 3648W        W 7167   4.267   0.083  10.651 -0.0696 -0.0220 -0.0664
 3649W        W 7168   8.463   4.534   2.697 -0.2425 -0.2756 -0.0006
 3650W        W 7169   2.140   7.232   0.341  0.1417 -0.3455 -0.2336
 3651W        W 7170   8.398   0.101   4.010 -0.1036  0.0314  0.1623
 3652W        W 7171   7.135   8.077  10.110 -0.2501  0.1647  0.0825
 3653W        W 7172   9.477   3.745  11.784  0.2116  0.0154 -0.0317
 3654W        W 7173   2.278   0.143   1.055 -0.0572  0.0993 -0.0265
 3655W        W 7174   2.512   9.012  10.424  0.1861  0.0064 -0.1226
 3656W        W 7175   4.352   6.605   7.931 -0.0581 -0.3266 -0.1526
 3657W        W 7176   5.804   6.090  10.697 -0.0606 -0.0385  0.1319
 3658W        W 7177   2.181   8.358   2.990 -0.2704 -0.2899  0.1511
 3659W        W 7178   0.174   0.899  11.021  0.0381  0.2705  0.2237
 3660W        W 7179   2.604   6.211  10.105  0.0303 -0.0134 -0.0543
 3661W        W 7180   7.603   8.021  10.905 -0.0429 -0.0957 -0.1042
 3662W        W 7181   5.010   6.610   0.169  0.1666 -0.1217 -0.2481
 3663W        W 7182   5.164   2.314   3.775 -0.3592  0.1808 -0.0234
 3664W        W 7183   4.418   3.053   0.826 -0.3391 -0.2274 -0.0889
 3665W        W 7184   5.507   0.024   3.470 -0.0586  0.2674 -0.0304
 3666W        W 7185   6.665   6.878   0.596  0.0995 -0.0477 -0.0697
 3667W        W 7186   5.723   7.635   8.816 -0.1835 -0.1165 -0.0242
 3668W        W 7187   0.415   1.540   0.512 -0.0362 -0.1348 -0.2953
 3669W        W 7188   2.567   0.756  10.437 -0.0858  0.2691 -0.2606
 3670W        W 7189   3.944   8.679  11.204  0.1325  0.0723 -0.0937
 3671W        W 7190   7.215   1.257  10.848  0.1139  0.2491  0.1053
 3672W        W 7191   2.736   1.734   9.880 -0.1823 -0.1618  0.1527
 3673W        W 7192   2.315   4.480   8.790 -0.0151  0.1447 -0.1323
 3674W        W 7193   3.168   0.735   2.685  0.0065  0.0494 -0.1333
 3675W        W 7194   8.522   2.280   2.254  0.1938 -0.3761  0.0049
 3676W        W 7195   5.314   7.317   2.557  0.0389  0.1857 -0.1048
 3677W        W 7196   0.027   7.911   0.825 -0.0110 -0.1486  0.1303
 3678W        W 7197   2.146   8.644   9.260  0.2194 -0.0406  0.1457
 3679W        W 7198   0.822   2.884   1.768  0.1788 -0.0479 -0.0760
 3680W        W 7199   0.980   4.768  10.484 -0.1588  0.2120 -0.0299
 3681W        W 7200   3.907   8.021  10.622 -0.1853 -0.1341 -0.0290
 3682W        W 7201   2.442   4.124   3.597  0.1928  0.2149 -0.1990
 3683W        W 7202   4.872   0.481   0.723 -0.0100  0.0090 -0.0483
 3684W        W 7203   3.012   0.818   4.068  0.0789  0.1453  0.2830
 3685W        W 7204   8.008   6.871   1.842  0.1410 -0.3092 -0.1929
 3686W        W 7205   4.766   6.618   9.888 -0.0756  0.0387 -0.0284
 3687W        W 7206   8.967   0.930   2.923  0.2460  0.0284 -0.2607
 3688W        W 7207   5.662   4.779   1.281  0.1017 -0.0232  0.0183
 3689W        W 7208   3.702   4.705   1.890 -0.1071  0.3428 -0.3590
 3690W        W 7209   4.911   3.413  11.389 -0.0190  0.3787  0.3552
 3691W        W 7210   0.495   9.710  12.414  0.0075 -0.1540 -0.2064
 3692W        W 7211   6.067   1.258   0.782  0.1842  0.2062 -0.3872
 3693W        W 7212   3.281   2.756   2.862 -0.1610 -0.2109 -0.1266
 3694W        W 7213   9.459   5.538   1.366  0.0358 -0.0544 -0.1071
 3695W        W 7214   7.239   8.507  11.110 -0.0819 -0.1278  0.1935
 3696W        W 7215   5.619   3.229  11.845 -0.2622 -0.2322 -0.0709
 3697W        W 7216   5.308   9.166  10.284  0.1752 -0.3174 -0.2397
 3698W        W 7217   7.184   1.585  10.281 -0.2572 -0.0911  0.1093
 3699W        W 7218   3.679   4.237  10.611 -0.1857  0.0712 -0.2418
 3700W        W 7219   3.456   3.305  12.091 -0.0008 -0.0938 -0.1472
 3701W        W 7220   0.689   8.578   8.386  0.0570  0.4194  0.1031
 3702W        W 7221   2.477   1.957   9.224 -0.0592 -0.1519  0.0267
 3703W        W 7222   1.715   7.023   3.503 -0.1654 -0.0200  0.0462
 3704W        W 7223   4.907   7.837  10.884 -0.1763 -0.0593  0.1749
 3705W        W 7224   9.077   4.719  12.316  0.0348  0.1015  0.1456
 3706W        W 7225   0.611   8.619   0.878  0.0369 -0.0560  0.2143
 3707W        W 7226   4.686   4.921   1.091 -0.1405  0.4868 -0.1970
 3708W        W 7227   0.977   6.093   8.487 -0.1612 -0.2293  0.0492
 3709W        W 7228   6.938   8.020   0.541  0.0344 -0.0771  0.0289
 3710W        W 7229   0.132   6.380   9.217 -0.1357  0.1128  0.2106
 3711W        W 7230   1.347   2.551   3.660  0.2591 -0.2072  0.4026
 3712W        W 7231   4.155   6.078   1.634 -0.1619  0.1546 -0.2543
 3713W        W 7232   8.487   9.007   4.184  0.2219 -0.2330 -0.0237
 3714W        W 7233   4.064   4.077   9.704  0.1735 -0.2343 -0.1029
 3715W        W 7234   4.786   1.153   9.861  0.1841 -0.0198  0.1406
 3716W        W 7235   0.567   7.205  11.545 -0.1317 -0.1393 -0.1034
 3717W        W 7236   5.539   8.466  12.484  0.3710  0.3928 -0.2163
 3718W        W 7237   4.997   5.991  11.848 -0.0910 -0.3412 -0.3434
 3719W        W 7238   1.829   1.818  10.221 -0.0021  0.3327 -0.0196
 3720W        W 7239   4.243   6.177   9.842  0.2008 -0.0678  0.1877
 3721W        W 7240   1.760   4.433  11.757 -0.0113  0.2447 -0.3736
 3722W        W 7241   3.151   3.626   9.377  0.0726 -0.4019 -0.1040
 3723W        W 7242   7.139   6.912   3.269 -0.3549 -0.0121  0.0660
 3724W        W 7243   7.323   5.991   9.120 -0.3457  0.0009 -0.0195
 3725W        W 7244   4.521   6.736  10.641  0.0677 -0.2526  0.4645
 3726W        W 7245   4.556   0.355   1.697 -0.2698  0.1429  0.0958
 3727W        W 7246   4.206   0.888  11.201 -0.1184 -0.2942  0.2530
 3728W        W 7247   5.816   3.309   8.879 -0.3162  0.1310 -0.2496
 3729W        W 7248   2.782   6.850   0.577 -0.3806  0.1555 -0.1434
 3730W        W 7249   9.165   8.268   3.496 -0.2042  0.3172  0.0794
 3731W        W 7250   1.032   8.776  11.196 -0.1000  0.2304 -0.2142
 3732W        W 7251   3.103   0.570   1.149 -0.1879  0.0735  0.0157
 3733W        W 7252   2.378   3.365   1.291 -0.0633  0.0905 -0.2182
 3734W        W 7253   5.469   8.950  12.290 -0.0064  0.1272  0.0039
 3735W        W 7254   7.268   6.331  11.364 -0.1555 -0.1604  0.0791
 3736W        W 7255   6.334   3.195   9.029 -0.2708 -0.1041  0.1860
 3737W        W 7256   4.997   5.096   9.282  0.0653  0.1401 -0.1583
 3738W        W 7257   1.170   2.802  11.106  0.2101  0.0909  0.1521
 3739W        W 7258   5.434   1.185   2.536 -0.0116 -0.1004 -0.1572
 3740W        W 7259   7.750   6.990   8.662  0.5202 -0.2301  0.3313
 3741W        W 7260   5.834   2.999   3.797  0.2191 -0.0034  0.1146
 3742W        W 7261   7.242   1.065   1.485  0.3328 -0.4490  0.1676
 3743W        W 7262   4.089   6.560   2.439 -0.1114  0.0952  0.1558
 3744W        W 7263   8.278   3.155   4.381  0.4724 -0.0850  0.3602
 3745W        W 7264   1.757   0.812  12.173  0.0028  0.1088  0.0669
 3746W        W 7265   6.507   0.823  12.440  0.0464  0.1098 -0.1391
 3747W        W 7266   9.183   6.811   2.454 -0.0686 -0.3480  0.1939
 3748W        W 7267   1.646   8.284   1.991 -0.0294  0.0892 -0.1815
 3749W        W 7268   8.982   8.901   4.428 -0.1187  0.4765  0.0962
 3750W        W 7269   6.884   7.028   1.542 -0.0418 -0.0369 -0.2035
 3751W        W 7270   1.619   7.693   0.785  0.0306 -0.0332  0.1406
 3752W        W 7271   5.943   3.464  10.675  0.2043  0.0088 -0.1625
 3753W        W 7272   6.630   8.998  10.810  0.0494  0.0918 -0.0634
 3754W        W 7273   8.471   7.429   3.293  0.1561  0.1332  0.1811
 3755W        W 7274   5.969   6.042   4.839 -0.2195  0.2804 -0.2626
 3756W        W 7275   2.727   2.662   2.885 -0.1245  0.0415 -0.1070
 3757W        W 7276   8.271   3.198  11.620 -0.4640  0.1959  0.3434
 3758W        W 7277   7.707   9.555   0.082  0.1171 -0.1919  0.3409
 3759W        W 7278   0.806   8.025   1.504  0.1176 -0.0427 -0.1118
 3760W        W 7279   0.852   9.534  10.972  0.4442 -0.1225 -0.1608
 3761W        W 7280   6.862   4.193   1.161  0.0316 -0.0269 -0.0094
 3762W        W 7281   5.994   8.605   9.778  0.2682  0.3259 -0.2193
 3763W        W 7282   2.308   1.657   1.499  0.0722 -0.4145  0.1011
 3764W        W 7283   1.835   5.604  10.042 -0.2908 -0.3106  0.0008
 3765W        W 7284   6.410   9.385  11.051 -0.1540  0.2824  0.1217
 3766W        W 7285   8.773   1.316   3.266  0.0937  0.0225 -0.3675
 3767W        W 7286   0.261   6.584   8.204  0.1302  0.1051 -0.2428
 3768W        W 7287   0.265   2.411   3.146  0.0372 -0.1034 -0.1660
 3769W        W 7288   0.726   8.295   9.731 -0.3313  0.0335 -0.2193
 3770W        W 7289   5.030   1.500   2.770  0.2435  0.1825  0.2479
 3771W        W 7290   4.211   5.825  11.801 -0.3141 -0.0021  0.0104
 3772W        W 7291   3.388   6.117   9.303 -0.1562 -0.0140 -0.1211
 3773W        W 7292   4.691   7.083   0.149  0.0818 -0.0122 -0.0127
 3774W        W 7293   3.758   5.316   2.843  0.1132 -0.0757 -0.0654
 3775W        W 7294   6.880   2.345   1.785  0.0893  0.0586  0.0219
 3776W        W 7295   8.307   4.077   3.089 -0.0112  0.0870  0.1922
 3777W        W 7296   1.858   6.854   9.117  0.0962 -0.0473  0.1469
 3778W        W 7297   1.605   5.244  11.583 -0.2130  0.3951 -0.0664
 3779W        W 7298   8.049   2.095   3.047 -0.1249  0.1017  0.1064
 3780W        W 7299   6.158   5.178   8.746 -0.0628  0.0034  0.1187
 3781W        W 7300   0.844   0.109   9.586  0.1726 -0.0078  0.1913
 3782W        W 7301   4.600   7.683   0.667  0.1058  0.2991 -0.0705
 3783W        W 7302   7.328   8.774   2.038  0.0115 -0.0622  0.0005
 3784W        W 7303   0.098   5.059   2.142  0.0220 -0.2205 -0.2853
 3785W        W 7304   7.627   2.270   9.130  0.1322  0.1621 -0.4419
 3786W        W 7305   1.819   8.046   1.522 -0.0380  0.2926  0.3529
 3787W        W 7306   7.117   0.374   1.397 -0.1642  0.0913 -0.1894
 3788W        W 7307   8.067   4.859   9.361 -0.0963 -0.0729 -0.1156
 3789W        W 7308   9.641   1.328   1.026  0.0472  0.1957 -0.0186
 3790W        W 7309   2.619   3.417   2.458  0.0348  0.0705  0.2001
 3791W        W 7310   0.496   6.636   1.276 -0.3162  0.1318 -0.4577
 3792W        W 7311   6.658   5.405  11.432  0.4171  0.0095 -0.0119
 3793W        W 7312   0.652   5.356   7.922 -0.0353 -0.1248 -0.0510
 3794W        W 7313   2.014   5.200   2.298  0.0141  0.1558  0.0776
 3795W        W 7314   7.402   3.563   0.704 -0.0450 -0.1056  0.2217
 3796W        W 7315   7.462   8.353  11.599 -0.3575 -0.0210 -0.2819
 3797W        W 7316   5.049   2.807  10.013  0.0758 -0.1655  0.1142
 3798W        W 7317   7.419   2.504  10.238 -0.1277  0.2718  0.1371
 3799W        W 7318   5.437   8.117  11.697  0.0372 -0.0438 -0.2273
 3800W        W 7319   5.028   7.703   2.560 -0.3440 -0.0003  0.0916
 3801W        W 7320   1.073   9.324   9.256  0.1200  0.0870 -0.1907
 3802W        W 7321   0.534   5.766  11.999 -0.0917 -0.1277 -0.0261
 3803W        W 7322   8.602   2.403   2.793  0.1728  0.1511  0.1684
 3804W        W 7323   2.770   8.282  12.205  0.0645  0.0901 -0.1708
 3805W        W 7324   0.774   6.642  12.258 -0.2436 -0.0520  0.0022
 3806W        W 7325   5.850   2.224   4.064  0.0671  0.0895  0.1079
 3807W        W 7326   7.700   9.095  12.221 -0.0880  0.1728 -0.2168
 3808W        W 7327   6.657   4.011  12.175 -0.0693  0.2176  0.1539
 3809W        W 7328   3.126   0.267  12.065 -0.0154 -0.0326 -0.3274
 3810W        W 7329   9.574   6.552   9.826  0.2001  0.3273 -0.0713
 3811W        W 7330   5.800   6.868   8.973  0.1350  0.1568  0.2954
 3812W        W 7331   9.053   1.435   3.788 -0.0676 -0.2864  0.0979
 3813W        W 7332   6.694   8.645   1.431  0.3422 -0.2965  0.0270
 3814W        W 7333   6.827   7.858   1.944 -0.3677 -0.1139  0.0759
 3815W        W 7334   6.013   0.892   0.335  0.0153  0.0290 -0.3266
 3816W        W 7335   5.950   8.467   0.713  0.0430 -0.3121 -0.1103
 3817W        W 7336   5.411   5.525  10.074  0.0260 -0.0392 -0.1982
 3818W        W 7337   5.849   2.771   4.244 -0.0272  0.0506 -0.0328
 3819W        W 7338   3.138   1.288  11.210 -0.1108  0.2784  0.2150
 3820W        W 7339   5.749   8.040   9.851 -0.0871 -0.2274  0.0985
 3821W        W 7340   1.654   4.712  12.193  0.3543 -0.1104 -0.1321
 3822W        W 7341   9.345   4.169   3.285 -0.1038 -0.1216 -0.1276
 3823W        W 7342   5.922   8.196   3.982  0.1992  0.0877 -0.0074
 3824W        W 7343   7.549   7.407   4.447  0.1542  0.1273 -0.2228
 3825W        W 7344   2.565   7.912   2.907 -0.1374 -0.2724 -0.0381
 3826W        W 7345   0.721   5.733  12.439 -0.1601  0.0652 -0.1525
 3827W        W 7346   7.912   0.727   2.676 -0.1794  0.1277 -0.1702
 3828W        W 7347   3.228   7.065   9.497  0.2823  0.2340  0.1835
 3829W        W 7348   6.190   5.911  10.963 -0.2705  0.1262  0.2943
 3830W        W 7349   8.106   6.116   3.194  0.4262  0.0919  0.1909
 3831W        W 7350   0.144   8.081   2.146  0.1432  0.1066  0.0741
 3832W        W 7351   8.643   9.499   4.492  0.3322  0.1194 -0.1633
 3833W        W 7352   2.373   3.258   0.809 -0.3018  0.0770  0.1783
 3834W        W 7353   7.657   5.149   1.878  0.1358 -0.2418  0.0844
 3835W        W 7354   3.507   2.388  10.065 -0.3054 -0.3337 -0.2698
 3836W        W 7355   8.466   2.733   2.428  0.1997 -0.1368  0.0703
 3837W        W 7356   4.921   7.863   4.263 -0.0048  0.3001  0.2500
 3838W        W 7357   0.782   5.295   3.218  0.0109  0.1274  0.1942
 3839W        W 7358   0.171   6.670   2.216  0.2034 -0.1037 -0.1478
 3840W        W 7359   6.695   5.884   2.911 -0.2276 -0.0894 -0.0990
 3841W        W 7360   6.772   9.652   4.467 -0.1976 -0.3835  0.0117
 3842W        W 7361   2.784   0.152   1.176  0.1840 -0.0378 -0.0081
 3843W        W 7362   4.607   0.468   2.350 -0.0532 -0.0049 -0.1668
 3844W        W 7363   1.786   0.065   1.106 -0.2341 -0.1950  0.2727
 3845W        W 7364   8.846   9.086   9.487  0.1402 -0.1437  0.0989
 3846W        W 7365   4.594   2.570  12.217  0.0817  0.5063 -0.1702
 3847W        W 7366   7.872   2.566   3.059  0.1191 -0.0892  0.2479
 3848W        W 7367   1.423   7.304   1.879 -0.2096  0.0161  0.0352
 3849W        W 7368   4.986   3.976   3.305  0.1611  0.0442 -0.3510
 3850W        W 7369   4.591   7.057   4.104  0.0741  0.2506  0.1231
 3851W        W 7370   4.923   5.263   2.618 -0.3718 -0.1467  0.3413
 3852W        W 7371   0.567   0.520  12.360  0.1904 -0.1253  0.0137
 3853W        W 7372   1.778   1.344  11.116 -0.0352  0.1492  0.1988
 3854W        W 7373   3.763   4.078   8.730  0.6297  0.0172 -0.0996
 3855W        W 7374   3.548   2.404  12.411 -0.3130 -0.3019  0.0990
 3856W        W 7375   0.618   8.791  10.397  0.2836  0.1742 -0.1603
 3857W        W 7376   9.691   8.263   1.287  0.0712  0.0100 -0.2992
 3858W        W 7377   6.172   5.751   7.766 -0.0500 -0.2139 -0.2987
 3859W        W 7378   3.861   1.123   2.394  0.2422 -0.1161  0.3714
 3860W        W 7379   6.015   6.452   8.911 -0.0196  0.1049 -0.0707
 3861W        W 7380   8.902   2.250  10.980 -0.1372  0.2753  0.0443
 3862W        W 7381   0.381   5.707   2.320 -0.2354  0.0309 -0.1353
 3863W        W 7382   9.299   1.050   2.587 -0.1961  0.5001  0.1977
 3864W        W 7383   8.099   1.572   0.442  0.2039  0.0919  0.1544
 3865W        W 7384   1.968   7.694   9.609  0.0750  0.0530 -0.3134
 3866W        W 7385   0.463   2.466   1.601 -0.1845 -0.0576  0.3469
 3867W        W 7386   3.855   1.924   2.581  0.0234  0.2550 -0.0592
 3868W        W 7387   0.336   6.106   3.227  0.0435  0.1234  0.1249
 3869W        W 7388   3.212   0.874  12.151  0.3101  0.0651  0.1434
 3870W        W 7389   6.463   8.475  11.881  0.1221 -0.2592 -0.0699
 3871W        W 7390   4.246   6.007  10.680  0.0608  0.3809  0.2246
 3872W        W 7391   2.838   0.285   1.750 -0.0439  0.1282 -0.0105
 3873W        W 7392   6.422   0.636   9.170 -0.2070 -0.0678  0.2342
 3874W        W 7393   3.442   0.578   3.121  0.0875  0.1412 -0.3978
 3875W        W 7394   7.777   5.812   0.921 -0.0428  0.0895 -0.0318
 3876W        W 7395   2.052   5.150  11.186 -0.0847 -0.2488 -0.0750
 3877W        W 7396   2.631   3.162   2.901 -0.0396  0.0539  0.2113
 3878W        W 7397   9.618   2.290   2.818  0.1916 -0.3240  0.0293
 3879W        W 7398   7.380   7.826   9.054  0.2854  0.0803  0.1708
 3880W        W 7399   6.305   3.394   2.757  0.0102 -0.2175  0.2825
 3881W        W 7400   4.527   2.510   1.686  0.0914 -0.0171  0.0845
 3882W        W 7401   0.501   1.097  10.654  0.0341 -0.0034 -0.1125
 3883W        W 7402   0.016   7.845   3.320  0.0177 -0.0245 -0.3484
 3884W        W 7403   7.640   8.934   9.264 -0.1268 -0.1872  0.0739
 3885W        W 7404   2.201   1.652  11.259 -0.3127 -0.1953 -0.1760
 3886W        W 7405   9.524   6.619   1.861 -0.0527  0.1883  0.1720
 3887W        W 7406   3.596   2.975   0.538  0.1988 -0.3142  0.1042
 3888W        W 7407   5.769   2.016   3.080  0.0596 -0.2060 -0.1728
 3889W        W 7408   1.687   3.685   2.362  0.1220  0.1277 -0.1761
 3890W        W 7409   3.411   2.908  10.827  0.1458  0.1686  0.0947
 3891W        W 7410   1.776   9.456  10.880 -0.0194  0.0815  0.0297
 3892W        W 7411   1.360   6.464   9.921 -0.0538 -0.0054 -0.1636
 3893W        W 7412   8.470   0.416   2.471  0.1119 -0.3054  0.0608
 3894W        W 7413   8.330   5.216   9.013 -0.4001  0.1073  0.0013
 3895W        W 7414   5.858   2.187  10.071  0.2987  0.1404  0.3720
 3896W        W 7415   8.267   2.416   3.381 -0.3187 -0.3537  0.1105
 3897W        W 7416   1.701   0.867  11.128  0.3141  0.2494  0.3751
 3898W        W 7417   6.485   7.211  11.616 -0.1401  0.0598 -0.1213
 3899W        W 7418   1.092   6.776   4.109 -0.1252 -0.0565  0.1424
 3900W        W 7419   7.081   6.535   0.862 -0.0882 -0.1208 -0.1873
 3901W        W 7420   8.851   7.921   8.811  0.0915  0.1217  0.0591
 3902W        W 7421   3.141   7.320   8.431 -0.0728 -0.0628  0.0624
 3903W        W 7422   1.056   5.083  10.140 -0.0620 -0.0981  0.4432
 3904W        W 7423   6.498   6.247   7.689 -0.2420 -0.1654 -0.0920
 3905W        W 7424   2.935   8.317   0.753 -0.1161  0.1739 -0.3337
 3906W        W 7425   5.969   0.339  11.378 -0.2767  0.0909  0.0147
 3907W        W 7426   0.289   4.897   9.145 -0.2691 -0.0009 -0.2379
 3908W        W 7427   1.709   5.707   9.471 -0.3527 -0.0795 -0.2604
 3909W        W 7428   5.508   7.179   3.004  0.4110 -0.0285 -0.1745
 3910W        W 7429   4.960   0.489  12.310  0.2549  0.0241 -0.0705
 3911W        W 7430   5.428   2.984   3.097 -0.4642 -0.0980 -0.0011
 3912W        W 7431   3.848   6.017   0.624 -0.1348  0.1941 -0.2385
 3913W        W 7432   4.127   3.660   3.820 -0.1490  0.0896 -0.1021
 3914W        W 7433   6.176   3.540   2.199 -0.0346  0.1316 -0.0828
 3915W        W 7434   9.262   5.698   2.982 -0.2566  0.0713 -0.2320
 3916W        W 7435   6.478   6.249   9.085  0.4580 -0.2201  0.0296
 3917W        W 7436   9.413   6.150  11.623  0.0647  0.1818  0.0684
 3918W        W 7437   8.465   6.416   2.851  0.2115  0.0129 -0.1216
 3919W        W 7438   5.782   3.988  10.597 -0.2174  0.0885 -0.3128
 3920W        W 7439   6.184   2.265   3.092 -0.1867  0.2365 -0.1119
 3921W        W 7440   1.187   2.648   3.011  0.0487  0.0868 -0.0755
 3922W        W 7441   8.262   1.442   2.374 -0.4495 -0.1619  0.2165
 3923W        W 7442   9.090   6.750   0.994  0.0562  0.2104 -0.0995
 3924W        W 7443   6.561   1.557   3.099 -0.2322  0.3673  0.0352
 3925W        W 7444   6.483   2.885   7.896  0.5185 -0.1839  0.0179
 3926W        W 7445   7.791   4.385   2.219 -0.0222  0.0984 -0.4385
 3927W        W 7446   9.432   3.900   9.142  0.1746 -0.1634  0.2171
 3928W        W 7447   7.190   9.277   1.874  0.0735 -0.0167 -0.1865
 3929W        W 7448   4.605   6.237   0.151 -0.0073 -0.0376 -0.1200
 3930W        W 7449   8.623   0.531  10.373 -0.0867  0.4610 -0.0864
 3931W        W 7450   6.251   2.264  11.379  0.4108 -0.1962 -0.2488
 3932W        W 7451   4.075   2.386   3.417 -0.3290  0.3884  0.2360
 3933W        W 7452   6.397   8.535  10.641 -0.0948  0.0352  0.4151
 3934W        W 7453   4.462   5.532  10.630 -0.2711 -0.1638  0.0550
 3935W        W 7454   4.881   3.779   9.312 -0.0062 -0.0749 -0.1860
 3936W        W 7455   6.784   7.982   9.660 -0.2446 -0.1454  0.3928
 3937W        W 7456   3.673   2.478   1.440 -0.3206  0.2761  0.0430
 3938W        W 7457   1.538   6.728   3.895  0.1295  0.2618  0.1503
 3939W        W 7458   1.965   1.832  12.367 -0.3040  0.0295 -0.1216
 3940W        W 7459   6.378   6.509   8.557 -0.1156  0.1812 -0.3840
 3941W        W 7460   4.785   7.267   2.604 -0.0699  0.1726  0.1355
 3942W        W 7461   5.525   7.017   9.900 -0.1617 -0.1269  0.1131
 3943W        W 7462   3.749   4.919   9.697 -0.0871 -0.0530  0.0436
 3944W        W 7463   7.294   0.266  11.499  0.1583  0.2297  0.0018
 3945W        W 7464   4.323   3.724   9.259  0.0178 -0.1026 -0.0865
 3946W        W 7465   1.047   6.938   0.156  0.0900 -0.0172 -0.0362
 3947W        W 7466   0.608   6.634   9.212 -0.1455 -0.0876 -0.0635
 3948W        W 7467   8.892   6.222  12.186 -0.0061  0.0190  0.0317
 3949W        W 7468   7.537   7.720  12.281 -0.1245  0.0779 -0.2259
 3950W        W 7469   7.164   5.809  10.363 -0.0072  0.1230 -0.4184
 3951W        W 7470   5.405   3.456  11.319 -0.1017  0.3189 -0.0169
 3952W        W 7471   6.812   7.709   8.175  0.1793 -0.1865 -0.0531
 3953W        W 7472   2.255   8.251  11.380 -0.1658  0.2491 -0.1702
 3954W        W 7473   7.217   5.191  12.123  0.1376 -0.2251 -0.0504
 3955W        W 7474   8.456   5.647   8.098  0.1324  0.1489  0.0257
 3956W        W 7475   5.555   5.219   3.826  0.0998 -0.1019  0.1482
 3957W        W 7476   1.415   6.040   0.737  0.3287  0.0954  0.1342
 3958W        W 7477   8.051   8.871   2.630 -0.2211  0.2406  0.2231
 3959W        W 7478   4.346   4.999  12.399  0.0232 -0.1652 -0.2087
 3960W        W 7479   8.124   1.343  11.311 -0.0271  0.2704 -0.3645
 3961W        W 7480   1.943   5.150   9.591 -0.0403 -0.1652  0.1795
 3962W        W 7481   8.855   5.447   3.260  0.1259  0.1913 -0.1035
 3963W        W 7482   5.410   4.715   9.981  0.1069 -0.2174 -0.1845
 3964W        W 7483   4.326   7.979   0.291 -0.3423  0.2065  0.2371
 3965W        W 7484   3.894   7.929   4.035 -0.4455  0.1752  0.0513
 3966W        W 7485   0.602   4.451   0.883  0.0050  0.1344  0.1505
 3967W        W 7486   6.770   9.428   2.810 -0.0299 -0.1237 -0.1485
 3968W        W 7487   6.442   8.033  10.908  0.1218  0.0197  0.1383
 3969W        W 7488   5.114   6.866   8.937  0.1266 -0.0381  0.1138
 3970W        W 7489   4.996   5.924   3.296 -0.0018  0.0325 -0.0028
 3971W        W 7490   1.871   7.247   2.176 -0.1656 -0.1366  0.0429
 3972W        W 7491   5.167   8.775  10.614 -0.4270  0.2420  0.1338
 3973W        W 7492   8.207   6.217  10.399 -0.0069  0.3328  0.0167
 3974W        W 7493   1.868   6.354   1.432 -0.0977 -0.0511  0.1599
 3975W        W 7494   6.162   0.475  10.079  0.0958 -0.2121 -0.2636
 3976W        W 7495   2.123   8.848   3.283  0.1204  0.2379 -0.0591
 3977W        W 7496   5.153   1.420   1.749  0.1397  0.0663 -0.1644
 3978W        W 7497   2.848   0.029  11.608  0.0531 -0.0744 -0.2669
 3979W        W 7498   3.390   8.070   1.557  0.0424  0.0289 -0.0134
 3980W        W 7499   6.980   9.057   8.845 -0.0952  0.0276  0.2308
 3981W        W 7500   1.716   2.663  12.185 -0.2199  0.1303 -0.3381
 3982W        W 7501   0.873   3.782   3.273  0.0132 -0.2324  0.3737
 3983W        W 7502   1.868   4.735   1.607  0.1605  0.0359 -0.1681
 3984W        W 7503   4.847   4.204   9.966 -0.2415  0.1227 -0.0750
 3985W        W 7504   7.892   5.756  11.191  0.0224 -0.1106 -0.1152
 3986W        W 7505   5.377   3.815  10.179  0.0448 -0.0915 -0.1858
 3987W        W 7506   4.526   1.360   3.527 -0.0043 -0.0966 -0.1429
 3988W        W 7507   4.273   9.682   1.729  0.0136 -0.1745  0.1952
 3989W        W 7508   0.023   8.945   1.851  0.0988  0.0628  0.1347
 3990W        W 7509   9.061   2.738   9.634  0.1822 -0.4115  0.3049
 3991W        W 7510   2.237   9.376   2.790  0.0044  0.0719 -0.0662
 3992W        W 7511   1.122   3.550   9.052 -0.0778  0.0999  0.0185
 3993W        W 7512   5.447   4.443   0.937 -0.3607 -0.3734  0.0266
 3994W        W 7513   1.489   7.497  10.686  0.0071 -0.0904 -0.0260
 3995W        W 7514   4.636   7.514  10.581 -0.1708  0.0949  0.0946
 3996W        W 7515   3.612   4.113   0.061  0.6747 -0.0808  0.1541
 3997W        W 7516   8.293   4.048  11.967 -0.1399 -0.2215 -0.1898
 3998W        W 7517   2.019   8.063   1.088 -0.4103  0.0803  0.2205
 3999W        W 7518   2.419   4.554  10.617 -0.1593 -0.1169 -0.0310
 4000W        W 7519   6.278   7.781   8.959  0.3244  0.1238  0.0624
 4001W        W 7520   4.676   1.496  10.367 -0.2845  0.1046 -0.0526
 4002W        W 7521   3.618   1.440   3.634 -0.1755 -0.1209 -0.2038
 4003W        W 7522   8.496   8.773   9.771  0.0938  0.2001  0.1741
 4004W        W 7523   4.497   8.193  11.923  0.2176 -0.1096 -0.1297
 4005W        W 7524   7.754   7.511   1.822 -0.2911 -0.0048 -0.4834
 4006W        W 7525   9.709   6.271   1.559 -0.1706 -0.0019 -0.2710
 4007W        W 7526   8.294   5.653   0.979 -0.2101  0.1633 -0.0269
 4008W        W 7527   7.266   7.935   7.862  0.3929 -0.0614  0.0645
 4009W        W 7528   3.585   9.454  12.042  0.0457  0.2784  0.2015
 4010W        W 7529   7.982   4.826   1.583  0.4075  0.1408 -0.2433
 4011W        W 7530   7.436   0.541   4.527 -0.0335  0.0975 -0.1459
 4012W        W 7531   8.990   0.287   0.744  0.1285  0.1964  0.0417
 4013W        W 7532   2.588   7.344  12.049  0.3730  0.1861  0.1543
 4014W        W 7533   2.411   4.214   9.198  0.2159 -0.0391  0.1989
 4015W        W 7534   5.473   0.284   2.320  0.0802 -0.1708  0.1114
 4016W        W 7535   8.238   7.423   0.023  0.1331 -0.0133 -0.2800
 4017W        W 7536   1.802   2.602   2.360  0.3337  0.0746  0.1409
 4018W        W 7537   1.628   3.504  10.828 -0.0947 -0.1559  0.0588
 4019W        W 7538   1.199   6.061   0.231  0.1538  0.0203 -0.1280
 4020W        W 7539   5.731   3.799   9.096  0.2804  0.0274  0.1676
 4021W        W 7540   3.062   0.854   0.163  0.1486 -0.2154 -0.1925
 4022W        W 7541   5.237   6.576   3.754  0.0432  0.1315  0.1415
 4023W        W 7542   2.245   2.899   3.624 -0.3656 -0.0288  0.2167
 4024W        W 7543   0.872   4.363  11.675 -0.0082  0.0036 -0.2291
 4025W        W 7544   7.419   4.226  11.975 -0.1641  0.0528 -0.2387
 4026W        W 7545   6.166   3.359   8.539 -0.1118  0.0926 -0.2418
 4027W        W 7546   6.827   3.301   3.456  0.1613 -0.0295 -0.2682
 4028W        W 7547   3.076   1.291   9.633 -0.0257  0.1345 -0.2712
 4029W        W 7548   3.790   6.814   1.130  0.2980 -0.4297  0.0403
 4030W        W 7549   5.639   0.169   1.060 -0.1617 -0.1233  0.0299
 4031W        W 7550   2.997   7.887   9.898 -0.1008  0.1394 -0.1324
 4032W        W 7551   2.604   3.264  12.338 -0.0788  0.1453 -0.0444
 4033W        W 7552   1.185   7.469   0.026  0.2333  0.0912 -0.5637
 4034W        W 7553   8.207   1.426   8.844 -0.0825 -0.1512 -0.2203
 4035W        W 7554   8.345   5.407  10.288 -0.0595  0.2895 -0.0223
 4036W        W 7555   8.191   3.940  11.298  0.1079 -0.1134  0.0763
 4037W        W 7556   3.057   1.470   2.232 -0.2353  0.5145  0.0688
 4038W        W 7557   8.632   4.251  12.361 -0.4711  0.2373 -0.2525
 4039W        W 7558   1.358   2.051  10.974 -0.2882  0.0964  0.1930
 4040W        W 7559   7.552   5.038  10.228  0.2583  0.1487 -0.0407
 4041W        W 7560   3.231   8.576  12.331  0.1216 -0.0008  0.0318
 4042W        W 7561   4.439   8.324   2.389  0.1924 -0.0566  0.0359
 4043W        W 7562   8.156   7.925   9.336 -0.3098  0.1953 -0.1005
 4044W        W 7563   8.342   2.589  11.903 -0.0568  0.4253 -0.1309
 4045W        W 7564   6.507   5.555   0.557 -0.1160  0.0101 -0.0592
 4046W        W 7565   7.340   6.361   1.355  0.0890 -0.0056 -0.0765
 4047W        W 7566   8.479   1.834  12.206  0.0000  0.2821  0.2074
 4048W        W 7567   0.508   2.945   0.337  0.0180 -0.2007  0.2439
 4049W        W 7568   4.977   5.053  11.213  0.1654 -0.2118 -0.2985
 4050W        W 7569   9.409   9.661   4.498  0.0610  0.4445  0.0648
 4051W        W 7570   5.268   3.586   3.127 -0.1007  0.1684  0.2887
 4052W        W 7571   8.568   1.271   2.854  0.1876 -0.0734 -0.1361
 4053W        W 7572   6.278   5.910   2.588 -0.2260  0.0250  0.0762
 4054W        W 7573   0.366   8.392   9.283 -0.1260  0.1188 -0.0426
 4055W        W 7574   4.276   8.382   3.380 -0.1121 -0.0692  0.0808
 4056W        W 7575   6.382   1.688   1.974  0.0142  0.0789 -0.5463
 4057W        W 7576   6.111   2.718  10.097  0.2680 -0.0270  0.0964
 4058W        W 7577   2.449   9.388   0.975  0.0379 -0.0160 -0.1919
 4059W        W 7578   4.622   5.855   0.810 -0.1832  0.1692 -0.0618
 4060W        W 7579   7.128   0.916   4.456  0.1745  0.0842  0.0908
 4061W        W 7580   8.015   2.498  10.645 -0.1312 -0.0556  0.1147
 4062W        W 7581   9.561   2.707   9.574 -0.0627 -0.1050  0.1607
 4063W        W 7582   6.481   3.120   3.172  0.0222  0.0488  0.2995
 4064W        W 7583   4.473   7.718  11.093 -0.1519  0.0516  0.0342
 4065W        W 7584   0.446   1.419   3.365  0.2063 -0.1006 -0.0438
 4066W        W 7585   7.029   4.373  12.261 -0.1290 -0.1747 -0.0509
 4067W        W 7586   9.436   6.611   8.894 -0.0050 -0.1223  0.3010
 4068W        W 7587   8.365   8.244   8.936 -0.1075  0.2039  0.1591
 4069W        W 7588   5.029   5.047  10.732 -0.0174 -0.1232  0.3832
 4070W        W 7589   1.496   6.766  11.699 -0.0984  0.3267  0.1600
 4071W        W 7590   4.203   6.817   3.782 -0.1539  0.0128 -0.0155
 4072W        W 7591   1.246   8.200   2.890  0.0268  0.2899 -0.1543
 4073W        W 7592   4.454   9.539  10.321 -0.0386  0.2247  0.1875
 4074W        W 7593   7.825   8.153   0.035 -0.1427  0.1670  0.1437
 4075W        W 7594   7.789   0.320   0.333 -0.0438 -0.1446 -0.1662
 4076W        W 7595   4.039   9.277   1.675 -0.2369 -0.0421  0.1857
 4077W        W 7596   8.438   0.636   2.062 -0.1942 -0.0206  0.0690
 4078W        W 7597   1.252   5.830   1.150  0.1316 -0.0296 -0.3455
 4079W        W 7598   5.043   8.279   7.687  0.1440 -0.0364  0.1054
 4080W        W 7599   0.073   3.443  12.023  0.0136 -0.1361  0.0912
 4081W        W 7600   5.540   9.642   1.790 -0.0687  0.0690  0.0346
 4082W        W 7601   0.474   2.185   2.095 -0.0989 -0.6538 -0.0663
 4083W        W 7602   4.057   5.970  11.295 -0.3953  0.1217  0.0683
 4084W        W 7603   4.932   2.671  10.861  0.0131 -0.1975 -0.0042
 4085W        W 7604   4.131   7.157  10.519  0.0586 -0.0332  0.2331
 4086W        W 7605   2.086   9.021   3.719  0.1201  0.2232  0.0850
 4087W        W 7606   8.049   7.627   2.670 -0.1989  0.1620 -0.2209
 4088W        W 7607   7.847   3.153   9.514 -0.2285 -0.0329  0.1477
 4089W        W 7608   0.252   0.257  10.198  0.2629  0.2325  0.1431
 4090W        W 7609   7.450   4.008   2.920  0.3050 -0.0727 -0.2039
 4091W        W 7610   7.270   3.075  10.241  0.0285  0.1712 -0.1505
 4092W        W 7611   0.498   3.839   2.779 -0.0071  0.2942  0.2836
 4093W        W 7612   2.798   8.561   1.192 -0.2670 -0.0457  0.0903
 4094W        W 7613   8.925   8.285   0.816  0.2811 -0.2762 -0.1123
 4095W        W 7614   8.481   2.441   9.343  0.0670 -0.1814  0.3472
 4096W        W 7615   1.416   6.203  11.970 -0.1882  0.1623 -0.2195
 4097W        W 7616   5.175   1.303  10.365 -0.2056  0.2533  0.0741
 4098W        W 7617   4.926   7.573   4.782  0.2668  0.1948  0.2482
 4099W        W 7618   8.518   0.292   0.588 -0.2675  0.2109  0.0712
 4100W        W 7619   7.772   4.063  11.700 -0.0229  0.1569 -0.1191
 4101W        W 7620   6.540   1.135   2.588 -0.1472  0.0906  0.1576
 4102W        W 7621   3.112   9.434  11.921  0.3500 -0.1422  0.2206
 4103W        W 7622   5.313   1.370   0.299 -0.1277  0.0200  0.1273
 4104W        W 7623   2.561   5.485   0.594  0.2231  0.0299  0.2521
 4105W        W 7624   6.204   5.704   0.054 -0.0345  0.1761  0.1597
 4106W        W 7625   5.606   8.766   3.140 -0.1064 -0.1692  0.0132
 4107W        W 7626   1.672   0.498   9.049  0.0798  0.4563 -0.0420
 4108W        W 7627   3.925   5.664  10.504 -0.0054 -0.0514  0.3405
 4109W        W 7628   5.045   6.130  11.284 -0.0241  0.1158  0.1463
 4110W        W 7629   8.152   4.930   2.909  0.2758 -0.0050  0.1407
 4111W        W 7630   6.374   0.131   9.733 -0.1585  0.0955 -0.0260
 4112W        W 7631   5.380   8.309   1.481  0.1094  0.1383  0.0187
 4113W        W 7632   5.958   2.779   4.737 -0.0916 -0.0589  0.1317
 4114W        W 7633   2.784   1.576   8.542  0.0221  0.0773 -0.1317
 4115W        W 7634   3.609   9.535   3.423 -0.1377 -0.1001 -0.0154
 4116W        W 7635   0.466   5.962   2.761  0.2122 -0.1646  0.3896
 4117W        W 7636   5.719   4.432  11.255  0.0165 -0.2604 -0.2426
 4118W        W 7637   1.054   1.964  12.287  0.2467 -0.0371  0.3823
 4119W        W 7638   2.928   3.042   2.468  0.1232  0.1633  0.1333
 4120W        W 7639   0.363   5.267  10.218  0.1553  0.0835  0.0005
 4121W        W 7640   2.657   7.297   0.240 -0.1158  0.0657 -0.0670
 4122W        W 7641   5.095   3.782   1.816  0.0725 -0.0714 -0.0326
 4123W        W 7642   8.633   9.500  11.424 -0.2340  0.3993 -0.1139
 4124W        W 7643   8.088   0.251   0.868  0.0979 -0.1188  0.3560
 4125W        W 7644   4.234   6.008  12.320 -0.2887 -0.0151 -0.4178
 4126W        W 7645   7.595   3.313   9.917 -0.0036 -0.1913  0.0642
 4127W        W 7646   7.805   9.585   1.027  0.2625  0.2623  0.1768
 4128W        W 7647   3.733   9.211   4.821 -0.2064  0.0874 -0.2513
 4129W        W 7648   0.953   9.005  10.731  0.0199  0.3909  0.1822
 4130W        W 7649   7.650   5.296  11.646  0.0879  0.0635 -0.0128
 4131W        W 7650   7.482   8.355   1.767 -0.0208  0.2020  0.1137
 4132W        W 7651   3.114   0.426   9.711 -0.0950  0.0046 -0.3651
 4133W        W 7652   0.869   0.368  11.303  0.0251  0.2374 -0.0183
 4134W        W 7653   9.377   4.546   0.220 -0.1127 -0.0173  0.0360
 4135W        W 7654   5.350   8.492  12.018 -0.0182  0.2567 -0.0283
 4136W        W 7655   6.684   6.698  10.004  0.5384 -0.0147  0.1052
 4137W        W 7656   8.997   1.150  10.845  0.0937  0.2209 -0.0260
 4138W        W 7657   7.545   8.570  10.678  0.2274  0.0268  0.3147
 4139W        W 7658   2.937   5.262   2.320  0.4382 -0.3094 -0.5061
 4140W        W 7659   5.916   5.753   1.334 -0.0671 -0.1023 -0.0415
 4141W        W 7660   3.996   4.738  11.596 -0.0519  0.0919  0.0858
 4142W        W 7661   4.226   6.661   9.107  0.2195 -0.1683 -0.0363
 4143W        W 7662   0.984   2.566   2.139  0.1207  0.0356  0.1650
 4144W        W 7663   8.816   8.682  12.079 -0.1212 -0.1378 -0.1800
 4145W        W 7664   3.746   9.543   9.329 -0.0377  0.1749 -0.0184
 4146W        W 7665   8.495   1.197  10.259  0.2392 -0.2869 -0.1668
 4147W        W 7666   6.612   3.973   3.362  0.0074  0.0107 -0.1185
 4148W        W 7667   5.703   3.001   2.699  0.2670 -0.2702 -0.0214
 4149W        W 7668   7.350   0.011  10.895  0.1127 -0.1317 -0.1780
 4150W        W 7669   3.583   0.598   2.444 -0.4367 -0.0787 -0.3138
 4151W        W 7670   9.288   2.727   1.226  0.1002 -0.3494 -0.0080
 4152W        W 7671   0.234   3.441   1.420  0.3177 -0.0415  0.2208
 4153W        W 7672   5.799   3.921   0.530 -0.0076 -0.0744 -0.1171
 4154W        W 7673   3.780   3.925  10.128 -0.3495  0.4599  0.0280
 4155W        W 7674   8.718   7.855  11.908  0.1851 -0.0987  0.2853
 4156W        W 7675   3.577   3.335   3.499 -0.0414  0.4168  0.3518
 4157W        W 7676   4.100   3.206   0.385 -0.2130  0.2760 -0.0542
 4158W        W 7677   6.438   0.277   2.684 -0.0420 -0.0497 -0.0075
 4159W        W 7678   4.012   8.518   7.840  0.0839  0.1034 -0.0585
 4160W        W 7679   8.961   4.430  11.920 -0.0986  0.0764 -0.2134
 4161W        W 7680   2.589   9.344   8.850 -0.2172  0.0805  0.0589
 4162W        W 7681   7.865   5.340   3.904 -0.1742 -0.0870  0.4617
 4163W        W 7682   0.306   7.660  11.177  0.0290  0.0633 -0.3877
 4164W        W 7683   7.291   1.866   8.851 -0.0747 -0.0037 -0.2340
 4165W        W 7684   7.468   4.429   4.176 -0.1614  0.0023 -0.1668
 4166W        W 7685   5.527   0.553   9.756 -0.1331 -0.2897 -0.2321
 4167W        W 7686   0.145   5.813   9.038 -0.0416  0.3229 -0.3143
 4168W        W 7687   1.248   2.533   1.706  0.1532  0.1541  0.0801
 4169W        W 7688   6.143   8.804  11.686  0.2677  0.0355 -0.0139
 4170W        W 7689   5.449   2.205   9.612 -0.0571 -0.2378  0.1936
 4171W        W 7690   5.799   5.523  10.354 -0.0718 -0.0886 -0.0055
 4172W        W 7691   7.777   2.678   8.172 -0.0322 -0.0350 -0.3949
 4173W        W 7692   1.277   7.233  11.607 -0.0378 -0.2181  0.3424
 4174W        W 7693   6.741   6.273   8.144 -0.1101 -0.0824 -0.0980
 4175W        W 7694   3.901   1.283   1.882  0.2353 -0.0592  0.2110
 4176W        W 7695   1.054   1.704   1.497 -0.0638 -0.0786  0.2678
 4177W        W 7696   6.820   3.464  12.242  0.0681  0.0154 -0.1896
 4178W        W 7697   5.317   7.541   4.030  0.0987 -0.1988  0.0025
 4179W        W 7698   5.514   9.380   9.728  0.1025  0.2762  0.0548
 4180W        W 7699   0.169   6.353  11.569  0.0742  0.0685  0.1682
 4181W        W 7700   1.351   7.286   2.350  0.0209  0.1737 -0.0612
 4182W        W 7701   0.493   1.562   1.029  0.2782  0.4273  0.2159
 4183W        W 7702   3.914   5.459   3.877  0.0904 -0.1700  0.4155
 4184W        W 7703   4.755   9.217   0.719  0.0915  0.1834  0.2711
 4185W        W 7704   3.071   5.953  11.617  0.1257  0.3556  0.0010
 4186W        W 7705   1.008   5.423   9.688 -0.3214 -0.0365 -0.3128
 4187W        W 7706   2.173   6.507  10.804  0.1626  0.0876  0.1577
 4188W        W 7707   6.170   7.959  10.518 -0.0963 -0.1680  0.0214
 4189W        W 7708   6.441   9.351   0.741 -0.1569  0.3173 -0.0117
 4190W        W 7709   0.296   9.338   1.705 -0.6685 -0.1381 -0.3092
 4191W        W 7710   7.805   1.853   1.618 -0.1010 -0.0197  0.2955
 4192W        W 7711   5.091   8.714   1.319  0.0499  0.0089 -0.0210
 4193W        W 7712   8.304   9.685  10.885 -0.0075  0.1137 -0.1897
 4194W        W 7713   5.471   6.491   8.856  0.0797  0.3961  0.1032
 4195W        W 7714   3.173   8.735   8.510  0.1412  0.0021  0.0390
 4196W        W 7715   9.693   7.944  10.971  0.2803  0.2232  0.0153
 4197W        W 7716   2.007   6.808  11.746  0.0813 -0.2581 -0.1601
 4198W        W 7717   1.868   1.890   1.817 -0.1786  0.0917  0.1186
 4199W        W 7718   8.296   3.834   9.039  0.2378  0.2410  0.0018
 4200W        W 7719   2.979   0.356   2.419 -0.1062 -0.0120 -0.0451
 4201W        W 7720   1.092   0.929   2.543 -0.4467 -0.4582 -0.1057
 4202W        W 7721   6.381   9.122   0.160  0.1438 -0.1463 -0.1469
 4203W        W 7722   0.902   2.759   9.188  0.0199 -0.2423  0.1087
 4204W        W 7723   4.539   6.761   0.926 -0.1907  0.0338 -0.2412
 4205W        W 7724   4.331   1.436   0.670 -0.1181  0.4380  0.4278
 4206W        W 7725   2.877   0.748   1.581 -0.0300 -0.0664 -0.3355
 4207W        W 7726   7.806   8.121   2.600 -0.1193 -0.2286  0.0615
 4208W        W 7727   6.160   2.538   2.490 -0.0553 -0.0540  0.1265
 4209W        W 7728   1.248   8.594   0.748  0.0413  0.2556  0.1309
 4210W        W 7729   3.906   1.963   8.493 -0.2160 -0.1935 -0.2695
 4211W        W 7730   0.267   7.926   2.859 -0.0252  0.5277  0.2950
 4212W        W 7731   8.309   1.246   9.692 -0.1291  0.2504 -0.0234
 4213W        W 7732   5.350   0.327   8.765 -0.0717  0.2528 -0.3356
 4214W        W 7733   9.013   5.619   2.277 -0.2235 -0.0460 -0.0671
 4215W        W 7734   0.779   5.841   0.502  0.1765  0.0152  0.1339
 4216W        W 7735   4.341   5.697   2.243 -0.0835  0.1732  0.0955
 4217W        W 7736   5.632   3.855   3.371 -0.0211 -0.1333  0.2130
 4218W        W 7737   3.376   0.084  11.635  0.3650  0.1549  0.1510
 4219W        W 7738   5.158   9.518   3.108  0.0220 -0.1184 -0.2018
 4220W        W 7739   7.333   4.423  11.235 -0.1443  0.4034  0.0271
 4221W        W 7740   2.634   4.792   0.960 -0.1214  0.3413 -0.2910
 4222W        W 7741   8.584   6.029   0.698  0.0922 -0.2634  0.4333
 4223W        W 7742   3.537   1.912   0.543  0.0042  0.2926 -0.1471
 4224W        W 7743   4.632   1.952   1.498  0.3837 -0.1483 -0.0741
 4225W        W 7744   4.652   1.458   9.408 -0.1698  0.1923  0.1147
 4226W        W 7745   6.041   4.474   3.868  0.1448 -0.2049  0.3213
 4227W        W 7746   6.018   2.660  11.707 -0.1378 -0.0620  0.2281
 4228W        W 7747   7.999   7.911  10.426 -0.1568 -0.0333  0.0322
 4229W        W 7748   2.041   0.210  11.767  0.4562  0.1733 -0.2766
 4230W        W 7749   4.549   3.898  10.697  0.1288  0.3777 -0.0744
 4231W        W 7750   6.015   3.597  11.664 -0.1131 -0.3366  0.3124
 4232W        W 7751   6.114   5.193   1.954 -0.1869 -0.0670 -0.0680
 4233W        W 7752   5.248   9.071   2.894 -0.1389  0.0606 -0.1436
 4234W        W 7753   6.920   4.944   3.636 -0.3704  0.1849 -0.0296
 4235W        W 7754   6.297   5.440  10.506 -0.1712  0.1488 -0.0465
 4236W        W 7755   9.161   7.762   9.220 -0.2885 -0.4476  0.0750
 4237W        W 7756   8.765   0.381   2.969 -0.2149  0.2191 -0.2607
 4238W        W 7757   0.027   2.882   0.264  0.0289  0.0922  0.0446
 4239W        W 7758   5.431   5.121   7.950  0.2442 -0.1917 -0.1039
 4240W        W 7759   2.791   8.772   0.040 -0.3978  0.2273  0.1903
 4241W        W 7760   5.511   3.634  12.208  0.3525 -0.0292  0.1454
 4242W        W 7761   8.045   6.581   3.160  0.1115  0.1023  0.2458
 4243W        W 7762   8.617   9.218  12.434 -0.1809  0.0469 -0.2007
 4244W        W 7763   4.662   7.884   1.170 -0.0667 -0.1311  0.0771
 4245W        W 7764   3.940   8.290   8.993  0.0069  0.0684 -0.0538
 4246W        W 7765   9.231   0.579   3.170 -0.1359 -0.0701  0.1874
 4247W        W 7766   9.107   5.721  10.946 -0.2546  0.0598 -0.2655
 4248W        W 7767   4.312   3.296   2.496  0.0089  0.0640  0.2027
 4249W        W 7768   1.162   7.681  10.313  0.0575 -0.0402  0.3490
 4250W        W 7769   7.626   4.665   0.390  0.0696  0.2995  0.1644
 4251W        W 7770   3.763   8.278   0.215  0.0874 -0.2867  0.1290
 4252W        W 7771   2.812   3.922   4.135 -0.0932 -0.0366  0.0770
 4253W        W 7772   2.016   6.583   3.471 -0.2728 -0.1506  0.0252
 4254W        W 7773   6.074   3.600   8.063 -0.0007  0.1508 -0.2880
 4255W        W 7774   9.098   8.262  10.137  0.1465 -0.0838  0.1016
 4256W        W 7775   5.732   1.033  12.083 -0.0115  0.3188  0.3602
 4257W        W 7776   1.851   5.946   2.154  0.0237 -0.2635 -0.1995
 4258W        W 7777   5.570   7.194  12.303 -0.4063  0.0813 -0.0790
 4259W        W 7778   8.507   6.917   1.823 -0.2356  0.6107  0.0299
 4260W        W 7779   6.825   0.798   2.739 -0.0018  0.2204  0.2016
 4261W        W 7780   9.705   8.056  11.455  0.1207  0.2514 -0.0577
 4262W        W 7781   3.700   2.706   9.709  0.0509 -0.1684 -0.0566
 4263W        W 7782   4.424   3.372   9.624  0.3454  0.4700 -0.0280
 4264W        W 7783   8.537   5.825  10.165  0.2669 -0.0252  0.2737
 4265W        W 7784   0.056   7.156   2.567  0.0236  0.0846 -0.3038
 4266W        W 7785   1.070   7.844   9.611  0.1419 -0.0999  0.0034
 4267W        W 7786   5.765   1.646   0.742  0.2983  0.0369  0.1434
 4268W        W 7787   8.694   9.080  11.779 -0.1313  0.3234 -0.1844
 4269W        W 7788   1.424   7.658   9.327  0.0283 -0.1272  0.0149
 4270W        W 7789   9.524   5.068   1.010 -0.1529 -0.1654 -0.0094
 4271W        W 7790   5.755   5.965  10.089 -0.3543  0.0601  0.0085
 4272W        W 7791   3.609   2.453   2.620  0.1832 -0.0085  0.2653
 4273W        W 7792   5.231   8.300   9.803 -0.1161  0.1585  0.2811
 4274W        W 7793   9.106   4.618   8.657 -0.0569  0.1191 -0.3853
 4275W        W 7794   7.442   4.778   2.209 -0.0368  0.1006 -0.0511
 4276W        W 7795   6.886   2.592  12.264 -0.1228 -0.0575  0.0780
 4277W        W 7796   3.788   5.565   8.565  0.1054 -0.0907  0.2941
 4278W        W 7797   0.408   8.934   9.248  0.2236  0.1421 -0.1232
 4279W        W 7798   8.307   0.912   1.584  0.2357  0.0959  0.1027
 4280W        W 7799   2.068   6.029  11.137 -0.0541  0.0016 -0.1949
 4281W        W 7800   5.103   2.595   9.499  0.0551 -0.1510  0.1377
 4282W        W 7801   9.436   1.367   1.530  0.1756 -0.1102 -0.0511
 4283W        W 7802   3.543   4.824  10.109  0.2323 -0.1457  0.1213
 4284W        W 7803   3.232   9.216   0.698  0.2231  0.3451 -0.3159
 4285W        W 7804   1.998   2.922   1.989 -0.1034  0.0782 -0.0353
 4286W        W 7805   7.360   5.563   9.408 -0.0275 -0.0205  0.1358
 4287W        W 7806   9.353   7.257  11.877 -0.0603 -0.1283 -0.2702
 4288W        W 7807   1.511   6.832   0.373  0.2312  0.2689 -0.0956
 4289W        W 7808   9.426   0.886  10.863  0.1375  0.1646 -0.4431
 4290W        W 7809   1.138   4.879   9.299  0.4501  0.2928  0.1599
 4291W        W 7810   1.416   9.040   0.870 -0.0253 -0.1223 -0.1868
 4292W        W 7811   3.894   0.699   3.351  0.1576 -0.0896  0.2316
 4293W        W 7812   2.872   7.638  11.549  0.2179  0.0897 -0.0960
 4294W        W 7813   7.260   5.150   8.708 -0.1359  0.0439  0.3377
 4295W        W 7814   8.244   5.708   9.200  0.1353  0.1902  0.2127
 4296W        W 7815   3.918   8.530   9.841 -0.0264 -0.0996 -0.6007
 4297W        W 7816   9.088   5.342   1.071 -0.0020  0.0319  0.1544
 4298W        W 7817   9.290   7.363   1.664 -0.4313  0.1107 -0.2084
 4299W        W 7818   2.396   7.189  11.557  0.0300  0.1965  0.1129
 4300W        W 7819   2.168   4.525   3.545  0.0159 -0.1738  0.3067
 4301W        W 7820   5.872   9.279  10.895  0.2292  0.1059  0.1614
 4302W        W 7821   3.324   5.326  11.452 -0.6094  0.2732  0.0892
 4303W        W 7822   9.464   1.979  12.212  0.0131  0.0654  0.6169
 4304W        W 7823   0.156   7.422   9.360  0.0919  0.0472  0.1349
 4305W        W 7824   1.337   1.375   1.151  0.0229  0.0115 -0.1886
 4306W        W 7825   5.905   0.342   0.272 -0.0790  0.0742  0.2299
 4307W        W 7826   2.167   7.032  12.172 -0.0873  0.1626  0.0792
 4308W        W 7827   6.266   8.408  12.434  0.3751 -0.1578  0.0421
 4309W        W 7828   9.475   8.941  11.252 -0.1452 -0.0740  0.0047
 4310W        W 7829   7.260   2.419   2.241 -0.1351  0.0790  0.2972
 4311W        W 7830   7.109   0.407   0.860 -0.3012 -0.1459 -0.0030
 4312W        W 7831   4.063   8.979   1.153 -0.2791  0.0376  0.2872
 4313W        W 7832   4.589   8.982   4.369  0.0745 -0.0322  0.0619
 4314W        W 7833   8.979   8.977   1.335  0.2153  0.4188 -0.0887
 4315W        W 7834   6.300   6.290   3.623  0.0913 -0.1828 -0.2106
 4316W        W 7835   0.714   4.031   0.633  0.2061  0.0199 -0.1883
 4317W        W 7836   4.052   1.749   2.187 -0.0263 -0.0377  0.0553
 4318W        W 7837   2.227   0.173   9.671  0.2377  0.0250 -0.0049
 4319W        W 7838   9.471   6.833  11.651 -0.1325 -0.1508  0.3012
 4320W        W 7839   7.273   5.935   8.539 -0.0024 -0.0279  0.0501
 4321W        W 7840   7.517   0.843   0.223  0.3235 -0.1492 -0.2671
 4322W        W 7841   8.209   7.318   1.791 -0.0218  0.3174  0.2907
 4323W        W 7842   2.675   2.593   1.715 -0.0287  0.1362 -0.0001
 4324W        W 7843   1.219   9.016   1.939  0.2446 -0.0669  0.0368
 4325W        W 7844   6.794   4.454   8.989 -0.0354 -0.3705  0.0661
 4326W        W 7845   0.222   4.947   3.273 -0.0988 -0.0066  0.1829
 4327W        W 7846   5.352   0.196  11.945  0.2684 -0.1687 -0.0439
 4328W        W 7847   0.561   4.468   8.979  0.0831  0.1834  0.0942
 4329W        W 7848   8.126   9.403   2.367  0.0812  0.1198 -0.1973
 4330W        W 7849   5.533   5.308   2.841  0.1390 -0.0914  0.1674
 4331W        W 7850   0.907   6.634   3.662  0.3974 -0.3388  0.2419
 4332W        W 7851   4.707   5.943   1.905 -0.1638  0.1976 -0.1174
 4333W        W 7852   7.756   4.973  10.753  0.2705 -0.0658 -0.2891
 4334W        W 7853   2.725   4.333  10.252 -0.0680 -0.0907 -0.2689
 4335W        W 7854   3.536   6.527  10.163 -0.1140 -0.0309 -0.1000
 4336W        W 7855   0.093   5.797  11.480  0.2428  0.1590 -0.4775
 4337W        W 7856   6.112   5.232  10.004 -0.2756 -0.1465  0.0191
 4338W        W 7857   9.280   4.552   0.768  0.0275 -0.1301  0.2816
 4339W        W 7858   6.899   8.868  12.473  0.1611  0.1525 -0.0046
 4340W        W 7859   7.910   5.344   2.890  0.1176 -0.0634  0.0867
 4341W        W 7860   5.702   4.026  11.964  0.1243  0.0657  0.0106
 4342W        W 7861   3.354   2.702   3.776  0.0418 -0.2467 -0.2159
 4343W        W 7862   7.741   6.464   0.165  0.1234 -0.0751  0.1739
 4344W        W 7863   8.770   7.354  11.035 -0.1098 -0.0284 -0.0639
 4345W        W 7864   4.127   5.317   9.631  0.1689 -0.0969  0.3258
 4346W        W 7865   1.757   8.828   2.099 -0.1319  0.2295  0.0444
 4347W        W 7866   8.356   0.762   3.792 -0.0333  0.2053  0.1496
 4348W        W 7867   7.172   1.773   0.069 -0.0690 -0.0753  0.1162
 4349W        W 7868   0.854   6.914   9.796  0.1712 -0.0240 -0.0492
 4350W        W 7869   8.085   8.787   0.018 -0.1506 -0.4232 -0.1740
 4351W        W 7870   5.126   0.233   2.683 -0.0381 -0.2212 -0.2318
 4352W        W 7871   0.508   3.062   9.210 -0.2352 -0.0517 -0.1362
 4353W        W 7872   6.018   4.161  11.517 -0.3426  0.3519  0.0780
 4354W        W 7873   1.553   4.156  12.333  0.2516  0.1898 -0.0863
 4355W        W 7874   4.767   2.195   8.637 -0.1717 -0.0088  0.2309
 4356W        W 7875   9.460   8.995   0.464 -0.0512 -0.0097 -0.0598
 4357W        W 7876   1.566   4.061  10.795 -0.1753 -0.0185  0.1279
 4358W        W 7877   4.800   0.207   9.329 -0.1742 -0.0637  0.2885
 4359W        W 7878   8.626   8.679   4.730 -0.1967  0.1047 -0.0252
 4360W        W 7879   7.159   0.525   8.113 -0.0814  0.0953  0.5092
 4361W        W 7880   4.556   8.916   8.517  0.0573 -0.2003  0.0846
 4362W        W 7881   6.724   8.082  10.529  0.0627 -0.0367  0.2329
 4363W        W 7882   9.365   8.098   0.470  0.1024  0.0427 -0.0624
 4364W        W 7883   0.373   1.085   1.066  0.1976 -0.0838 -0.0532
 4365W        W 7884   1.456   6.809   2.361  0.3125  0.0433  0.1220
 4366W        W 7885   5.441   1.160   9.039 -0.4561 -0.0770  0.4960
 4367W        W 7886   3.437   6.370  11.947  0.1456  0.2084 -0.1202
 4368W        W 7887   0.979   4.943   0.256 -0.4606 -0.0318 -0.2017
 4369W        W 7888   8.966   2.185   2.001 -0.3934  0.3467  0.0509
 4370W        W 7889   2.706   5.440   4.762 -0.0545  0.3497 -0.0623
 4371W        W 7890   2.951   6.202  12.053  0.0390  0.1242 -0.1332
 4372W        W 7891   1.902   7.387   3.190  0.2559  0.0178 -0.4781
 4373W        W 7892   6.593   1.024   8.468  0.1447 -0.0198 -0.1902
 4374W        W 7893   6.387   7.733   3.239  0.0037  0.2504 -0.2751
 4375W        W 7894   1.973   2.124   2.274  0.0787 -0.1964  0.0188
 4376W        W 7895   8.829   2.886   0.764  0.2030 -0.1349 -0.1874
 4377W        W 7896   5.844   8.492  10.350 -0.1440 -0.3126 -0.0162
 4378W        W 7897   7.190   1.523   2.336 -0.0679 -0.1036  0.0589
 4379W        W 7898   6.350   3.033   1.620  0.0163  0.2979  0.0874
 4380W        W 7899   3.011   0.066   0.739 -0.1376 -0.0371 -0.4495
 4381W        W 7900   8.570   7.486   3.874  0.2106  0.0240 -0.2885
 4382W        W 7901   1.546   5.558   8.892  0.1964  0.1362  0.1535
 4383W        W 7902   0.486   5.554  10.591  0.0030  0.0781 -0.1930
 4384W        W 7903   7.026   0.929   9.664 -0.0010 -0.1666 -0.0529
 4385W        W 7904   2.707   6.947  12.385 -0.1060  0.0251 -0.0071
 4386W        W 7905   2.403   4.547   1.815  0.0832  0.3110 -0.0645
 4387W        W 7906   6.679   1.877   0.408 -0.0969 -0.1620  0.2281
 4388W        W 7907   4.593   0.267  11.003  0.1189 -0.1233  0.0008
 4389W        W 7908   5.094   0.969   5.537  0.3490 -0.2762 -0.2695
 4390W        W 7909   2.212   0.686  10.989  0.3307 -0.0626 -0.1099
 4391W        W 7910   3.198   1.934  10.090  0.1409 -0.0654  0.2440
 4392W        W 7911   8.876   2.767  12.273 -0.2526 -0.0855  0.0769
 4393W        W 7912   9.505   4.516  11.566 -0.2616 -0.0479  0.3461
 4394W        W 7913   2.741   3.582  10.381  0.0142  0.3213  0.0018
 4395W        W 7914   8.808   0.900   1.598  0.2025 -0.1916 -0.3225
 4396W        W 7915   9.119   2.284   2.855 -0.0692  0.5004 -0.3453
 4397W        W 7916   8.928   5.633   0.649  0.2375  0.1179 -0.0745
 4398W        W 7917   2.680   8.592  11.525  0.0403  0.0746  0.3647
 4399W        W 7918   2.007   1.122   0.077  0.1269 -0.1284  0.1980
 4400W        W 7919   8.176   3.495   3.441  0.0659 -0.2499 -0.0433
 4401W        W 7920   2.970   9.221  10.574 -0.1053 -0.0330 -0.2205
 4402W        W 7921   4.151   6.452  11.360  0.0842  0.1916  0.1425
 4403W        W 7922   3.010   4.961   3.403 -0.0985 -0.1298 -0.0010
 4404W        W 7923   0.352   0.595   3.117  0.2419  0.0122 -0.0455
 4405W        W 7924   6.795   7.586  11.937  0.1697 -0.1955  0.0250
 4406W        W 7925   6.175   8.175   9.615  0.1689  0.2453  0.0380
 4407W        W 7926   4.189   4.760   7.996 -0.1106 -0.0033 -0.3007
 4408W        W 7927   6.876   2.536  11.333 -0.2932 -0.1582  0.0761
 4409W        W 7928   6.087   0.248   3.141  0.4976  0.0201  0.1367
 4410W        W 7929   5.201   1.722   3.672 -0.3315  0.0219  0.0990
 4411W        W 7930   8.819   5.801   1.193 -0.0546  0.1317  0.1113
 4412W        W 7931   0.614   9.101  11.226 -0.2993 -0.0065 -0.2710
 4413W        W 7932   3.753   8.121   9.628  0.0027 -0.0368  0.3046
 4414W        W 7933   3.601   2.955   1.544  0.0080  0.0059 -0.0796
 4415W        W 7934   0.429   1.226   1.980 -0.0500  0.1187  0.1282
 4416W        W 7935   6.137   3.887  12.042 -0.3529 -0.1435 -0.1467
 4417W        W 7936   7.990   9.025   4.069 -0.1088 -0.1888 -0.1235
 4418W        W 7937   4.431   3.830   1.282 -0.0234 -0.5431  0.2042
 4419W        W 7938   1.375   2.415   0.258  0.0047  0.1615  0.0638
 4420W        W 7939   7.853   3.749   0.844 -0.1841 -0.0759 -0.1651
 4421W        W 7940   6.025   3.839   1.816  0.2059  0.0875  0.4848
 4422W        W 7941   0.925   1.332   9.404  0.0795 -0.1839 -0.0156
 4423W        W 7942   0.783   3.847   1.951  0.1908  0.1461  0.0236
 4424W        W 7943   9.302   8.880   9.372 -0.0436  0.0425 -0.2320
 4425W        W 7944   1.594   3.590  12.165  0.3571  0.0272  0.0107
 4426W        W 7945   9.406   0.911   0.751 -0.0665 -0.1325  0.0187
 4427W        W 7946   5.439   0.390   3.781 -0.2036  0.2632  0.0386
 4428W        W 7947   5.202   2.769   3.514 -0.0972 -0.1150 -0.0398
 4429W        W 7948   1.248   7.063   2.771 -0.1027  0.1154  0.0369
 4430W        W 7949   4.859   7.435  11.165 -0.1348  0.2237 -0.0795
 4431W        W 7950   9.182   6.105   1.992 -0.1322  0.0947  0.0143
 4432W        W 7951   2.906   7.339   1.620  0.0077  0.1306  0.1175
 4433W        W 7952   0.949   0.320   1.318  0.3941 -0.2127  0.0695
 4434W        W 7953   6.498   1.949  11.849  0.0779 -0.2267  0.0097
 4435W        W 7954   6.162   1.770   3.306 -0.0788  0.0709  0.0607
 4436W        W 7955   8.749   3.382   8.404  0.4346  0.0991 -0.1490
 4437W        W 7956   0.869   3.369   3.019  0.1550  0.2818 -0.1663
 4438W        W 7957   8.687   4.973   3.045  0.2434 -0.2165 -0.2046
 4439W        W 7958   4.935   7.044   0.697 -0.3243 -0.1840  0.3633
 4440W        W 7959   6.250   3.218  11.864 -0.1901 -0.2282  0.0923
 4441W        W 7960   3.740   0.818   1.983 -0.0331  0.0841 -0.2970
 4442W        W 7961   1.748   1.208   1.425 -0.2047 -0.0981 -0.6140
 4443W        W 7962   0.235   5.509   1.931  0.2438  0.0866 -0.0371
 4444W        W 7963   6.522   1.532   9.179  0.2160  0.1190  0.1170
 4445W        W 7964   4.247   5.686   8.377 -0.3268 -0.0218  0.1371
 4446W        W 7965   1.591   3.771   0.758 -0.1316 -0.3422  0.0391
 4447W        W 7966   5.920   2.879   7.630  0.0959 -0.0137  0.0333
 4448W        W 7967   2.514   3.064   9.182  0.0921 -0.0529  0.0561
 4449W        W 7968   5.609   0.876   1.138 -0.2705 -0.3883  0.1088
 4450W        W 7969   8.844   1.838   4.015 -0.1108  0.0531  0.0538
 4451W        W 7970   5.209   1.585   0.804  0.0327  0.0002  0.0556
 4452W        W 7971   0.567   6.777  11.834 -0.4798  0.0059 -0.1207
 4453W        W 7972   8.176   0.670   9.369 -0.1017 -0.2328  0.2749
 4454W        W 7973   8.982   6.577   1.907 -0.1651 -0.1566 -0.1457
 4455W        W 7974   3.203   2.601   1.568 -0.4001 -0.0076 -0.1523
 4456W        W 7975   8.148   1.498  11.940 -0.0965 -0.1870 -0.1474
 4457W        W 7976   4.953   6.170   2.835  0.0574  0.2114  0.1173
 4458W        W 7977   6.530   5.016  10.181  0.0170  0.1904 -0.0720
 4459W        W 7978   2.347   7.187  10.131 -0.1956  0.1376 -0.0100
 4460W        W 7979   6.594   4.743   2.794 -0.1420 -0.2244 -0.2932
 4461W        W 7980   8.326   3.055   9.361 -0.0323  0.4752 -0.1569
 4462W        W 7981   8.471   9.611   2.780 -0.1101 -0.2215 -0.0389
 4463W        W 7982   8.022   6.056   1.287  0.1651 -0.0379 -0.0918
 4464W        W 7983   3.406   3.196   2.666  0.2690  0.0548  0.0920
 4465W        W 7984   6.346   8.857   8.147 -0.0737 -0.1313  0.2244
 4466W        W 7985   7.483   2.229   3.068  0.0517  0.0743  0.0902
 4467W        W 7986   9.589   0.267   0.800  0.2127  0.2596 -0.0384
 4468W        W 7987   8.736   4.149   3.400  0.1145 -0.2677 -0.0798
 4469W        W 7988   9.168   3.206   0.510 -0.0563 -0.4240 -0.0055
 4470W        W 7989   8.817   5.172  12.152 -0.0118 -0.0477 -0.1384
 4471W        W 7990   3.359   1.827   2.608  0.0536 -0.0339 -0.0188
 4472W        W 7991   8.783   0.195  11.149 -0.2257  0.1611  0.0041
 4473W        W 7992   2.164   2.273   0.592 -0.2020  0.0769 -0.1537
 4474W        W 7993   3.876   3.066  10.012 -0.2787 -0.0338  0.1770
 4475W        W 7994   8.416   5.709   0.117  0.1129  0.3515 -0.1353
 4476W        W 7995   7.116   1.463   3.262  0.2616 -0.1943  0.0073
 4477W        W 7996   0.398   2.664  12.283 -0.0206 -0.0530 -0.0139
 4478W        W 7997   6.847   4.266  11.246  0.2859 -0.2997 -0.1057
 4479W        W 7998   7.280   3.854  11.009  0.2553 -0.1947 -0.0264
 4480W        W 7999   7.491   2.495   0.845  0.0867  0.1714 -0.3311
 4481W        W 8000   7.429   5.186   2.561  0.3707  0.2533  0.1560
 4482W        W 8001   1.120   5.843   9.982 -0.0379  0.1400 -0.0594
 4483W        W 8002   8.731   9.458  10.939 -0.0335 -0.0914  0.1330
 4484W        W 8003   4.755   2.950   1.345 -0.0303 -0.1914  0.3007
 4485W        W 8004   8.614   5.910   2.409  0.0218 -0.0953 -0.0703
 4486W        W 8005   2.064   3.877  10.959 -0.0814 -0.0782 -0.3395
 4487W        W 8006   3.128   3.887  10.259 -0.1936  0.1902 -0.1714
 4488W        W 8007   4.263   2.835   3.212  0.1034 -0.0520  0.1396
 4489W        W 8008   8.705   4.590   1.292  0.3437 -0.1952  0.1018
 4490W        W 8009   5.816   3.561  10.111 -0.1303 -0.0928 -0.0914
 4491W        W 8010   6.114   9.487   7.939 -0.2116 -0.0882 -0.1598
 4492W        W 8011   6.970   8.998   5.086  0.1702  0.0486 -0.1721
 4493W        W 8012   6.734   0.596   8.816 -0.3390 -0.0374  0.1490
 4494W        W 8013   7.685   3.920   2.433  0.1040 -0.1423 -0.1054
 4495W        W 8014   9.088   4.662   2.148  0.0239  0.0094  0.2795
 4496W        W 8015   3.667   8.396   4.049  0.1321  0.1469 -0.0091
 4497W        W 8016   1.901   7.352  10.946  0.2427 -0.1095 -0.0114
 4498W        W 8017   7.234   8.609   3.705  0.0567 -0.2013  0.0853
 4499W        W 8018   7.715   9.638  12.058 -0.2613  0.2490  0.1220
 4500W        W 8019   6.237   2.600   3.833  0.0784  0.2678 -0.1098
 4501W        W 8020   1.021   9.471   8.738 -0.2557  0.0497  0.0437
 4502W        W 8021   7.841   3.367  10.564 -0.0651  0.0511  0.2743
 4503W        W 8022   6.307   8.216   2.645 -0.1553  0.0727  0.1044
 4504W        W 8023   2.615   9.527   0.403  0.1801 -0.1330 -0.0826
 4505W        W 8024   6.510   5.990  11.373 -0.1109 -0.0554  0.3760
 4506W        W 8025   5.581   0.672   4.613  0.1954 -0.0262  0.0277
 4507W        W 8026   8.054   7.362   3.706  0.1804 -0.0902 -0.3425
 4508W        W 8027   6.654   6.478   3.309  0.0175  0.0758 -0.2279
 4509W        W 8028   3.378   8.095  10.564 -0.0621  0.2257  0.0583
 4510W        W 8029   1.177   0.415   0.800  0.0841  0.0466 -0.1034
 4511W        W 8030   6.720   8.618   9.081  0.0034  0.3541  0.1122
 4512W        W 8031   0.214   3.258   3.809  0.0859 -0.4131 -0.0047
 4513W        W 8032   5.403   6.068   3.071  0.0639  0.0359 -0.0509
 4514W        W 8033   5.713   8.893   0.780 -0.2791  0.0490 -0.1699
 4515W        W 8034   2.418   1.171   2.160 -0.0458  0.1140 -0.1770
 4516W        W 8035   6.101   6.176   1.987 -0.0861 -0.0178 -0.1205
 4517W        W 8036   8.577   3.086  11.145 -0.3618  0.2446  0.0042
 4518W        W 8037   6.256   4.659   0.639  0.0073  0.3442  0.0599
 4519W        W 8038   5.695   3.530   0.830 -0.1027  0.2565 -0.1944
 4520W        W 8039   6.331   9.433   4.626  0.1965 -0.0292 -0.0572
 4521W        W 8040   6.632   4.628   0.199 -0.2951 -0.0529  0.0227
 4522W        W 8041   0.396   3.413   3.032  0.2504  0.1381  0.3683
 4523W        W 8042   2.867   5.047   0.512 -0.0238  0.1917  0.3285
 4524W        W 8043   9.146   8.441  12.430 -0.0515 -0.0059 -0.2564
 4525W        W 8044   3.599   9.674   0.729  0.1144  0.0280 -0.1613
 4526W        W 8045   6.063   3.113   0.711  0.2665  0.3346 -0.2899
 4527W        W 8046   0.324   8.819   3.088  0.1850  0.2032  0.2089
 4528W        W 8047   7.715   4.833   0.810  0.3213  0.2072  0.2876
 4529W        W 8048   8.851   5.289   7.201  0.0791 -0.1118 -0.0329
 4530W        W 8049   8.968   6.320   2.464 -0.0563 -0.2474 -0.0855
 4531W        W 8050   7.428   1.228  10.006 -0.1996 -0.0544 -0.3113
 4532W        W 8051   2.635   3.810  11.107  0.1341 -0.0992  0.0100
 4533W        W 8052   4.331   3.396  11.509  0.2486  0.3758  0.3805
 4534W        W 8053   0.098   5.127   0.148 -0.1997 -0.4056  0.0406
 4535W        W 8054   1.852   8.812  12.002  0.1510 -0.2233 -0.2228
 4536W        W 8055   0.206   1.264  10.209 -0.0043 -0.3309  0.0874
 4537W        W 8056   7.177   4.757   2.644  0.0509  0.2411 -0.3165
 4538W        W 8057   6.885   3.965   3.822  0.0301 -0.1993  0.0471
 4539W        W 8058   3.974   6.040   2.243  0.1264  0.0433  0.1110
 4540W        W 8059   6.652   0.022   5.373 -0.1017 -0.0366  0.1585
 4541W        W 8060   7.411   1.273   9.474 -0.0706 -0.1805  0.0263
 4542W        W 8061   5.530   8.454  10.746 -0.2904 -0.2811 -0.2597
 4543W        W 8062   0.975   4.061   2.877 -0.0498  0.0933  0.0123
 4544W        W 8063   8.057   3.522   8.635  0.1339 -0.0645 -0.2289
 4545W        W 8064   6.699   6.769   2.473 -0.0654  0.0304 -0.0794
 4546W        W 8065   2.697   0.984  12.237  0.3861  0.1684 -0.1994
 4547W        W 8066   3.101   2.343   1.962  0.1843 -0.2968 -0.1408
 4548W        W 8067   3.414   0.498  12.421  0.2520  0.2895 -0.1090
 4549W        W 8068   9.040   7.433   8.649  0.1518 -0.3419 -0.2391
 4550W        W 8069   5.958   3.403  12.203 -0.0489  0.1638  0.0579
 4551W        W 8070   0.778   5.792   3.213  0.1489  0.3814  0.2590
 4552W        W 8071   6.069   3.478   9.406 -0.0638  0.3339 -0.2147
 4553W        W 8072   6.698   5.546  10.119  0.0638  0.0366  0.0439
 4554W        W 8073   7.961   4.378   9.593  0.0055 -0.5611 -0.1499
 4555W        W 8074   7.178   8.499   4.241  0.1668  0.1437  0.2665
 4556W        W 8075   8.410   3.811   8.463  0.0904 -0.0979 -0.1698
 4557W        W 8076   6.612   6.343  12.329  0.0869 -0.0141 -0.2532
 4558W        W 8077   7.196   2.743   8.705  0.3484  0.0109  0.0452
 4559W        W 8078   1.146   7.199   7.703  0.0350 -0.1264 -0.2131
 4560W        W 8079   4.838   8.674  11.433  0.1709  0.0247 -0.2716
 4561W        W 8080   3.709   4.107   2.753 -0.0105  0.3582  0.3145
 4562W        W 8081   8.004   9.389   3.732  0.0143  0.1835  0.0255
 4563W        W 8082   8.200   9.569   1.555  0.3595 -0.2968  0.1295
 4564W        W 8083   9.283   5.028   0.183  0.0180 -0.2692 -0.1539
 4565W        W 8084   5.322   4.957   0.952 -0.0532  0.0437 -0.0808
 4566W        W 8085   5.162   3.064   2.689  0.0642  0.1116 -0.0873
 4567W        W 8086   4.690   7.670   2.945  0.2965 -0.3605  0.4186
 4568W        W 8087   5.368   0.648   0.734 -0.1313 -0.0553 -0.0481
 4569W        W 8088   1.473   0.731  10.005  0.4544 -0.1292 -0.1647
 4570W        W 8089   8.463   8.226  10.665  0.2635 -0.4120  0.0134
 4571W        W 8090   2.407   4.254  11.040 -0.1112 -0.1545 -0.1178
 4572W        W 8091   9.458   6.104   9.072  0.3476  0.2984  0.0458
 4573W        W 8092   7.126   8.408  10.520  0.0196  0.1761  0.3619
 4574W        W 8093   3.893   2.104  12.443 -0.2457 -0.0341 -0.1107
 4575W        W 8094   6.789   0.170   4.010 -0.0557  0.2921 -0.0834
 4576W        W 8095   4.464   0.379   9.647  0.1159  0.1292  0.3419
 4577W        W 8096   8.163   1.059   0.303 -0.2440  0.1269  0.1352
 4578W        W 8097   5.351   6.377   2.697  0.3233 -0.2051  0.0471
 4579W        W 8098   4.390   6.893  10.193  0.0034 -0.1168  0.0336
 4580W        W 8099   1.482   1.168  10.762  0.1239  0.0066  0.1384
 4581W        W 8100   9.548   7.905   9.953  0.1840 -0.0135 -0.1537
 4582W        W 8101   1.702   8.635   3.021  0.2048 -0.0611 -0.2048
 4583W        W 8102   9.660   7.086  12.284  0.0578  0.0207  0.2811
 4584W        W 8103   7.886   0.739   0.604  0.1123  0.1644  0.1652
 4585W        W 8104   8.677   0.507   8.639  0.1795 -0.0391  0.0269
 4586W        W 8105   5.881   1.852   7.789  0.0762 -0.1057  0.0971
 4587W        W 8106   4.876   8.259   4.545  0.0711 -0.3215  0.2051
 4588W        W 8107   8.426   9.022  11.310 -0.2301  0.0095  0.1954
 4589W        W 8108   8.669   6.678  12.219 -0.0763  0.2115  0.1226
 4590W        W 8109   2.232   0.708  11.761 -0.4533 -0.2613  0.2097
 4591W        W 8110   3.224   0.288  10.469 -0.1531  0.0262 -0.0819
 4592W        W 8111   1.335   9.697  10.926  0.0529 -0.0717  0.1256
 4593W        W 8112   1.743   3.853   1.303 -0.2593  0.2567  0.0669
 4594W        W 8113   0.391   8.121   7.780  0.4223 -0.1896 -0.0051
 4595W        W 8114   3.103   8.487   2.048 -0.0230  0.1328 -0.2708
 4596W        W 8115   7.170   0.431   2.240  0.1867  0.1814 -0.0184
 4597W        W 8116   5.624   0.818  11.329 -0.2867  0.2281  0.2953
 4598W        W 8117   7.325   3.473  11.431  0.1714 -0.1454  0.4674
 4599W        W 8118   4.969   3.754   0.344  0.1931  0.0209  0.1185
 4600W        W 8119   2.189   3.137   3.210 -0.1188  0.1366  0.2415
 4601W        W 8120   9.579   7.507   1.086  0.1164  0.1181  0.2881
 4602W        W 8121   2.691   3.252   0.378 -0.2183 -0.0065  0.4378
 4603W        W 8122   7.733   2.195  12.467 -0.0971 -0.1735 -0.1203
 4604W        W 8123   8.894   2.693  10.118  0.2910 -0.3942 -0.0153
 4605W        W 8124   4.099   9.611   9.857 -0.1890 -0.0839  0.1883
 4606W        W 8125   6.362   7.329   8.669  0.2479 -0.0655 -0.3209
 4607W        W 8126   5.886   0.028   0.686  0.0875  0.1059  0.3578
 4608W        W 8127   4.965   9.205   1.996 -0.2818  0.0189 -0.2783
 4609W        W 8128   3.083   4.323  11.736 -0.3105 -0.0486  0.1168
 4610W        W 8129   3.940   4.835  12.076  0.0353  0.1142  0.0931
 4611W        W 8130   5.532   8.627   2.666 -0.4077 -0.1004 -0.0413
 4612W        W 8131   4.735   0.840  11.005 -0.0052  0.0935 -0.1372
 4613W        W 8132   5.840   6.067   3.310  0.1118 -0.0331  0.3462
 4614W        W 8133   4.687   0.290  10.094 -0.1120  0.0497  0.3329
 4615W        W 8134   8.091   2.229  12.080 -0.2621 -0.0125 -0.2203
 4616W        W 8135   1.467   5.038   8.781  0.2214 -0.4309 -0.0089
 4617W        W 8136   3.606   6.811   1.662 -0.0085  0.2209  0.0408
 4618W        W 8137   5.021   6.235   1.659 -0.0883 -0.0002 -0.0533
 4619W        W 8138   5.916   1.556   1.727  0.2872 -0.2307  0.2051
 4620W        W 8139   3.993   0.990   4.654 -0.3151 -0.4461 -0.0226
 4621W        W 8140   5.153   1.127  12.226 -0.2983 -0.0037 -0.3468
 4622W        W 8141   3.099   4.654   0.828 -0.0439  0.3640  0.1369
 4623W        W 8142   5.403   3.996   0.121  0.1092  0.0494  0.0022
 4624W        W 8143   2.538   7.835   2.309 -0.2542  0.1402  0.0490
 4625W        W 8144   5.830   2.239  11.056 -0.1111  0.1406 -0.1123
 4626W        W 8145   1.624   0.857   1.903 -0.0414 -0.0032 -0.0795
 4627W        W 8146   0.940   2.688   0.290  0.1452 -0.1313 -0.0082
 4628W        W 8147   1.598   2.272  11.837 -0.3616  0.0064  0.2189
 4629W        W 8148   8.430   7.047  11.227 -0.1590  0.0649  0.3582
 4630W        W 8149   8.754   4.026  11.102 -0.0143  0.2870  0.0837
 4631W        W 8150   3.303   2.420  10.840 -0.1390  0.0773 -0.1738
 4632W        W 8151   7.876   8.016   1.591 -0.1105  0.2685 -0.2239
 4633W        W 8152   4.727   4.506   3.905  0.1407 -0.0528  0.0098
 4634W        W 8153   8.505   3.590  11.206  0.1087 -0.3126  0.1059
 4635W        W 8154   3.273   4.929  10.523  0.1226 -0.1577  0.0227
 4636W        W 8155   4.107   7.359   8.521 -0.0593  0.1561 -0.1253
 4637W        W 8156   4.686   8.593   3.149 -0.0266 -0.0701  0.4712
 4638W        W 8157   5.053   7.529   0.413 -0.1930  0.0882 -0.1282
 4639W        W 8158   0.955   0.726   0.387 -0.0450 -0.0006 -0.1761
 4640W        W 8159   7.262   8.804   4.708  0.4158 -0.0854 -0.0606
 4641W        W 8160   7.267   3.961   1.043 -0.1449  0.1445  0.0719
 4642W        W 8161   8.785   7.439  10.034 -0.2699  0.4975  0.1249
 4643W        W 8162   6.073   5.686   3.073  0.0494 -0.0180  0.0385
 4644W        W 8163   9.493   2.307   1.047 -0.0309  0.3844 -0.0529
 4645W        W 8164   6.208   5.571   8.448 -0.0270  0.2583  0.0468
 4646W        W 8165   3.492   3.867   9.704 -0.0288  0.2999  0.1751
 4647W        W 8166   9.152   7.584   2.149 -0.3374  0.0425 -0.0164
 4648W        W 8167   1.224   6.686  10.686  0.2844 -0.2261  0.1318
 4649W        W 8168   0.659   1.104   0.631 -0.0442 -0.1279  0.3947
 4650W        W 8169   2.580   5.750   9.825  0.0602 -0.0133 -0.3322
 4651W        W 8170   3.697   2.307   0.914 -0.2217  0.0344  0.1548
 4652W        W 8171   1.421   1.022   9.584 -0.0402  0.0599  0.0174
 4653W        W 8172   3.275   6.923  10.004 -0.3072 -0.1392 -0.0931
 4654W        W 8173   7.188   6.074   9.692 -0.0596  0.0924 -0.0914
 4655W        W 8174   7.395   2.579  11.505 -0.1741  0.1160  0.3801
 4656W        W 8175   7.960   5.761  10.181  0.1627 -0.0563 -0.1039
 4657W        W 8176   5.235   5.562  11.981  0.2500  0.2325 -0.0903
 4658W        W 8177   2.005   1.355   1.813 -0.2174 -0.2560  0.2672
 4659W        W 8178   9.248   7.276   2.633  0.0897 -0.0040  0.1220
 4660W        W 8179   6.789   7.171   1.010  0.3999  0.2196 -0.0844
 4661W        W 8180   9.529   2.633   3.196  0.2267  0.2399  0.0285
 4662W        W 8181   3.299   6.579   9.637 -0.1537 -0.0138 -0.0854
 4663W        W 8182   6.327   0.306   0.632  0.1080  0.2776  0.1311
 4664W        W 8183   8.040   9.081   3.338 -0.0227 -0.1318  0.0181
 4665W        W 8184   8.409   8.700   3.188 -0.1377 -0.0221  0.1467
 4666W        W 8185   8.503   3.015  10.373  0.0714  0.0652  0.1894
 4667W        W 8186   5.677   0.457  10.937  0.3148 -0.1279  0.2900
 4668W        W 8187   0.035   5.768   4.314 -0.1162  0.2627 -0.0341
 4669W        W 8188   3.407   4.973   3.123  0.1684  0.0215 -0.1821
 4670W        W 8189   3.689   2.352   4.561 -0.1146  0.0987 -0.2492
 4671W        W 8190   2.451   7.103   2.439 -0.0085 -0.0855 -0.4561
 4672W        W 8191   1.328   8.221   1.619  0.0020  0.1807  0.2480
 4673W        W 8192   3.688   4.629   1.391  0.0110 -0.1174 -0.2951
 4674W        W 8193   1.547   6.001  10.204  0.0669 -0.0642 -0.0352
 4675W        W 8194   0.619   1.594   2.885  0.1943 -0.2797 -0.0122
 4676W        W 8195   5.192   6.432   2.176 -0.1139 -0.2067 -0.1727
 4677W        W 8196   8.643   2.411   0.765 -0.0425 -0.1790  0.2553
 4678W        W 8197   5.291   8.099   2.738  0.0347 -0.2474  0.1003
 4679W        W 8198   6.687   1.164   4.085  0.1151 -0.1833  0.2071
 4680W        W 8199   1.912   0.472  11.340  0.1071 -0.1817  0.1966
 4681W        W 8200   8.462   5.401   0.556  0.0662 -0.4936  0.1581
 4682W        W 8201   2.433   4.015   1.935  0.3461  0.1534  0.0502
 4683W        W 8202   2.652   4.425   3.941  0.0395  0.0725  0.0590
 4684W        W 8203   3.343   7.217   1.408 -0.2324 -0.2889  0.0345
 4685W        W 8204   3.289   6.993  11.399 -0.0119  0.1550  0.1310
 4686W        W 8205   1.168   4.366  12.084  0.1375  0.1902  0.0008
 4687W        W 8206   6.436   4.345   3.037 -0.1027 -0.2117 -0.2453
 4688W        W 8207   3.570   9.345   0.298 -0.3642  0.1361 -0.1682
 4689W        W 8208   1.661   7.580   1.255  0.3150  0.1481 -0.0974
 4690W        W 8209   7.029   2.281   8.912 -0.0781  0.0206 -0.2657
 4691W        W 8210   5.098   2.451  12.177  0.3194 -0.0627  0.0739
 4692W        W 8211   6.325   7.293   0.773  0.1293  0.3286  0.3104
 4693W        W 8212   9.318   8.465   3.002 -0.0659 -0.2061  0.0098
 4694W        W 8213   3.928   2.749   0.129  0.0134  0.0063  0.0240
 4695W        W 8214   0.225   2.729   0.764 -0.0610  0.2642 -0.1389
 4696W        W 8215   0.059   0.434   2.348  0.0785 -0.0407  0.1803
 4697W        W 8216   8.841   4.698  10.852 -0.0714  0.0423  0.1376
 4698W        W 8217   2.923   6.923   3.722  0.0675  0.2737  0.3801
 4699W        W 8218   4.162   1.819   9.278 -0.2262  0.0046 -0.0741
 4700W        W 8219   4.656   9.272  11.984 -0.1961  0.3562  0.3680
 4701W        W 8220   3.770   1.187  11.048 -0.5492  0.0451 -0.1640
 4702W        W 8221   8.952   6.344  11.664  0.2483  0.2162  0.0486
 4703W        W 8222   7.542   8.849  11.478  0.0908  0.0501  0.3027
 4704W        W 8223   7.911   5.400   8.842 -0.2510  0.0986  0.6312
 4705W        W 8224   2.567   1.292   9.843  0.0053  0.3002 -0.0644
 4706W        W 8225   3.512   1.509   9.840  0.1089  0.1856 -0.0460
 4707W        W 8226   1.244   3.711   2.140 -0.0057  0.0148  0.0226
 4708W        W 8227   5.422   4.808  11.473 -0.1443  0.0750  0.0403
 4709W        W 8228   3.432   9.269  11.607 -0.0809  0.0039  0.2307
 4710W        W 8229   8.738   5.297   8.305 -0.0208 -0.2640  0.2636
 4711W        W 8230   5.318   2.767   4.102 -0.0800  0.2271 -0.2685
 4712W        W 8231   5.126   8.559   0.275 -0.0175  0.1016  0.2030
 4713W        W 8232   2.794   5.654   1.896 -0.3162 -0.0515  0.3921
 4714W        W 8233   6.340   3.091   3.672 -0.1602 -0.2836  0.2139
 4715W        W 8234   4.972   8.851  12.320 -0.4926 -0.2617  0.0302
 4716W        W 8235   7.124   2.304   2.776 -0.2769  0.0472  0.1344
 4717W        W 8236   0.999   0.236   1.942  0.0450  0.0839 -0.1147
 4718W        W 8237   2.156   5.874   3.068 -0.2006  0.1945 -0.2411
 4719W        W 8238   6.936   5.500   4.315 -0.2749 -0.0192 -0.0514
 4720W        W 8239   1.296   9.339  10.546  0.1672  0.1401 -0.0449
 4721W        W 8240   1.732   4.243   9.746 -0.0631 -0.0034 -0.0468
 4722W        W 8241   9.202   6.603  11.245 -0.1930  0.1113 -0.0824
 4723W        W 8242   2.133   5.097   1.817  0.0959  0.0279 -0.0680
 4724W        W 8243   6.080   5.700   2.140 -0.1089 -0.0038 -0.1551
 4725W        W 8244   1.211   2.312  11.344 -0.1789 -0.0647 -0.0532
 4726W        W 8245   1.635   0.269   9.949 -0.0482  0.2725  0.1145
 4727W        W 8246   8.727   7.537  10.564 -0.1266  0.0670  0.2401
 4728W        W 8247   0.385   5.761  10.080 -0.1385  0.0256  0.2925
 4729W        W 8248   0.313   8.735   0.383  0.1887  0.0872 -0.2040
 4730W        W 8249   0.216   5.286   8.517 -0.1488  0.0111  0.0890
 4731W        W 8250   5.571   6.966   3.789 -0.0748  0.1019 -0.0924
 4732W        W 8251   6.889   0.706  11.513 -0.2262  0.1753  0.2363
 4733W        W 8252   0.510   9.025   1.314 -0.1160 -0.0213 -0.1128
 4734W        W 8253   8.076   5.209   0.931  0.1366 -0.0293 -0.0618
 4735W        W 8254   1.182   8.329  11.094 -0.1609 -0.0537  0.1972
 4736W        W 8255   0.988   0.896   3.320 -0.1268  0.1405 -0.1265
 4737W        W 8256   2.908   9.652   2.639 -0.3652 -0.0217 -0.1194
 4738W        W 8257   0.157   1.596   1.409 -0.0825  0.2482  0.0046
 4739W        W 8258   3.878   8.189   3.590 -0.0985  0.0055  0.1367
 4740W        W 8259   3.466   4.711  11.825  0.2982 -0.1413  0.3043
 4741W        W 8260   5.181   1.415   9.668 -0.2954 -0.1709  0.2177
 4742W        W 8261   8.716   9.342   8.881 -0.2574 -0.0286  0.0899
 4743W        W 8262   3.894   2.920  10.903  0.0872  0.0038  0.1786
 4744W        W 8263   6.438   3.559   1.788 -0.1773  0.1017 -0.0484
 4745W        W 8264   1.839   3.347   3.916 -0.3321  0.1650 -0.0252
 4746W        W 8265   3.224   9.648   9.588 -0.0022 -0.2017 -0.1986
 4747W        W 8266   2.226   9.600  10.587  0.3982  0.1020 -0.1448
 4748W        W 8267   9.414   2.029  10.173  0.0089  0.0123  0.1020
 4749W        W 8268   3.777   0.006  12.408  0.0657 -0.0958 -0.3910
 4750W        W 8269   7.700   4.193   3.370  0.1148 -0.1388 -0.0137
 4751W        W 8270   9.664   2.305  11.460  0.2926 -0.2477 -0.0241
 4752W        W 8271   4.483   6.986   1.462  0.0425  0.2402 -0.0992
 4753W        W 8272   4.793   1.389  12.399 -0.0415  0.0372 -0.0598
 4754W        W 8273   4.305   0.902  11.763  0.1367 -0.0246  0.0430
 4755W        W 8274   4.915   1.325  10.802 -0.2202  0.2507 -0.0766
 4756W        W 8275   3.438   8.088   0.643 -0.0427  0.1033 -0.0638
 4757W        W 8276   2.753   2.857  11.481 -0.1292  0.2424  0.1006
 4758W        W 8277   0.714   4.415  10.234  0.1335  0.0590  0.1461
 4759W        W 8278   2.862   0.599  10.877 -0.3773 -0.1684 -0.0307
 4760W        W 8279   6.416   8.972   4.836 -0.2744 -0.0921  0.1080
 4761W        W 8280   7.814   9.704  11.029 -0.2089 -0.1080 -0.2884
 4762W        W 8281   1.523   6.540   9.420 -0.0755 -0.0322  0.2717
 4763W        W 8282   5.887   6.042   9.149 -0.0839  0.1429  0.0340
 4764W        W 8283   7.534   8.480   9.490  0.0714 -0.0203 -0.0496
 4765W        W 8284   6.348   6.229  11.876  0.0299 -0.2333  0.1349
 4766W        W 8285   7.278   3.107   3.347  0.0677 -0.0783 -0.0534
 4767W        W 8286   8.678   4.059  10.206 -0.1405 -0.0756  0.0663
 4768W        W 8287   6.573   5.777   3.930  0.0685  0.2213 -0.1689
 4769W        W 8288   9.716   4.945  10.359 -0.0807  0.0648  0.0390
 4770W        W 8289   6.664   6.689   1.093 -0.1173  0.0476  0.0078
 4771W        W 8290   8.762   4.206   2.386  0.2392 -0.1724  0.0373
 4772W        W 8291   4.916   4.703  11.795  0.3132  0.2022  0.0503
 4773W        W 8292   5.164   0.682   2.485  0.0712 -0.2082 -0.1800
 4774W        W 8293   6.890   8.479  11.442  0.2605  0.0323  0.2113
 4775W        W 8294   4.015   2.166   0.470  0.1002  0.3139 -0.2219
 4776W        W 8295   3.952   0.674  10.273  0.2960 -0.0825  0.0785
 4777W        W 8296   6.456   2.819   9.810 -0.0216  0.1038 -0.0903
 4778W        W 8297   1.068   0.651   1.686 -0.0218  0.2702  0.3063
 4779W        W 8298   2.608   8.156  11.747 -0.0144  0.1753 -0.2719
 4780W        W 8299   1.199   3.040   1.378 -0.0486  0.2623 -0.3916
 4781W        W 8300   6.731   4.707  10.943  0.1132  0.4056 -0.4717
 4782W        W 8301   0.132   3.232   0.600  0.2187  0.0182  0.0813
 4783W        W 8302   4.237   6.469   3.453 -0.0788  0.1737 -0.3145
 4784W        W 8303   8.455   7.431   0.925 -0.2553  0.0519  0.2517
 4785W        W 8304   8.421   7.843   2.955 -0.1492 -0.0398  0.2439
 4786W        W 8305   1.556   4.371   1.439  0.1083 -0.1627  0.1801
 4787W        W 8306   7.137   3.266   8.741 -0.2141 -0.2441  0.2559
 4788W        W 8307   8.134   6.674  11.816  0.0575  0.3433 -0.0008
 4789W        W 8308   2.664   6.875  10.314 -0.3700  0.3478 -0.2558
 4790W        W 8309   1.550   3.984  11.867 -0.2026  0.0502  0.2786
 4791W        W 8310   8.344   2.012  11.697  0.3193  0.0301  0.0580
 4792W        W 8311   6.092   9.004   8.628 -0.1713 -0.0504 -0.0859
 4793W        W 8312   6.996   8.111  11.893 -0.2617  0.2110 -0.0966
 4794W        W 8313   0.547   8.572   8.890 -0.3555 -0.1437  0.3533
 4795W        W 8314   6.723   3.319   4.008  0.0920  0.1436  0.2180
 4796W        W 8315   6.760   0.241  12.156  0.1999  0.0134 -0.1632
 4797W        W 8316   8.051   8.079   4.202  0.1955 -0.1980  0.2372
 4798W        W 8317   1.083   5.520   0.748  0.0212  0.0243 -0.0414
 4799W        W 8318   0.762   4.048   3.766 -0.2547 -0.0605  0.0361
 4800W        W 8319   0.214   3.762  12.446  0.1627 -0.0150 -0.3217
 4801W        W 8320   5.119   7.914   0.766  0.0894  0.3122 -0.0014
 4802W        W 8321   4.784   9.351   8.523  0.0041 -0.1174 -0.2289
 4803W        W 8322   5.302   0.676  10.586 -0.0583 -0.0816 -0.0498
 4804W        W 8323   3.526   8.844  10.175  0.1703 -0.1491  0.0955
 4805W        W 8324   4.145   4.639   1.661  0.2764  0.1682 -0.1557
 4806W        W 8325   2.974   7.738   2.652  0.1419  0.3479 -0.1447
 4807W        W 8326   3.290   3.795  12.358 -0.0855  0.1200  0.2151
 4808W        W 8327   0.869   6.243   1.254  0.2125  0.0139 -0.0572
 4809W        W 8328   7.706   2.203   2.040  0.2984 -0.4928  0.0971
 4810W        W 8329   6.265   5.080   4.626 -0.2556 -0.1366 -0.0083
 4811W        W 8330   5.339   6.429   1.349 -0.4159 -0.0170  0.2863
 4812W        W 8331   7.104   2.098  10.337  0.0212 -0.3650 -0.0701
 4813W        W 8332   1.993   4.274  10.678 -0.0195 -0.0227 -0.0316
 4814W        W 8333   8.302   7.440   9.327  0.2945 -0.1546  0.1104
 4815W        W 8334   7.484   6.827  10.203 -0.0391 -0.3135  0.3026
 4816W        W 8335   3.110   7.793   8.696  0.1922 -0.1195 -0.0821
 4817W        W 8336   3.309   3.710   0.835 -0.0999 -0.0916 -0.2315
 4818W        W 8337   2.379   7.947  11.002  0.0925  0.0561 -0.0171
 4819W        W 8338   7.942   9.223   0.682  0.0604 -0.0999  0.2333
 4820W        W 8339   0.663   5.326   1.132 -0.1232 -0.1195  0.3294
 4821W        W 8340   3.253   8.582  10.694 -0.1603 -0.0032  0.1308
 4822W        W 8341   3.547   1.359   8.883 -0.0362  0.1496  0.0409
 4823W        W 8342   1.182   8.470   2.031 -0.0999 -0.0716 -0.0694
 4824W        W 8343   8.102   0.824  10.510  0.0005 -0.0328 -0.0777
 4825W        W 8344   6.652   6.923   9.563 -0.1015  0.0302 -0.0021
 4826W        W 8345   7.071   9.533   3.801 -0.3732 -0.0792  0.0114
 4827W        W 8346   4.005   9.676   0.354  0.0590 -0.1041  0.0144
 4828W        W 8347   6.937   4.032   0.122  0.1759  0.0018 -0.3916
 4829W        W 8348   3.783   3.577   4.200 -0.1617 -0.0343 -0.1788
 4830W        W 8349   1.720   9.029   1.298  0.0056  0.0006  0.0007
 4831W        W 8350   0.331   4.808   1.638  0.0393  0.0558  0.0143
 4832W        W 8351   2.446   2.415  11.722 -0.0712  0.0106  0.1880
 4833W        W 8352   3.338   9.190   9.265 -0.0452 -0.4287  0.0753
 4834W        W 8353   8.715   4.168   9.700  0.1574  0.2838 -0.2172
 4835W        W 8354   5.468   2.352   3.269 -0.0687 -0.0868 -0.1336
 4836W        W 8355   0.228   4.639  10.720 -0.0753 -0.0502  0.3914
 4837W        W 8356   6.048   6.329   4.403 -0.1605 -0.1836  0.0374
 4838W        W 8357   3.624   1.272  11.977  0.2846 -0.0034 -0.0303
 4839W        W 8358   3.104   0.910   9.942  0.1052  0.1703 -0.1822
 4840W        W 8359   6.851   7.420   9.691 -0.0404 -0.1704 -0.1249
 4841W        W 8360   1.685   8.826   8.591  0.0878 -0.2762 -0.1538
 4842W        W 8361   0.902   1.012   2.082  0.0275  0.3738 -0.1121
 4843W        W 8362   6.664   6.737   8.002  0.1998 -0.0804 -0.0677
 4844W        W 8363   7.295   7.601  10.984  0.0478  0.0223 -0.1553
 4845W        W 8364   8.577   3.225   3.344 -0.2083  0.1224 -0.2553
 4846W        W 8365   1.846   6.458   9.937 -0.1298  0.0132 -0.1827
 4847W        W 8366   8.147   6.653   0.480  0.2527  0.0298 -0.0040
 4848W        W 8367   2.126   0.247   3.393  0.0808  0.0726  0.0901
 4849W        W 8368   7.374   3.713   1.668 -0.2556 -0.0412 -0.0682
 4850W        W 8369   4.584   1.255   8.455  0.2331  0.0550 -0.2197
 4851W        W 8370   9.117   0.656  10.422  0.0695 -0.0042 -0.2920
 4852W        W 8371   6.136   0.166   1.138 -0.1738 -0.2129  0.1549
 4853W        W 8372   9.116   5.110   1.617 -0.2839 -0.1579 -0.1338
 4854W        W 8373   0.890   6.031   2.286  0.1406  0.1888 -0.0638
 4855W        W 8374   5.065   6.949   2.298  0.1749  0.3350 -0.2060
 4856W        W 8375   6.318   5.979   8.148  0.2789  0.1805 -0.2038
 4857W        W 8376   6.034   9.668   8.530 -0.0373 -0.2043  0.1715
 4858W        W 8377   6.157   0.451  10.910 -0.1949  0.2362 -0.0943
 4859W        W 8378   9.153   8.012   2.421 -0.1851  0.0349 -0.1815
 4860W        W 8379   3.215   5.061   9.610 -0.0480  0.2592  0.3509
 4861W        W 8380   6.671   5.111   1.449 -0.0881  0.0032  0.0551
 4862W        W 8381   9.554   6.620   0.560  0.0456  0.0020  0.4540
 4863W        W 8382   8.614   9.221   2.479 -0.2700  0.2473 -0.1382
 4864W        W 8383   5.386   8.733   3.579 -0.1280 -0.0728 -0.1554
 4865W        W 8384   3.637   9.711  10.246  0.2845  0.1846  0.0889
 4866W        W 8385   0.224   3.670  10.522  0.1681  0.0935  0.4045
 4867W        W 8386   7.910   7.195   2.282 -0.1108 -0.6323  0.0039
 4868W        W 8387   6.574   5.519   2.547  0.0342  0.2185  0.2579
 4869W        W 8388   4.186   7.805   2.886 -0.0963  0.0066 -0.1066
 4870W        W 8389   4.928   4.185   0.511 -0.1214  0.1129 -0.2058
 4871W        W 8390   7.203   6.985  12.186  0.0507 -0.1193  0.0146
 4872W        W 8391   7.064   5.982   0.497  0.2058 -0.4043  0.2098
 4873W        W 8392   5.251   1.969   8.785 -0.1986  0.1340 -0.2371
 4874W        W 8393   5.910   4.291   0.872  0.2375  0.3897  0.2078
 4875W        W 8394   6.440   1.571   1.284 -0.1675 -0.0753 -0.0824
 4876W        W 8395   2.333   6.368   1.208  0.0869  0.1777 -0.0948
 4877W        W 8396   3.194   1.562   0.386  0.2304 -0.0163  0.0665
 4878W        W 8397   6.664   5.083   0.567  0.3273  0.3305  0.0234
 4879W        W 8398   7.666   5.788   1.753  0.1379  0.0880 -0.6519
 4880W        W 8399   0.796   8.474  10.795 -0.1201 -0.1022  0.1457
 4881W        W 8400   1.846   9.644   1.910 -0.1987  0.1257 -0.1448
 4882W        W 8401   1.594   8.957   2.672  0.1654 -0.0967  0.0697
 4883W        W 8402   5.533   2.856   0.790 -0.0951 -0.3089 -0.1442
 4884W        W 8403   6.734   3.920   8.730  0.0415 -0.1997 -0.3467
 4885W        W 8404   5.591   2.541   2.388 -0.0715 -0.3754 -0.3633
 4886W        W 8405   5.587   1.803   0.302 -0.1518  0.4167  0.1248
 4887W        W 8406   1.153   8.914   2.416 -0.0903 -0.0581 -0.2551
 4888W        W 8407   6.459   1.132   9.472 -0.0388 -0.0868  0.2922
 4889W        W 8408   0.180   8.225   0.476  0.2496  0.1839 -0.1221
 4890W        W 8409   7.424   3.154   0.997  0.0735  0.2109  0.0845
 4891W        W 8410   4.747   8.761   2.181  0.2198 -0.2811  0.4285
 4892W        W 8411   1.902   3.857   0.085  0.1179 -0.1458 -0.1008
 4893W        W 8412   6.189   0.709   2.481 -0.1570  0.0068 -0.1581
 4894W        W 8413   4.640   7.111   4.625 -0.0223 -0.0034 -0.2085
 4895W        W 8414   5.744   5.794   2.725 -0.2584  0.0243 -0.2289
 4896W        W 8415   7.317   4.325   2.474  0.1381  0.3852 -0.1685
 4897W        W 8416   9.284   7.054   3.183 -0.1726 -0.1817  0.2228
 4898W        W 8417   3.646   5.484   0.890 -0.1530 -0.1447  0.3544
 4899W        W 8418   7.980   3.033   8.471 -0.1069  0.1943 -0.0470
 4900W        W 8419   6.405   1.503  10.817 -0.0930  0.0185 -0.0551
 4901W        W 8420   7.958   3.733  10.842  0.2007 -0.4357 -0.0432
 4902W        W 8421   8.075   8.385   9.556  0.2174  0.3959 -0.1226
 4903W        W 8422   7.559   5.367   0.993  0.3364 -0.0414  0.2876
 4904W        W 8423   4.198   0.693   1.799  0.1584 -0.2674  0.1171
 4905W        W 8424   9.414   7.076   2.073  0.1864 -0.1971 -0.1141
 4906W        W 8425   5.172   1.615   4.246 -0.3702  0.0184  0.3002
 4907W        W 8426   5.744   5.471   1.721  0.0890  0.1268 -0.1410
 4908W        W 8427   9.407   8.075   8.772 -0.0055  0.0884 -0.0351
 4909W        W 8428   4.427   7.671   2.482 -0.0491  0.4114 -0.0960
 4910W        W 8429   6.528   4.666   8.126 -0.0074  0.2547  0.0436
 4911W        W 8430   5.369   8.575  11.519  0.2828 -0.0117 -0.0383
 4912W        W 8431   1.506   1.559   1.842  0.2231  0.0924  0.5019
 4913W        W 8432   9.638   5.775   3.312 -0.0969 -0.3041  0.0076
 4914W        W 8433   2.967   7.681   9.397  0.2007 -0.2623  0.2609
 4915W        W 8434   8.361   9.126   2.961  0.0160 -0.0730  0.1132
 4916W        W 8435   1.335   5.808   2.163  0.0742  0.1278 -0.1360
 4917W        W 8436   0.952   1.548   0.831  0.0854  0.1441  0.1146
 4918W        W 8437   4.607   9.233   8.965  0.1100  0.1436  0.1657
 4919W        W 8438   4.541   0.484  11.953  0.1320  0.1389  0.2140
 4920W        W 8439   6.511   9.330   1.927 -0.0665  0.2506 -0.0107
 4921W        W 8440   0.609   2.606   2.555 -0.1216  0.1146 -0.1318
 4922W        W 8441   5.521   1.614  10.371  0.0123  0.0680  0.2963
 4923W        W 8442   3.200   4.935   8.977  0.2321  0.1116 -0.1766
 4924W        W 8443   7.262   7.488   0.616  0.2189 -0.1137 -0.0565
 4925W        W 8444   3.644   7.288   1.812 -0.0451  0.3082  0.2188
 4926W        W 8445   8.676   8.611  10.197 -0.0480  0.2606 -0.0148
 4927W        W 8446   4.906   2.338   1.987 -0.0714 -0.1613  0.2069
 4928W        W 8447   6.361   5.002  11.240  0.1665  0.0525  0.1310
 4929W        W 8448   3.571   4.886  11.339  0.0519 -0.1433  0.0045
 4930W        W 8449   6.224   0.147   9.178  0.1426  0.2969  0.0590
 4931W        W 8450   2.213   1.507   9.348  0.1131  0.1372 -0.0534
 4932W        W 8451   2.807   4.226  12.118  0.1475  0.0797  0.0389
 4933W        W 8452   2.368   8.074   9.947  0.0207 -0.0156  0.2319
 4934W        W 8453   2.667   4.590   3.491  0.1519  0.0626  0.4174
 4935W        W 8454   5.254   2.214   1.529  0.0823 -0.0321 -0.0446
 4936W        W 8455   5.958   5.073  10.471  0.4612  0.2669  0.2275
 4937W        W 8456   5.989   9.547  10.020 -0.1292  0.1509 -0.0919
 4938W        W 8457   1.725   8.270   0.308 -0.1281 -0.0513 -0.4256
 4939W        W 8458   4.020   3.601   9.792  0.2359  0.0629  0.0116
 4940W        W 8459   3.038   4.091   2.581  0.0209  0.3167  0.0640
 4941W        W 8460   5.136   1.567   9.087 -0.0758  0.1703 -0.1775
 4942W        W 8461   3.562   2.477   0.452 -0.1590  0.1680 -0.0607
 4943W        W 8462   1.482   9.520  12.356 -0.1611  0.0905 -0.0644
 4944W        W 8463   4.321   4.235   2.144 -0.0591  0.0039  0.0706
 4945W        W 8464   8.105   4.032   0.437 -0.2103 -0.1206  0.0327
 4946W        W 8465   2.919   8.822  10.200 -0.2321 -0.0025 -0.0361
 4947W        W 8466   2.767   4.936  10.719  0.0939  0.1112  0.3264
 4948W        W 8467   1.953   4.137   8.651  0.3261  0.0719 -0.0508
 4949W        W 8468   6.182   7.412   2.061 -0.0444 -0.2977  0.0259
 4950W        W 8469   4.203   6.548  12.335 -0.1689 -0.2219  0.1595
 4951W        W 8470   4.587   5.025  10.555 -0.2090 -0.3892 -0.1633
 4952W        W 8471   3.904   6.811  11.638  0.0355 -0.0556  0.2571
 4953W        W 8472   7.154   6.671  10.589 -0.1169  0.2651 -0.2111
 4954W        W 8473   0.376   4.841   8.601 -0.2855 -0.2925  0.0595
 4955W        W 8474   0.796   1.265   9.854  0.1266 -0.1342  0.1761
 4956W        W 8475   5.146   6.986   3.356  0.1924 -0.0861 -0.3019
 4957W        W 8476   4.579   4.372   1.090  0.1552 -0.1755  0.0054
 4958W        W 8477   0.717   7.601  12.312  0.0208 -0.0978  0.0716
 4959W        W 8478   0.013   9.392  11.363  0.3798  0.2272 -0.1160
 4960W        W 8479   4.036   5.554  10.986 -0.0803  0.0642  0.0327
 4961W        W 8480   6.175   6.557   0.999  0.1205 -0.0704 -0.3525
 4962W        W 8481   3.304   1.795   1.300 -0.0646  0.0084  0.0335
 4963W        W 8482   6.128   9.524   2.883  0.3111 -0.0316 -0.1301
 4964W        W 8483   8.446   1.221   1.948  0.1196  0.1058  0.0368
 4965W        W 8484   4.039   6.831  10.981  0.0518  0.3471  0.0518
 4966W        W 8485   5.236   5.785  12.428  0.0316 -0.2725 -0.0591
 4967W        W 8486   9.408   2.954  11.041  0.2490 -0.0171 -0.0021
 4968W        W 8487   5.622   4.162   8.736  0.0572 -0.0016  0.0594
 4969W        W 8488   5.670   1.498  12.341 -0.0338 -0.2158  0.1401
 4970W        W 8489   7.125   1.524   4.129  0.3129 -0.2931 -0.2054
 4971W        W 8490   8.768   2.675   1.242 -0.2435 -0.0406 -0.1825
 4972W        W 8491   7.676   9.228  11.716  0.5279  0.1402  0.0173
 4973W        W 8492   5.174   9.403  12.145  0.0413 -0.0980 -0.3566
 4974W        W 8493   6.391   5.234   2.916  0.3100  0.1393 -0.0905
 4975W        W 8494   7.048   1.845   2.943  0.2881 -0.0683 -0.0698
 4976W        W 8495   8.192   7.986   8.462  0.2241  0.0777 -0.0958
 4977W        W 8496   1.693   9.177   1.763  0.1092 -0.0631  0.2830
 4978W        W 8497   5.635   2.371   8.683 -0.0105 -0.0168  0.0580
 4979W        W 8498   5.022   7.182   3.825 -0.1599 -0.2263 -0.0603
 4980W        W 8499   5.661   5.778   0.898  0.1659  0.0136 -0.2559
 4981W        W 8500   4.059   3.936  11.514  0.2412  0.0489 -0.0830
 4982W        W 8501   5.823   1.879   8.782 -0.0431  0.0116  0.2069
 4983W        W 8502   4.020   5.950   3.963  0.0906 -0.1794  0.2766
 4984W        W 8503   3.089   0.873  10.456  0.0397  0.1653  0.0247
 4985W        W 8504   5.568   1.000   0.070 -0.0704  0.0353 -0.2289
 4986W        W 8505   8.353   5.526   3.948 -0.2080  0.1577 -0.1244
 4987W        W 8506   9.266   3.197   9.641 -0.6354  0.0304  0.0449
 4988W        W 8507   7.049   4.826   3.111  0.1342  0.0120  0.2244
 4989W        W 8508   0.121   6.992   0.243  0.0220 -0.1023 -0.0756
 4990W        W 8509   5.619   5.563   2.261 -0.4024  0.1468  0.2422
 4991W        W 8510   1.640   5.421   1.128  0.2664 -0.3735 -0.0787
 4992W        W 8511   8.789   5.524   2.743 -0.0058 -0.0395 -0.0563
 4993W        W 8512   8.848   7.819   3.591  0.4583 -0.0759 -0.1322
 4994W        W 8513   1.975   3.443   1.014 -0.2875  0.1123  0.1386
 4995W        W 8514   5.145   1.330  11.434 -0.1654  0.1590  0.6025
 4996W        W 8515   6.703   0.008   2.410 -0.4262  0.0838  0.0449
 4997W        W 8516   4.259   8.166   9.463  0.0572  0.0275  0.0628
 4998W        W 8517   6.214   5.018   1.040  0.2943 -0.1432 -0.5016
 4999W        W 8518   1.500   5.451   7.967  0.1722  0.0384 -0.0594
 5000W        W 8519   8.311   2.507   1.342  0.0595  0.0465  0.0450
 5001W        W 8520   3.611   7.355   9.389  0.2178 -0.1083 -0.1548
 5002W        W 8521   6.984   8.094   8.409 -0.2208  0.0028 -0.4552
 5003W        W 8522   9.256   8.128  11.322 -0.0093  0.1124 -0.2940
 5004W        W 8523   4.866   5.613   2.226 -0.1471  0.1682  0.1148
 5005W        W 8524   2.416   7.258   2.919  0.1563 -0.0470  0.0885
 5006W        W 8525   1.353   0.100  10.427 -0.2091  0.0084  0.0671
 5007W        W 8526   6.460   2.575   3.401 -0.1159 -0.3211 -0.0212
 5008W        W 8527   8.161   9.701   9.623 -0.0839 -0.0779 -0.0769
 5009W        W 8528   1.443   5.876   1.630  0.1638 -0.2216 -0.2954
 5010W        W 8529   0.751   3.378   8.374  0.4310  0.0965  0.3071
 5011W        W 8530   1.224   4.810   8.420 -0.1539  0.1414  0.2059
 5012W        W 8531   4.369   1.741   4.075 -0.3146  0.0961 -0.0932
 5013W        W 8532   2.579   4.555  12.362 -0.2095  0.0215 -0.1863
 5014W        W 8533   5.242   6.556  11.387  0.2114 -0.1432  0.1035
 5015W        W 8534   8.991   7.044   9.008  0.1527 -0.2934 -0.2025
 5016W        W 8535   3.111   5.635   9.881  0.2432  0.0339  0.0042
 5017W        W 8536   4.672   4.551   4.826 -0.0259  0.1575  0.2484
 5018W        W 8537   0.256   3.202  12.431  0.0906 -0.1225  0.1243
 5019W        W 8538   3.014   8.260  10.309 -0.2948 -0.0125  0.5012
 5020W        W 8539   8.303   3.576   0.748  0.1427 -0.3176  0.0991
 5021W        W 8540   8.904   2.266  11.924  0.1778  0.0867 -0.0265
 5022W        W 8541   2.958   4.539   1.337 -0.0461  0.1770  0.4530
 5023W        W 8542   3.546   3.604   2.956 -0.3951 -0.1771 -0.1782
 5024W        W 8543   1.577   6.602   0.871  0.0040  0.1449  0.1660
 5025W        W 8544   4.220   5.294  12.017  0.0934  0.1604  0.1091
 5026W        W 8545   2.789   5.099   9.265  0.2560  0.2591  0.0139
 5027W        W 8546   0.649   7.919   8.179  0.5877  0.2047  0.0329
 5028W        W 8547   7.488   5.884   1.322  0.0813 -0.3005 -0.2338
 5029W        W 8548   9.543   1.171  11.546 -0.0417 -0.1458 -0.4151
 5030W        W 8549   1.457   6.083   9.657  0.1222 -0.0835  0.0744
 5031W        W 8550   1.983   9.260   0.945  0.2375 -0.1937  0.2394
 5032W        W 8551   5.421   9.188   9.249 -0.1285 -0.1871 -0.2136
 5033W        W 8552   9.071   1.160   1.280  0.0327 -0.0477 -0.0669
 5034W        W 8553   9.008   0.285  10.063 -0.0480 -0.2412 -0.3124
 5035W        W 8554   0.326   5.882   0.324 -0.2100 -0.0611 -0.0990
 5036W        W 8555   3.881   9.457   1.102  0.1394  0.1038  0.0133
 5037W        W 8556   5.546   3.029   1.712  0.0150  0.2061  0.1926
 5038W        W 8557   0.892   3.740   8.689 -0.5449  0.0383  0.0183
 5039W        W 8558   2.549   8.504  10.086  0.0442 -0.0456  0.0419
 5040W        W 8559   2.317   8.207  10.463 -0.0895 -0.0271  0.1675
 5041W        W 8560   3.504   2.054  11.092 -0.0362  0.0863  0.1732
 5042W        W 8561   3.111   6.339   0.674 -0.1730 -0.1569 -0.1590
 5043W        W 8562   7.229   4.858   4.030  0.2491  0.2472 -0.0997
 5044W        W 8563   7.836   7.994  11.487  0.1808 -0.0346  0.2448
 5045W        W 8564   8.480   8.588   0.533  0.1039  0.2126 -0.4731
 5046W        W 8565   6.017   8.305  10.853 -0.1695 -0.2185  0.0055
 5047W        W 8566   8.820   1.883   1.629 -0.1576  0.1051  0.0901
 5048W        W 8567   0.796   6.912  10.810 -0.0073  0.0614  0.2669
 5049W        W 8568   7.701   6.728   9.775  0.0869 -0.0960 -0.0798
 5050W        W 8569   1.536   4.768  11.243  0.0899  0.0774  0.0777
 5051W        W 8570   8.198   8.770   8.758 -0.0426  0.0437  0.3792
 5052W        W 8571   5.410   1.179   4.463 -0.1500 -0.2305 -0.1515
 5053W        W 8572   7.560   4.290   4.715 -0.3320  0.0307 -0.1319
 5054W        W 8573   5.622   2.546   3.777 -0.0607  0.2264 -0.1122
 5055W        W 8574   8.014   7.085  10.529  0.1597 -0.0449  0.0241
 5056W        W 8575   1.443   6.310   1.923  0.3516 -0.0343 -0.2734
 5057W        W 8576   7.242   0.388   9.759  0.1252  0.0476 -0.4847
 5058W        W 8577   6.773   7.226   3.255  0.0169 -0.1900 -0.1465
 5059W        W 8578   7.010   6.984  10.216  0.0359 -0.0674 -0.0900
 5060W        W 8579   9.543   6.681   0.014  0.3291 -0.0090  0.2367
 5061W        W 8580   6.811   0.194  11.671 -0.0001  0.1355 -0.1208
 5062W        W 8581   3.263   6.380   1.618 -0.2875  0.0284 -0.0989
 5063W        W 8582   7.658   5.708   3.362 -0.1345 -0.0735  0.0235
 5064W        W 8583   7.514   1.161   2.747 -0.0367 -0.1344 -0.0855
 5065W        W 8584   9.532   8.092  12.415  0.1725 -0.0100 -0.1106
 5066W        W 8585   1.969   4.087   3.325  0.0702 -0.3625 -0.1878
 5067W        W 8586   3.846   8.848   9.023  0.3858  0.1131  0.0309
 5068W        W 8587   2.699   7.473   8.388 -0.1500  0.2045 -0.2288
 5069W        W 8588   8.270   1.104   3.410 -0.1027 -0.1409  0.2317
 5070W        W 8589   0.469   3.364  10.146  0.2080 -0.2236 -0.1045
 5071W        W 8590   3.710   5.183  11.752  0.1324  0.1335 -0.2487
 5072W        W 8591   3.671   3.101  10.442 -0.2295 -0.1252  0.2840
 5073W        W 8592   0.106   2.122  11.846 -0.1336  0.1326  0.0737
 5074W        W 8593   8.668   8.871   9.070 -0.0249 -0.2062  0.1079
 5075W        W 8594   0.956   0.372   2.484  0.1588  0.4973  0.4806
 5076W        W 8595   1.070   8.260   8.229 -0.3653 -0.1510  0.0771
 5077W        W 8596   5.828   2.137   0.612 -0.2927  0.1674  0.0560
 5078W        W 8597   7.503   9.126  10.998 -0.2471  0.0320 -0.0181
 5079W        W 8598   7.838   1.084   8.877  0.1328 -0.1862  0.2379
 5080W        W 8599   3.607   7.651   0.760  0.1531  0.1310 -0.1193
 5081W        W 8600   4.816   7.872   9.430  0.0649  0.1625 -0.2484
 5082W        W 8601   7.128   4.177   3.435 -0.0941  0.0974  0.2049
 5083W        W 8602   9.136   0.491  11.378  0.0231  0.0544 -0.2736
 5084W        W 8603   3.858   1.247   0.709  0.3718  0.0061 -0.1035
 5085W        W 8604   8.866   5.652  12.256  0.0246 -0.0756 -0.0787
 5086W        W 8605   3.998   3.653   2.716  0.0192 -0.5669  0.1022
 5087W        W 8606   7.622   5.861  10.553  0.0097  0.1656  0.0357
 5088W        W 8607   6.042   6.359  11.202 -0.0856 -0.2003  0.1969
 5089W        W 8608   2.118   4.124   2.776 -0.1472  0.0234  0.0877
 5090W        W 8609   0.537   3.984  11.645  0.0122  0.4047  0.2059
 5091W        W 8610   2.416   3.624   0.203  0.1745  0.1291  0.1222
 5092W        W 8611   3.789   2.534  11.545 -0.1697 -0.3358  0.1837
 5093W        W 8612   3.020   4.075   1.221  0.1206 -0.1770  0.2093
 5094W        W 8613   6.884   5.528   1.688  0.0411 -0.1953  0.1833
 5095W        W 8614   5.242   9.680   3.934 -0.1348  0.0042 -0.0373
 5096W        W 8615   1.430   0.077   2.263  0.0548  0.3054 -0.0435
 5097W        W 8616   6.861   5.889   9.108  0.1021  0.0568 -0.3785
 5098W        W 8617   7.563   0.841   2.375  0.2890  0.2601  0.0679
 5099W        W 8618   3.435   0.193   0.308  0.1555 -0.0419  0.2539
 5100W        W 8619   4.437   5.283   8.117  0.3870  0.0515 -0.2115
 5101W        W 8620   3.630   3.993  11.043  0.0382 -0.0623  0.0440
 5102W        W 8621   9.210   5.381   9.115 -0.0690 -0.2252 -0.4278
 5103W        W 8622   6.939   0.516   3.165 -0.0662 -0.3463  0.2180
 5104W        W 8623   0.093   4.221   9.066 -0.0528  0.2965  0.1336
 5105W        W 8624   8.548   6.352   4.505  0.1121  0.2790 -0.1115
 5106W        W 8625   7.885   0.559   2.081  0.1837 -0.2193 -0.0497
 5107W        W 8626   7.980   1.198  10.206 -0.0106 -0.2246  0.4613
 5108W        W 8627   3.058   1.880  11.289 -0.2602 -0.1718 -0.0886
 5109W        W 8628   5.825   1.978  10.571  0.2148 -0.1633  0.0551
 5110W        W 8629   1.295   1.758   2.284 -0.0507 -0.2513  0.2646
 5111W        W 8630   3.726   2.479  11.060  0.0277 -0.1235 -0.1295
 5112W        W 8631   4.912   4.191   4.400  0.2204 -0.0593  0.0883
 5113W        W 8632   0.621   3.072  10.609 -0.2310 -0.0205 -0.0709
 5114W        W 8633   0.811   1.111   0.086 -0.0248 -0.0881 -0.4023
 5115W        W 8634   4.728   9.271  11.367 -0.1541 -0.1064 -0.1578
 5116W        W 8635   4.009   5.130   1.417 -0.0293  0.0034  0.1625
 5117W        W 8636   8.201   2.286   9.830 -0.0469  0.1865  0.0800
 5118W        W 8637   7.737   2.543   0.349  0.1465  0.1672 -0.0488
 5119W        W 8638   0.289   1.965   0.215  0.0549 -0.2966  0.2075
 5120W        W 8639   5.725   3.373   2.324 -0.0509  0.2706 -0.4368
 5121W        W 8640   0.991   0.800   9.774 -0.2064  0.1309 -0.2146
 5122W        W 8641   7.981   9.489   2.847  0.3894 -0.0212 -0.3554
 5123W        W 8642   0.726   6.012   9.737 -0.0145  0.0275 -0.1820
 5124W        W 8643   2.081   9.183  11.283 -0.0709  0.2264  0.1167
 5125W        W 8644   5.431   8.655  10.177 -0.1928 -0.1472  0.0617
 5126W        W 8645   5.282   1.959  11.946 -0.1608 -0.0487 -0.2241
 5127W        W 8646   7.402   2.348   8.389  0.1853  0.3259  0.1524
 5128W        W 8647   7.189   6.545   2.440 -0.1037  0.2673  0.0250
 5129W        W 8648   8.221   0.197  10.474  0.2249 -0.1601  0.3609
 5130W        W 8649   2.162   3.195   0.270  0.3166  0.0234 -0.1229
 5131W        W 8650   0.797   5.801   8.883  0.1448 -0.4575 -0.1087
 5132W        W 8651   9.242   3.972   9.731  0.1280  0.1694  0.3107
 5133W        W 8652   7.092   5.638  11.955  0.2472  0.2595 -0.1647
 5134W        W 8653   7.922   4.790   9.855 -0.2551 -0.1748 -0.3456
 5135W        W 8654   6.549   0.841   3.609  0.2490  0.0284  0.5130
 5136W        W 8655   7.485   8.374   2.957  0.0587 -0.0367 -0.2411
 5137W        W 8656   1.490   8.687   1.678 -0.0601  0.0816 -0.2826
 5138W        W 8657   2.182   1.961  10.640 -0.1643 -0.0684  0.0677
 5139W        W 8658   0.477   7.529  11.933  0.2860 -0.0411  0.1099
 5140W        W 8659   7.095   9.618   0.615 -0.2544  0.0867  0.1719
 5141W        W 8660   9.419   5.964  12.327  0.5343 -0.2311  0.0037
 5142W        W 8661   3.872   3.184   2.964  0.1593 -0.2996  0.4997
 5143W        W 8662   8.748   5.884  10.691 -0.1228  0.0651  0.0297
 5144W        W 8663   7.040   5.439   3.684 -0.0574 -0.0279 -0.4594
 5145W        W 8664   5.064   8.539  11.036  0.3138 -0.0517  0.0632
 5146W        W 8665   4.989   7.491  12.421 -0.2975  0.0430  0.4174
 5147W        W 8666   7.750   3.943  12.203  0.1720 -0.0587  0.1074
 5148W        W 8667   0.393   5.512   2.970 -0.2182  0.0203 -0.2838
 5149W        W 8668   6.568   9.712   3.152  0.1372 -0.4462  0.1008
 5150W        W 8669   8.150   2.306   2.601  0.0351 -0.2262  0.1134
 5151W        W 8670   8.684   2.322   9.834 -0.1668 -0.0381 -0.1122
 5152W        W 8671   1.986   4.390  12.461  0.0520  0.0038  0.0208
 5153W        W 8672   3.479   5.916  12.327  0.1482 -0.0765  0.0968
 5154W        W 8673   1.820   8.022   9.145  0.0592 -0.1010 -0.0100
 5155W        W 8674   7.149   6.997   0.599 -0.1311  0.3978 -0.0391
 5156W        W 8675   3.829   8.522   0.649 -0.1143 -0.2214  0.0794
 5157W        W 8676   7.603   2.502   2.618 -0.0127 -0.1622 -0.2109
 5158W        W 8677   8.551   6.971   3.860 -0.1583  0.2551  0.0747
 5159W        W 8678   0.129   9.310  12.329  0.0190  0.0672  0.1857
 5160W        W 8679   3.419   5.021  12.213 -0.0285  0.2906  0.0587
 5161W        W 8680   6.901   6.607   2.946 -0.1339 -0.3887  0.3374
 5162W        W 8681   4.849   6.083   2.343  0.2743 -0.2758  0.1703
 5163W        W 8682   3.458   1.042  11.503 -0.0218 -0.2336 -0.0863
 5164W        W 8683   8.725   3.628   1.653  0.2596 -0.0967  0.1335
 5165W        W 8684   3.195   5.194  10.114 -0.1565 -0.4955 -0.1697
 5166W        W 8685   7.614   8.937   1.670  0.1729 -0.1832 -0.0091
 5167W        W 8686   3.721   2.032   3.570  0.1561  0.1748  0.1474
 5168W        W 8687   4.464   5.724   8.800 -0.1988 -0.0212  0.3375
 5169W        W 8688   2.011   6.243   0.759  0.1620  0.0750  0.0705
 5170W        W 8689   4.544   4.762  11.385 -0.0451  0.1004 -0.1293
 5171W        W 8690   2.232   5.472   3.550  0.0496  0.1841 -0.1579
 5172W        W 8691   6.715   6.179   4.133  0.1187  0.2168  0.0003
 5173W        W 8692   8.744   4.160   1.825 -0.0468  0.1952  0.3469
 5174W        W 8693   4.248   7.915   1.970  0.0310 -0.1687  0.0168
 5175W        W 8694   5.948   5.450  10.879 -0.1444 -0.1648  0.2095
 5176W        W 8695   7.944   6.171   9.852  0.3281 -0.1433  0.0505
 5177W        W 8696   8.616   3.602  12.288 -0.0306  0.1454 -0.1573
 5178W        W 8697   2.689   2.418   1.193  0.0126  0.1704  0.1320
 5179W        W 8698   0.085   1.266  12.015 -0.1640 -0.2641  0.1135
 5180W        W 8699   9.073   7.169  11.504 -0.1881 -0.0789  0.3778
 5181W        W 8700   2.610   6.135   0.855  0.0267  0.1274  0.3102
 5182W        W 8701   6.734   8.023  11.482 -0.0015 -0.1765 -0.1061
 5183W        W 8702   4.627   6.706   8.767 -0.1247 -0.1202 -0.3318
 5184W        W 8703   4.666   5.200  11.580 -0.1357 -0.0683 -0.2021
 5185W        W 8704   8.325   8.880   2.171  0.0539 -0.1882 -0.0310
 5186W        W 8705   4.810   4.677   0.385 -0.3654 -0.3369  0.3482
 5187W        W 8706   7.331   3.958  11.506  0.2041  0.1486 -0.2151
 5188W        W 8707   3.696   3.494   1.396  0.2677  0.0332  0.0928
 5189W        W 8708   5.396   2.394   1.077  0.2726 -0.0644  0.0759
 5190W        W 8709   2.777   1.526  12.008  0.0867  0.0256  0.1277
 5191W        W 8710   4.410   4.288   9.315  0.1817  0.0469  0.1337
 5192W        W 8711   2.220   1.676   2.179 -0.4731 -0.2397  0.2823
 5193W        W 8712   4.837   5.438   8.464 -0.2047 -0.0187  0.0371
 5194W        W 8713   1.325   8.072   2.343 -0.2140 -0.2258  0.0922
 5195W        W 8714   9.267   2.005  11.736  0.1732 -0.0066  0.0201
 5196W        W 8715   4.564   4.488  10.383  0.1495  0.1772  0.0122
 5197W        W 8716   1.368   6.305   1.322 -0.0774  0.0745  0.0365
 5198W        W 8717   2.859   4.649   1.819 -0.1665  0.2327  0.2523
 5199W        W 8718   5.240   9.583   2.185 -0.2647  0.0293  0.1158
 5200W        W 8719   7.620   2.115  10.549 -0.3862 -0.1647  0.2755
 5201W        W 8720   6.158   9.522  10.513 -0.0425  0.0394  0.1099
 5202W        W 8721   2.582   1.425   8.994 -0.0948 -0.2601  0.0307
 5203W        W 8722   0.782   3.562  10.535 -0.0709  0.0605 -0.2227
 5204W        W 8723   2.499   5.075   3.450 -0.2675 -0.1453  0.1202
 5205W        W 8724   7.965   5.552   0.601 -0.1263 -0.1671 -0.1546
 5206W        W 8725   8.913   2.736  11.161 -0.0394  0.2626 -0.0765
 5207W        W 8726   4.137   5.642   0.782  0.1980  0.0299 -0.3666
 5208W        W 8727   1.872   5.690   1.507  0.0203 -0.3366  0.2820
 5209W        W 8728   2.818   5.200   4.345 -0.3129  0.1608 -0.1200
 5210W        W 8729   4.063   3.377  10.860 -0.0161 -0.2030 -0.2138
 5211W        W 8730   4.566   5.576   3.234  0.2646  0.1747  0.3363
 5212W        W 8731   3.464   3.462  11.638  0.2566  0.3252  0.1445
 5213W        W 8732   7.180   9.056   2.864  0.0099 -0.0663 -0.0246
 5214W        W 8733   5.076   6.107   0.512 -0.0280 -0.0273 -0.1413
 5215W        W 8734   2.454   2.571   9.214 -0.5017 -0.1335 -0.0736
 5216W        W 8735   3.636   8.504  11.752  0.0291 -0.0801  0.0114
 5217W        W 8736   7.593   4.874  11.239  0.0366 -0.3038 -0.0010
 5218W        W 8737   8.337   3.376   0.171 -0.0134  0.1113  0.1366
 5219W        W 8738   3.412   2.097  11.571 -0.2605  0.0362 -0.0141
 5220W        W 8739   2.776   3.775  12.310 -0.2086 -0.0372 -0.0464
 5221W        W 8740   9.451   8.367   9.697  0.0105  0.1997  0.1575
 5222W        W 8741   4.362   1.935   2.561 -0.0953  0.4145  0.1551
 5223W        W 8742   0.993   7.320  10.008 -0.1826 -0.0187  0.0116
 5224W        W 8743   3.602   8.372  10.957  0.1411  0.1790  0.2928
 5225W        W 8744   8.464   0.099   1.151  0.3759 -0.1911 -0.0404
 5226W        W 8745   6.502   8.701   2.385 -0.3779 -0.0346 -0.2666
 5227W        W 8746   1.048   5.689   7.922  0.0691  0.0014  0.1352
 5228W        W 8747   2.310   2.130  11.072  0.3102  0.1296  0.0972
 5229W        W 8748   4.961   4.555   0.869  0.1401 -0.1992 -0.0875
 5230W        W 8749   4.781   6.239   3.628  0.2225 -0.0900  0.1306
 5231W        W 8750   2.140   7.115   8.629 -0.1291  0.3216 -0.1774
 5232W        W 8751   2.943   4.597   0.295 -0.0178  0.1504  0.0352
 5233W        W 8752   0.585   0.968  12.183 -0.1135  0.1064 -0.0870
 5234W        W 8753   6.655   4.692  11.470 -0.0382  0.3320 -0.0243
 5235W        W 8754   7.445   5.678   0.587  0.0443  0.1886  0.1037
 5236W        W 8755   0.961   4.732   9.770  0.3218 -0.0012  0.0095
 5237W        W 8756   3.853   8.731   3.673  0.1456 -0.0015  0.1109
 5238W        W 8757   8.719   1.456   9.387  0.1731  0.0166 -0.2734
 5239W        W 8758   5.578   8.554   4.069  0.1722  0.0865 -0.1207
 5240W        W 8759   1.570   9.585   1.500  0.1957  0.0076  0.2328
 5241W        W 8760   4.241   3.497  11.982  0.1988  0.0598  0.0934
 5242W        W 8761   3.810   9.593   2.831  0.0937  0.0344 -0.3328
 5243W        W 8762   2.263   1.115   1.093  0.2411  0.0770  0.1820
 5244W        W 8763   5.321   5.990  10.312 -0.2092  0.0674  0.1466
 5245W        W 8764   7.350   9.222   1.299  0.0151 -0.0945  0.0088
 5246W        W 8765   5.398   4.319  10.376 -0.0566 -0.1013  0.0867
 5247W        W 8766   3.452   2.438   3.354 -0.1540  0.0140 -0.0385
 5248W        W 8767   2.595   3.862   9.489  0.2966 -0.3028 -0.1167
 5249W        W 8768   0.343   2.610  11.344  0.2197 -0.0321 -0.1675
 5250W        W 8769   6.961   1.030   8.136 -0.1667  0.3460  0.1486
 5251W        W 8770   9.278   2.981   9.188  0.3406  0.1597 -0.0698
 5252W        W 8771   2.756   1.726   0.586  0.0104  0.0303 -0.0537
 5253W        W 8772   2.507   0.250  10.803 -0.0229 -0.0634  0.3902
 5254W        W 8773   4.326   1.073   1.138 -0.4243  0.2182  0.2364
 5255W        W 8774   2.076   2.974   9.036 -0.3012  0.0515  0.2248
 5256W        W 8775   4.771   0.849   5.174 -0.2875  0.1414  0.1850
 5257W        W 8776   2.413   7.132   0.772 -0.4154  0.4077  0.2589
 5258W        W 8777   3.632   6.410  11.487 -0.1535  0.1598  0.3099
 5259W        W 8778   0.298   6.539   0.035 -0.1371  0.1686  0.0340
 5260W        W 8779   1.749   6.105  12.343 -0.0948 -0.1789 -0.1439
 5261W        W 8780   9.685   9.528   3.171 -0.0641  0.0135 -0.4142
 5262W        W 8781   2.245   4.517   7.946 -0.1455 -0.2052 -0.0177
 5263W        W 8782   1.694   7.736  10.293  0.1940 -0.1068  0.1505
 5264W        W 8783   8.848   6.301   3.201 -0.3059 -0.1473 -0.1401
 5265W        W 8784   2.383   2.129   1.658  0.1111  0.1241 -0.0479
 5266W        W 8785   6.394   2.974   0.351 -0.2186 -0.3224  0.3932
 5267W        W 8786   5.000   7.391  11.805 -0.2291  0.0268 -0.0732
 5268W        W 8787   6.947   8.029   4.172  0.2447  0.0531  0.0421
 5269W        W 8788   3.090   4.215  11.220 -0.1147  0.2536 -0.1624
 5270W        W 8789   0.427   1.454  11.667 -0.0725 -0.0527 -0.1864
 5271W        W 8790   6.459   4.842   3.273 -0.2676  0.1270 -0.1616
 5272W        W 8791   4.633   1.604   1.925  0.1067 -0.1466 -0.0992
 5273W        W 8792   5.234   4.606  11.062 -0.1617  0.2224  0.1353
 5274W        W 8793   5.539   1.137   0.726  0.0855 -0.1510  0.0137
 5275W        W 8794   8.825   4.199   3.945  0.2684 -0.2324 -0.4650
 5276W        W 8795   1.678   8.962  10.358  0.0338  0.4054 -0.1772
 5277W        W 8796   0.977   8.808   1.138 -0.1326  0.0535  0.2682
 5278W        W 8797   8.128   1.616   4.202 -0.4814  0.0352 -0.1559
 5279W        W 8798   2.982   7.064   1.110 -0.0477 -0.2412  0.1154
 5280W        W 8799   5.103   3.059  11.088 -0.4935 -0.0464 -0.2986
 5281W        W 8800   8.888   4.619   0.310 -0.1443 -0.1606  0.2045
 5282W        W 8801   7.089   7.284  10.628 -0.1177 -0.0689 -0.3174
 5283W        W 8802   1.449   3.553  11.689  0.1544  0.0739 -0.2047
 5284W        W 8803   1.952   2.804   9.961  0.1288  0.0690  0.0298
 5285W        W 8804   9.302   1.330   3.019  0.4936 -0.2330  0.2434
 5286W        W 8805   8.927   3.238   8.853  0.0611  0.1383  0.0567
 5287W        W 8806   8.230   0.500   0.216 -0.0443 -0.1905 -0.1075
 5288W        W 8807   8.933   5.006   0.608 -0.0261  0.0238  0.0100
 5289W        W 8808   6.464   8.208   3.118 -0.2189  0.0214 -0.1934
 5290W        W 8809   4.904   7.506   3.445 -0.0426 -0.1729  0.0574
 5291W        W 8810   5.756   6.238   0.477 -0.1801 -0.1539  0.1854
 5292W        W 8811   6.728   7.952   3.713 -0.2169  0.3437 -0.1660
 5293W        W 8812   0.163   8.350   3.108  0.0959  0.0694 -0.0473
 5294W        W 8813   3.602   5.982  10.748  0.1654  0.2322  0.4949
 5295W        W 8814   5.778   0.293   1.521 -0.0427 -0.0680  0.2472
 5296W        W 8815   6.950   2.744   3.467 -0.0624  0.2572 -0.1671
 5297W        W 8816   4.163   8.714  10.310  0.1797 -0.0534  0.1337
 5298W        W 8817   3.914   9.571  11.621  0.3166 -0.0700  0.1394
 5299W        W 8818   3.146   3.658  11.273  0.1355  0.1368 -0.1475
 5300W        W 8819   4.088   2.958  11.372 -0.0592  0.0914  0.0298
 5301W        W 8820   5.036   1.888   1.836  0.0629 -0.0532 -0.0253
 5302W        W 8821   2.784   1.076   1.182 -0.1056  0.0150 -0.1711
 5303W        W 8822   1.068   1.761   2.710  0.0498  0.0267 -0.3979
 5304W        W 8823   7.428   6.982   0.133  0.1255  0.1961 -0.1759
 5305W        W 8824   8.670   5.022   4.007  0.1558  0.0491 -0.2576
 5306W        W 8825   8.757   4.565  11.497 -0.0151  0.0913  0.0988
 5307W        W 8826   6.833   3.041   0.100 -0.1851 -0.1169  0.0693
 5308W        W 8827   5.103   5.295   4.516  0.0371 -0.0239  0.0356
 5309W        W 8828   4.826   0.096  12.049 -0.1001 -0.1502 -0.0872
 5310W        W 8829   2.982   1.435   0.929 -0.0248 -0.2661  0.1011
 5311W        W 8830   5.210   2.950   9.249  0.0773 -0.1137 -0.1116
 5312W        W 8831   9.308   9.425  11.100  0.0217 -0.3662  0.1826
 5313W        W 8832   6.688   3.981  10.895  0.5249  0.1471 -0.0331
 5314W        W 8833   0.866   4.440   9.351 -0.0243  0.0681 -0.1109
 5315W        W 8834   8.919   8.554  10.602 -0.2435  0.0955  0.0524
 5316W        W 8835   5.730   5.744   3.940  0.1313  0.0416  0.1808
 5317W        W 8836   4.291   0.923   2.761  0.4573 -0.0284  0.3324
 5318W        W 8837   4.719   0.900   3.224  0.1041 -0.2226  0.0039
 5319W        W 8838   5.264   2.938   0.343  0.2324 -0.0436 -0.0848
 5320W        W 8839   0.013   8.995  11.675  0.0879 -0.2956  0.1730
 5321W        W 8840   1.165   8.786   2.947  0.2905  0.0715  0.1225
 5322W        W 8841   1.124   2.314   0.707  0.2014  0.1257 -0.3303
 5323W        W 8842   3.918   2.170   1.886 -0.1625 -0.0101 -0.1470
 5324W        W 8843   7.189   1.585  11.207 -0.2613 -0.0351 -0.2534
 5325W        W 8844   6.058   5.275   3.383  0.0941 -0.2764 -0.0580
 5326W        W 8845   4.330   0.600   3.128 -0.0479  0.0358 -0.0742
 5327W        W 8846   2.080   8.660   9.925 -0.5997  0.2198  0.2755
 5328W        W 8847   0.764   3.231  11.103  0.1951 -0.0071 -0.0360
 5329W        W 8848   5.118   4.913   0.113  0.0199 -0.0291  0.0018
 5330W        W 8849   4.293   7.948  11.532 -0.2432  0.1330 -0.0771
 5331W        W 8850   3.428   8.959  11.035  0.0729 -0.1040 -0.5276
 5332W        W 8851   8.210   7.561  10.802 -0.1153 -0.0300 -0.3056
 5333W        W 8852   6.789   5.042   8.900  0.1789  0.1719  0.0906
 5334W        W 8853   7.630   7.683   3.702  0.3367 -0.2429  0.0928
 5335W        W 8854   3.530   1.065   3.286  0.0498 -0.0755  0.1869
 5336W        W 8855   6.195   2.762   2.900 -0.0572 -0.0544  0.0682
 5337W        W 8856   1.149   2.593   1.135  0.1363  0.0042 -0.1471
 5338W        W 8857   2.077   8.843   2.785 -0.2422 -0.4108  0.1033
 5339W        W 8858   2.811   5.226   9.832  0.2798  0.0649  0.0558
 5340W        W 8859   0.057   1.275  10.705  0.3303  0.1354 -0.0924
 5341W        W 8860   9.449   7.577  11.281 -0.0235 -0.1551 -0.0119
 5342W        W 8861   6.803   9.040   0.570  0.0691  0.0398  0.1017
 5343W        W 8862   3.869   1.715  11.673  0.5778  0.0466  0.0444
 5344W        W 8863   6.440   9.498   1.190  0.3087 -0.2506 -0.1580
 5345W        W 8864   6.841   8.750  10.334  0.1267 -0.1426  0.1208
 5346W        W 8865   7.405   1.838  12.058  0.0966 -0.1297 -0.1000
 5347W        W 8866   4.815   6.566   2.529  0.1295 -0.1591  0.1262
 5348W        W 8867   3.849   8.606   3.120  0.1224  0.2405 -0.0210
 5349W        W 8868   6.072   1.799  11.594  0.0201  0.0663 -0.2925
 5350W        W 8869   6.685   7.765  10.072 -0.0454  0.1800  0.0530
 5351W        W 8870   3.847   1.168   9.821 -0.3163  0.1039 -0.3164
 5352W        W 8871   0.400   0.186  10.692 -0.0603 -0.0991 -0.1999
 5353W        W 8872   2.364   3.044   9.904  0.1231 -0.2694  0.3240
 5354W        W 8873   6.930   0.347  10.712  0.3139  0.0577 -0.0300
 5355W        W 8874   3.363   5.864   0.809  0.2161  0.4509  0.0529
 5356W        W 8875   3.210   6.272   0.127 -0.0583 -0.3536 -0.1178
 5357W        W 8876   7.913   3.021   0.122  0.1751 -0.0887  0.0399
 5358W        W 8877   4.855   3.822  10.246 -0.0321 -0.0917 -0.2312
 5359W        W 8878   7.741   2.380   9.635  0.1649 -0.2336 -0.2536
 5360W        W 8879   6.397   2.668   2.041  0.1962  0.0001  0.2031
 5361W        W 8880   3.324   1.360   1.395 -0.1123 -0.2587 -0.3162
 5362W        W 8881   6.362   2.095   0.709 -0.1124  0.2701 -0.0672
 5363W        W 8882   6.641   4.202   8.294 -0.0456 -0.0013 -0.1230
 5364W        W 8883   4.269   5.231   8.640  0.2897  0.0630  0.0873
 5365W        W 8884   2.031   6.748   3.931 -0.3551 -0.0174  0.0212
 5366W        W 8885   6.957   6.161  12.013  0.0608  0.1851  0.0558
 5367W        W 8886   1.485   6.958   1.179  0.2340  0.1104 -0.0921
 5368W        W 8887   8.701   8.756  10.956  0.1094 -0.1915 -0.1796
 5369W        W 8888   4.528   6.234   8.862  0.3711  0.3063  0.2749
 5370W        W 8889   4.639   4.856  10.034 -0.0534 -0.0043 -0.1328
 5371W        W 8890   4.590   1.382  11.881 -0.1638 -0.0278 -0.0219
 5372W        W 8891   5.026   1.801   0.321  0.0568  0.0907 -0.4176
 5373W        W 8892   0.738   2.255  11.376 -0.0669  0.2763 -0.1304
 5374W        W 8893   7.581   7.686   2.329  0.2186 -0.1059  0.2657
 5375W        W 8894   5.341   5.576   4.202  0.3378 -0.0317  0.0273
 5376W        W 8895   1.163   3.811  12.319 -0.1262  0.1404  0.2640
 5377W        W 8896   1.826   3.721  11.398 -0.1090 -0.2543  0.1095
 5378W        W 8897   3.915   0.837   9.291  0.0188  0.2404  0.2929
 5379W        W 8898   2.778   4.069  10.670  0.0291  0.0264 -0.2147
 5380W        W 8899   8.206   2.004   0.101  0.1644 -0.2494  0.1087
 5381W        W 8900   2.384   6.747   9.434 -0.0767 -0.2895  0.1696
 5382W        W 8901   0.543   5.849   7.897 -0.1522 -0.1706  0.0364
 5383W        W 8902   5.388   0.140  10.575  0.1494  0.1236 -0.0004
 5384W        W 8903   7.072   0.969   2.369 -0.0301 -0.2170  0.3042
 5385W        W 8904   8.816   0.890   2.360 -0.1677 -0.3360  0.1214
 5386W        W 8905   5.859   6.277   1.280  0.1664 -0.2919 -0.2780
 5387W        W 8906   0.405   3.086  11.969  0.0723  0.3923 -0.1870
 5388W        W 8907   8.382   1.065   9.147 -0.0308  0.0001 -0.0317
 5389W        W 8908   3.871   6.940   2.128  0.1353 -0.1562  0.1027
 5390W        W 8909   8.922   2.189  10.282 -0.1618 -0.1214 -0.2287
 5391W        W 8910   7.622   1.403   1.577 -0.4012 -0.0287  0.0628
 5392W        W 8911   1.911   0.432   0.229 -0.3208 -0.0997  0.2629
 5393W        W 8912   1.884   9.007  12.444  0.1559 -0.0475 -0.4212
 5394W        W 8913   1.264   3.980   1.184 -0.0444 -0.2869  0.1478
 5395W        W 8914   1.113   7.213  10.580  0.1046 -0.1540  0.0786
 5396W        W 8915   3.571   3.665  10.535 -0.0865  0.0103 -0.0899
 5397W        W 8916   1.340   1.669  10.399 -0.1719  0.4671  0.0778
 5398W        W 8917   4.717   8.368   1.472 -0.0960  0.0450 -0.3228
 5399W        W 8918   4.139   8.988   9.802  0.1451  0.0236 -0.2893
 5400W        W 8919   7.114   8.207   9.361  0.0929 -0.0978  0.1452
 5401W        W 8920   0.595   4.445   2.786  0.1161  0.0458 -0.2709
 5402W        W 8921   3.337   0.447   0.719 -0.1605 -0.1062 -0.0900
 5403W        W 8922   1.137   9.646   0.600  0.0918  0.1570 -0.2749
 5404W        W 8923   8.554   4.038   0.767 -0.0122  0.0988  0.2455
 5405W        W 8924   7.983   8.435  11.611 -0.1408  0.0972 -0.0994
 5406W        W 8925   7.616   1.645   0.288  0.0824  0.2135  0.1056
 5407W        W 8926   8.700   3.310   2.869 -0.0397 -0.0428  0.0774
 5408W        W 8927   3.976   1.802   0.820  0.1715  0.0576  0.4748
 5409W        W 8928   5.741   1.233   4.052  0.0516  0.2318 -0.2902
 5410W        W 8929   6.752   0.523   9.725  0.3560  0.1233 -0.2845
 5411W        W 8930   3.812   3.819   1.004  0.1840 -0.3562 -0.1559
 5412W        W 8931   0.698   3.547   0.018  0.0160  0.0763  0.2583
 5413W        W 8932   3.298   8.972   1.936  0.1371 -0.1749 -0.1905
 5414W        W 8933   5.343   2.159   0.013  0.1686 -0.3314  0.1106
 5415W        W 8934   6.167   0.966  10.228  0.1119  0.0146  0.0468
 5416W        W 8935   7.679   8.629   0.906 -0.1331  0.1789 -0.4008
 5417W        W 8936   9.635   4.688   8.775  0.1674 -0.3296 -0.2502
 5418W        W 8937   7.468   0.585   3.969  0.1210 -0.1348  0.3960
 5419W        W 8938   3.326   4.439   3.414 -0.1757 -0.0289  0.0275
 5420W        W 8939   7.380   6.487   1.930  0.0352  0.1611 -0.2382
 5421W        W 8940   2.287   8.800   1.257 -0.0506 -0.0893  0.1975
 5422W        W 8941   6.716   6.955  10.705  0.2380  0.4175  0.0002
 5423W        W 8942   3.614   7.947   2.002  0.1694  0.1267 -0.2396
 5424W        W 8943   4.665   1.554   8.029 -0.0804  0.1331 -0.0356
 5425W        W 8944   2.869   2.714   8.967 -0.0816  0.1515 -0.1674
 5426W        W 8945   6.975   0.368   4.407 -0.0194  0.1124 -0.3165
 5427W        W 8946   8.699   1.718   0.681  0.1571 -0.3116  0.0102
 5428W        W 8947   3.330   8.767  11.449  0.1341 -0.0045 -0.3804
 5429W        W 8948   5.921   0.196  10.525  0.0118  0.1022  0.0448
 5430W        W 8949   0.217   0.177   8.900 -0.3722 -0.2143  0.1673
 5431W        W 8950   0.937   2.358  10.902 -0.2345  0.1031  0.1100
 5432W        W 8951   0.707   5.337  12.122  0.1589  0.2138  0.2957
 5433W        W 8952   7.655   6.488   3.454  0.0911 -0.2356 -0.1690
 5434W        W 8953   1.421   0.216  11.459  0.3123 -0.0593 -0.3291
 5435W        W 8954   4.445   4.063   2.977 -0.0670 -0.2709 -0.2156
 5436W        W 8955   7.148   3.564   3.757 -0.0535  0.0880  0.0363
 5437W        W 8956   2.724   2.565   2.276  0.4239 -0.1171  0.0094
 5438W        W 8957   4.364   4.088  10.234 -0.1328 -0.2083 -0.2040
 5439W        W 8958   5.286   2.200  10.799 -0.5706 -0.0922 -0.1673
 5440W        W 8959   1.952   6.644   8.480  0.0090 -0.5085 -0.1709
 5441W        W 8960   8.930   3.479  10.981  0.2513  0.1043 -0.1291
 5442W        W 8961   2.792   4.179   1.644  0.1092  0.0772 -0.2283
 5443W        W 8962   3.356   8.134   4.404 -0.0229 -0.0493  0.0916
 5444W        W 8963   4.778   1.451   3.956 -0.0548  0.2705 -0.3034
 5445W        W 8964   5.107   5.530   2.991  0.1575  0.1374  0.1257
 5446W        W 8965   5.771   1.381   8.121  0.3210 -0.0884  0.1054
 5447W        W 8966   1.346   1.038  12.019  0.1535  0.1803  0.3187
 5448W        W 8967   8.824   9.071  10.431  0.0424  0.1594  0.0736
 5449W        W 8968   0.860   0.470   2.988  0.2013  0.0296 -0.0901
 5450W        W 8969   7.957   6.182  11.921 -0.3079 -0.2463 -0.0275
 5451W        W 8970   8.808   0.929   8.907 -0.1325  0.0551  0.1090
 5452W        W 8971   2.294   3.034  11.473 -0.0903 -0.0363  0.0479
 5453W        W 8972   1.965   6.977   2.579  0.1520  0.2022  0.0895
 5454W        W 8973   1.299   9.272  11.971 -0.2310  0.0401 -0.0486
 5455W        W 8974   2.777   0.095   9.758 -0.1966  0.1208 -0.0734
 5456W        W 8975   2.372   8.456   0.905 -0.0977  0.4893 -0.1605
 5457W        W 8976   9.157   3.731   2.989  0.1243 -0.0538  0.1633
 5458W        W 8977   8.327   4.393  10.008 -0.2708  0.1718 -0.2245
 5459W        W 8978   3.137   4.460   8.945  0.0527  0.2901  0.1529
 5460W        W 8979   7.604   1.203   3.272  0.0738 -0.1603  0.0634
 5461W        W 8980   4.494   3.854   2.486 -0.4054  0.1830 -0.1593
 5462W        W 8981   3.428   8.726   2.371  0.1784  0.0668  0.0198
 5463W        W 8982   6.452   0.892   0.485  0.0291  0.0351 -0.2706
 5464W        W 8983   8.909   4.023   4.467 -0.0712 -0.0023 -0.0209
 5465W        W 8984   2.252   1.396   0.358  0.0155 -0.2479 -0.0711
 5466W        W 8985   4.704   6.583   3.124  0.1903  0.3729  0.1469
 5467W        W 8986   3.464   7.810   2.807  0.1266  0.0811  0.1032
 5468W        W 8987   3.065   4.574   9.486  0.1278  0.0180 -0.1133
 5469W        W 8988   0.197   3.643   9.244  0.0337 -0.2704 -0.1221
 5470W        W 8989   4.514   8.983   3.356  0.2909  0.1042  0.3796
 5471W        W 8990   3.696   5.347   4.326  0.3168 -0.1494 -0.1355
 5472W        W 8991   0.673   4.359   1.911  0.0631  0.0800 -0.0316
 5473W        W 8992   7.953   1.041   1.951 -0.0453 -0.2597 -0.2518
 5474W        W 8993   4.613   8.684  11.899 -0.2756 -0.4175 -0.0598
 5475W        W 8994   5.734   9.567   3.878  0.1690  0.1307 -0.1345
 5476W        W 8995   1.249   1.568  11.114  0.2500  0.0987 -0.3029
 5477W        W 8996   7.546   4.654   1.742  0.3069  0.1508 -0.0567
 5478W        W 8997   0.456   0.441   9.357 -0.1208  0.1942 -0.1371
 5479W        W 8998   8.235   1.624  10.393 -0.2942 -0.0594  0.2237
 5480W        W 8999   5.390   5.120   1.528 -0.0029 -0.1799  0.0201
 5481W        W 9000   3.393   6.186   3.314  0.0910 -0.0104 -0.0410
 5482W        W 9001   0.607   3.719  11.035 -0.1340  0.0249  0.1279
 5483W        W 9002   2.228   2.850  12.315 -0.0956  0.3226  0.0781
 5484W        W 9003   7.036   5.496  10.862 -0.1353 -0.1562  0.0962
 5485W        W 9004   5.470   6.006  12.047 -0.0181 -0.2406 -0.0077
 5486W        W 9005   5.898   0.575   0.737  0.0238  0.0058 -0.0454
 5487W        W 9006   0.594   5.632  11.163 -0.0988  0.0134 -0.0747
 5488W        W 9007   5.961   4.511   9.657 -0.0685 -0.0331 -0.2185
 5489W        W 9008   1.929   7.811  11.187 -0.1744 -0.1046 -0.1581
 5490W        W 9009   6.797   4.251  10.292  0.1258  0.0639 -0.1134
 5491W        W 9010   2.731   8.133   9.512  0.3867 -0.1056  0.0026
 5492W        W 9011   7.799   2.942   0.695 -0.0836  0.4076 -0.1845
 5493W        W 9012   7.711   2.764  11.130 -0.1539  0.1922  0.1247
 5494W        W 9013   2.088   3.877  10.119 -0.3197  0.4053  0.1380
 5495W        W 9014   0.719   5.647   8.284 -0.0989  0.1150  0.1560
 5496W        W 9015   6.468   0.308   2.004  0.1696 -0.0394 -0.2526
 5497W        W 9016   3.979   1.216  11.549  0.4172  0.1543  0.1366
 5498W        W 9017   8.753   5.905  11.746 -0.1002 -0.0708 -0.1249
 5499W        W 9018   7.371   7.309   8.933 -0.2452 -0.2925 -0.0563
 5500W        W 9019   6.735   5.866  10.598 -0.3006  0.0577 -0.1606
 5501W        W 9020   4.598   8.233  11.142  0.3785 -0.3968 -0.2247
 5502W        W 9021   5.647   5.156  11.747  0.2813 -0.2528  0.0259
 5503W        W 9022   9.417   5.166   9.531  0.0325  0.2041 -0.0876
 5504W        W 9023   8.493   2.011  10.612 -0.0804  0.3676 -0.0650
 5505W        W 9024   6.756   1.399  10.462 -0.2866 -0.1519 -0.0109
 5506W        W 9025   9.629   5.295   3.068  0.0431  0.1946  0.1541
 5507W        W 9026   9.172   7.699   0.177 -0.1266  0.3396  0.0229
 5508W        W 9027   6.182   5.564  11.294  0.1060  0.1184  0.1455
 5509W        W 9028   6.369   6.821   3.432  0.2762  0.0648  0.0452
 5510W        W 9029   6.842   4.708  10.437  0.0497 -0.0177 -0.0198
 5511W        W 9030   8.968   6.220   0.991 -0.3362  0.2042  0.1788
 5512W        W 9031   8.006   3.039  12.048  0.1674  0.1440 -0.1113
 5513W        W 9032   0.212   6.362   0.962 -0.3343 -0.0796  0.0258
 5514W        W 9033   1.729   7.573  12.256 -0.2222  0.0401 -0.0043
 5515W        W 9034   7.728   4.899   4.010 -0.0993 -0.0515 -0.3813
 5516W        W 9035   3.686   5.712   2.509  0.1780 -0.0069 -0.2154
 5517W        W 9036   9.053   6.891  12.465 -0.3952  0.0829  0.1934
 5518W        W 9037   2.404   6.588   0.762  0.3696 -0.0055 -0.3143
 5519W        W 9038   5.648   0.507   3.374 -0.2724 -0.2885  0.0322
 5520W        W 9039   3.828   1.364   1.294 -0.2979  0.0499  0.2788
 5521W        W 9040   8.497   4.895   0.361  0.1781  0.1780 -0.1824
 5522W        W 9041   3.790   3.331   2.332 -0.0891 -0.0996  0.0907
 5523W        W 9042   0.030   5.298   9.854 -0.1453 -0.1585 -0.1027
 5524W        W 9043   6.018   1.922   1.054  0.2780 -0.0402  0.0838
 5525W        W 9044   6.658   3.619   2.384 -0.2739  0.2200 -0.1703
 5526W        W 9045   5.276   3.516   2.542 -0.0800 -0.2704 -0.1080
 5527W        W 9046   3.821   4.611   2.361 -0.0645  0.0802  0.1273
 5528W        W 9047   0.196   1.709  12.224 -0.4782  0.0847 -0.2736
 5529W        W 9048   4.658   5.939  10.984 -0.2586 -0.2685 -0.1448
 5530W        W 9049   4.084   0.135   0.909  0.0822  0.1701 -0.1028
 5531W        W 9050   5.977   7.657   1.113 -0.1896 -0.0095 -0.0547
 5532W        W 9051   4.402   3.478   2.058 -0.0604  0.1482 -0.0381
 5533W        W 9052   6.930   5.547   8.771  0.1867 -0.0092 -0.0261
 5534W        W 9053   4.016   5.718   9.941  0.0799 -0.1431  0.2155
 5535W        W 9054   1.143   9.582  10.060 -0.0320 -0.1858  0.1532
 5536W        W 9055   4.600   2.986  11.359 -0.3182  0.1277 -0.0579
 5537W        W 9056   9.429   5.255  11.635 -0.0445 -0.1661  0.4160
 5538W        W 9057   7.290   2.033   1.767 -0.1448 -0.0247  0.1826
 5539W        W 9058   5.850   2.248   1.442 -0.0377  0.0761 -0.0170
 5540W        W 9059   5.090   4.263   9.499  0.1030  0.2275 -0.1516
 5541W        W 9060   8.224   5.118   8.483  0.1795 -0.0543  0.0964
 5542W        W 9061   8.472   3.856  10.760  0.1227 -0.0564  0.1887
 5543W        W 9062   6.257   3.708   8.905 -0.0332  0.2062  0.0087
 5544W        W 9063   5.076   1.002   2.916 -0.0261 -0.0030 -0.1538
 5545W        W 9064   7.682   7.687  10.105 -0.1722 -0.4058 -0.2766
 5546W        W 9065   5.001   3.317   2.044  0.0389  0.3042 -0.0346
 5547W        W 9066   4.724   1.024   2.457  0.0394  0.1907  0.0278
 5548W        W 9067   4.261   2.397  11.704 -0.1090  0.0992 -0.0456
 5549W        W 9068   4.627   8.741   1.093 -0.1554 -0.0691 -0.0826
 5550W        W 9069   3.312   2.857  10.266  0.0492 -0.0398  0.2284
 5551W        W 9070   5.703   0.706   8.793  0.2415 -0.3572 -0.2738
 5552W        W 9071   5.574   4.292   9.370  0.0550  0.2755  0.0695
 5553W        W 9072   2.637   5.857   4.371 -0.4040 -0.0368  0.0688
 5554W        W 9073   7.941   5.142   2.415 -0.0813  0.0199  0.0576
 5555W        W 9074   0.880   7.363   1.868 -0.0577  0.2716  0.0714
 5556W        W 9075   2.538   1.899  11.510  0.0709  0.0566 -0.1859
 5557W        W 9076   2.622   5.905   3.885 -0.0685  0.2471  0.3376
 5558W        W 9077   5.079   8.305  10.580 -0.0476 -0.1388 -0.1312
 5559W        W 9078   0.196   7.503   1.527 -0.2498  0.5712  0.3384
 5560W        W 9079   7.769   4.909   8.957  0.2635 -0.1489 -0.0583
 5561W        W 9080   3.442   5.892   0.320 -0.1214 -0.2759 -0.1383
 5562W        W 9081   5.185   8.416   8.542  0.1428  0.2953 -0.0446
 5563W        W 9082   8.906   1.940   2.455  0.2416 -0.1735  0.0396
 5564W        W 9083   4.792   1.381   0.424  0.2481  0.2143 -0.0103
 5565W        W 9084   6.090   7.848   1.736  0.0394 -0.1584 -0.3567
 5566W        W 9085   2.212   5.875   1.238 -0.1362 -0.2731 -0.1254
 5567W        W 9086   8.026   2.774   9.738  0.2076 -0.1358 -0.1064
 5568W        W 9087   1.368   6.570   3.336  0.0759 -0.2297 -0.2959
 5569W        W 9088   3.489   5.674  10.202 -0.2110 -0.1121 -0.0628
 5570W        W 9089   2.582   3.915   2.699 -0.1645  0.1979  0.1935
 5571W        W 9090   4.717   7.594   3.874  0.0667 -0.1556 -0.2337
 5572W        W 9091   5.755   2.139  11.620 -0.2377 -0.0490  0.1187
 5573W        W 9092   3.837   3.853  12.044 -0.2407 -0.2146 -0.0842
 5574W        W 9093   6.571   8.289   8.705 -0.1607 -0.2930  0.0082
 5575W        W 9094   8.156   6.878   7.726 -0.0646 -0.1038  0.4523
 5576W        W 9095   7.486   5.985   0.118  0.1775 -0.0908  0.2510
 5577W        W 9096   9.556   0.712  11.363  0.0355 -0.1552 -0.0191
 5578W        W 9097   6.693   7.714   8.671  0.3099  0.1075  0.0143
 5579W        W 9098   6.361   5.211   9.185 -0.0925  0.1451 -0.2346
 5580W        W 9099   6.334   8.798   1.752 -0.1270 -0.1579  0.0800
 5581W        W 9100   6.550   5.612   1.366  0.0595  0.1629 -0.2331
 5582W        W 9101   9.077   7.537   1.181 -0.0280 -0.0443 -0.1852
 5583W        W 9102   6.841   2.229   0.771 -0.3037 -0.3321 -0.3307
 5584W        W 9103   6.465   4.766   3.779 -0.3392 -0.0995  0.2599
 5585W        W 9104   3.933   6.923   2.769 -0.2921 -0.2582  0.1344
 5586W        W 9105   8.552   0.029  10.033 -0.1000  0.2647  0.0199
 5587W        W 9106   5.908   7.215  10.152  0.2745 -0.2881  0.2276
 5588W        W 9107   6.092   2.396  10.572 -0.0362 -0.1833  0.0146
 5589W        W 9108   3.552   0.699  10.616 -0.0101 -0.3520 -0.2277
 5590W        W 9109   0.828   4.989   0.783  0.1550 -0.1489  0.0545
 5591W        W 9110   5.251   7.089   0.168 -0.0103 -0.1727 -0.1364
 5592W        W 9111   7.048   8.568   8.597  0.2411 -0.1326  0.0454
 5593W        W 9112   5.736   6.534   9.330 -0.0219  0.1972  0.0894
 5594W        W 9113   9.625   0.658   8.743  0.1091 -0.0947  0.0827
 5595W        W 9114   9.364   8.734  10.469 -0.0300  0.2747  0.3711
 5596W        W 9115   0.364   2.314  10.954 -0.1966  0.1697  0.3816
 5597W        W 9116   4.771   1.378   1.454  0.2268 -0.2246 -0.3582
 5598W        W 9117   0.766   4.565   0.001 -0.1265  0.1833 -0.1514
 5599W        W 9118   3.546   8.766   0.238  0.1060  0.0193  0.1459
 5600W        W 9119   5.620   1.620   2.799 -0.1738 -0.2031  0.0470
 5601W        W 9120   4.997   8.355   2.400 -0.0687 -0.3250  0.3257
 5602W        W 9121   2.117   5.352  12.183  0.0263 -0.0910 -0.1619
 5603W        W 9122   0.552   4.852  11.518  0.1993  0.2844  0.3732
 5604W        W 9123   1.270   0.587   2.173  0.3895 -0.0734  0.4182
 5605W        W 9124   9.646   1.534   0.467  0.0619  0.1807 -0.2014
 5606W        W 9125   1.761   1.267   2.912 -0.1651 -0.0340  0.0400
 5607W        W 9126   8.828   2.572   0.289  0.2018 -0.0074  0.2280
 5608W        W 9127   0.821   5.538  10.159  0.3711  0.0573 -0.1692
 5609W        W 9128   4.530   7.495   7.857  0.0050 -0.2180 -0.1692
 5610W        W 9129   5.668   9.508  12.112 -0.0943  0.0922 -0.2329
 5611W        W 9130   5.956   4.067   3.023 -0.0371  0.3480  0.1813
 5612W        W 9131   1.672   7.364   0.305 -0.1220 -0.5103 -0.2288
 5613W        W 9132   8.685   7.427   1.907  0.2372 -0.0036  0.0733
 5614W        W 9133   3.429   6.887  11.863 -0.1281 -0.0107 -0.4344
 5615W        W 9134   2.788   2.372  11.325 -0.0703  0.2536  0.1187
 5616W        W 9135   6.136   5.725   3.624  0.1501 -0.2645  0.0384
 5617W        W 9136   0.001   3.930   2.963  0.1633 -0.1292  0.0030
 5618W        W 9137   5.362   1.047  11.759  0.2073 -0.2161 -0.0022
 5619W        W 9138   9.578   0.184  10.521 -0.2063 -0.2177  0.4635
 5620W        W 9139   9.611   7.798  10.478 -0.0221  0.1991  0.1110
 5621W        W 9140   9.140   9.345   2.276  0.2157  0.0086 -0.1663
 5622W        W 9141   8.182   6.596  12.333 -0.1408  0.0930  0.1447
 5623W        W 9142   8.166   6.163   9.337  0.0604 -0.0311 -0.0241
 5624W        W 9143   0.336   0.448  11.424  0.2696  0.0782  0.1044
 5625W        W 9144   4.116   4.823  10.324  0.0567  0.0799  0.0834
 5626W        W 9145   5.790   8.125   4.522  0.2324  0.0965 -0.0779
 5627W        W 9146   2.528   9.403  11.039 -0.3571 -0.4041  0.3945
 5628W        W 9147   1.366   7.751   2.707 -0.3145  0.2062  0.0324
 5629W        W 9148   9.614   0.895   1.229 -0.0706  0.0520  0.0342
 5630W        W 9149   3.995   5.098   2.411 -0.0903 -0.1815  0.3613
 5631W        W 9150   7.036   9.337  10.921  0.2750  0.1131 -0.3654
 5632W        W 9151   5.253   5.519   1.832  0.0137 -0.2232  0.0762
 5633W        W 9152   2.284   2.907  10.427 -0.1015 -0.1009 -0.0794
 5634W        W 9153   6.000   9.363   3.499 -0.0817 -0.1018 -0.4304
 5635W        W 9154   6.921   5.951  11.077 -0.2059 -0.0986 -0.2126
 5636W        W 9155   2.020   6.561   2.884 -0.0745  0.0061  0.1295
 5637W        W 9156   7.954   1.695   2.748 -0.3717 -0.1600  0.1082
 5638W        W 9157   4.006   0.872  10.739 -0.5004  0.0438 -0.2821
 5639W        W 9158   0.843   1.375   2.502 -0.1834  0.0863  0.1228
 5640W        W 9159   6.224   5.206  11.684  0.0430  0.3169  0.1777
 5641W        W 9160   6.968   1.977  11.510  0.0459  0.2216 -0.2193
 5642W        W 9161   3.945   1.636   8.850  0.1689  0.0340 -0.0415
 5643W        W 9162   7.926   5.696  11.751  0.1202  0.2988  0.0929
 5644W        W 9163   7.411   9.484  11.386 -0.0023  0.1300 -0.0106
 5645W        W 9164   8.962   7.296   3.500  0.1605  0.1732 -0.0689
 5646W        W 9165   6.768   1.852   1.651  0.0735 -0.1714  0.4929
 5647W        W 9166   7.052   3.328  11.845 -0.0134  0.1320 -0.0465
 5648W        W 9167   6.697   4.847   9.351 -0.0461  0.0608  0.1272
 5649W        W 9168   5.869   1.223  11.019  0.0071  0.0119  0.0513
 5650W        W 9169   3.622   8.517   9.306  0.0841  0.1695  0.0730
 5651W        W 9170   7.112   6.433   9.215 -0.2990 -0.1600 -0.2372
 5652W        W 9171   4.649   9.552   9.751 -0.3266 -0.0831 -0.0520
 5653W        W 9172   6.930   0.124  11.143  0.2292 -0.0764 -0.1043
 5654W        W 9173   1.946   4.655   2.563 -0.4295  0.3173 -0.0707
 5655W        W 9174   8.048   2.564   8.530 -0.2998 -0.1022 -0.2456
 5656W        W 9175   0.557   4.980  10.588  0.1588  0.0341  0.0520
 5657W        W 9176   8.106   4.604  10.679 -0.5103 -0.0660  0.2999
 5658W        W 9177   6.321   7.189   0.296 -0.1190  0.0196  0.2902
 5659W        W 9178   6.092   2.452   1.093  0.0399 -0.2146  0.1036
 5660W        W 9179   1.377   1.334  11.625  0.0281  0.1516 -0.1339
 5661W        W 9180   3.496   9.140   3.969  0.0169  0.2518 -0.1852
 5662W        W 9181   7.851   9.098   8.839 -0.4821  0.1644 -0.1348
 5663W        W 9182   9.028   3.909  11.990  0.1115  0.1327 -0.1608
 5664W        W 9183   1.184   8.496   0.118 -0.1282 -0.2109 -0.1044
 5665W        W 9184   5.959   1.681  10.065  0.0758 -0.1353 -0.0314
 5666W        W 9185   0.720   3.052   9.694  0.0602 -0.0901 -0.2857
 5667W        W 9186   7.832   1.876   3.881  0.4121  0.0070  0.1897
 5668W        W 9187   1.947   7.870   8.695 -0.2102 -0.1644 -0.1815
 5669W        W 9188   6.584   0.943   9.960 -0.0811 -0.0271 -0.1094
 5670W        W 9189   4.556   6.710   0.407 -0.1182  0.1962  0.0546
 5671W        W 9190   3.692   9.329   9.840  0.0067  0.2279 -0.0132
 5672W        W 9191   6.243   7.162   9.615  0.0782  0.0334  0.5896
 5673W        W 9192   0.380   1.952   9.989  0.1338 -0.0124 -0.2361
 5674W        W 9193   7.303   9.146   2.361 -0.1007 -0.0457  0.3280
 5675W        W 9194   2.525   6.073  10.710  0.0029  0.0328  0.4676
 5676W        W 9195   5.888   4.971   9.280  0.1635  0.0304  0.1124
 5677W        W 9196   9.098   0.006  11.536  0.0286 -0.0593  0.0282
 5678W        W 9197   1.837   9.565   0.228 -0.0233 -0.0115 -0.0905
 5679W        W 9198   5.883   6.286   2.717 -0.0252 -0.1066  0.1785
 5680W        W 9199   2.463   3.843  11.901  0.0940 -0.0913 -0.0799
 5681W        W 9200   7.042   3.185   0.599  0.2933  0.0549 -0.6179
 5682W        W 9201   4.239   5.946   9.221 -0.0432 -0.2429 -0.3537
 5683W        W 9202   5.577   0.121   8.352  0.1416  0.1322  0.2300
 5684W        W 9203   7.183   9.386   4.431 -0.0482  0.0263 -0.2598
 5685W        W 9204   9.369   4.032   1.875  0.0560  0.0448 -0.1104
 5686W        W 9205   1.212   4.302   9.931 -0.1005 -0.1177 -0.3093
 5687W        W 9206   6.931   1.912   2.162 -0.0565 -0.1400 -0.0403
 5688W        W 9207   9.400   2.116   9.370 -0.2342 -0.0269  0.3624
 5689W        W 9208   3.485   7.209   2.437  0.4385  0.2010  0.0836
 5690W        W 9209   0.200   8.414  11.700  0.0806  0.0712  0.1602
 5691W        W 9210   3.015   3.723   0.286 -0.1179  0.0821  0.0140
 5692W        W 9211   7.607   6.382   0.923 -0.2257 -0.1433  0.1200
 5693W        W 9212   1.135   8.524   8.951  0.4803  0.1768  0.0025
 5694W        W 9213   8.065   7.128   3.245  0.0200 -0.1984 -0.2370
 5695W        W 9214   8.133   9.353  12.430  0.2464  0.0345  0.0861
 5696W        W 9215   9.595   8.765   9.949 -0.2678  0.1601  0.2186
 5697W        W 9216   9.092   2.992   2.344 -0.0199  0.1265  0.0680
 5698W        W 9217   2.842   1.184  10.815 -0.1272  0.0566 -0.2175
 5699W        W 9218   6.909   2.978   1.059  0.3055 -0.2963 -0.0932
 5700W        W 9219   5.560   7.643   8.132 -0.0566 -0.0762  0.1214
 5701W        W 9220   6.881   1.711  12.085  0.0144  0.2074 -0.1926
 5702W        W 9221   9.049   7.535   3.887  0.0442 -0.0976 -0.0598
 5703W        W 9222   7.078   2.659   0.645  0.0618  0.0349  0.0895
 5704W        W 9223   7.163   8.709   0.548 -0.1553 -0.4030  0.0810
 5705W        W 9224   1.389   5.466  10.278 -0.2175  0.1023  0.0891
 5706W        W 9225   8.885   3.272   1.978 -0.1268  0.0085  0.0287
 5707W        W 9226   3.474   3.049   2.084  0.5264 -0.2520 -0.0558
 5708W        W 9227   6.564   3.804   1.031 -0.0840 -0.1060  0.2018
 5709W        W 9228   1.695   7.698   2.346 -0.1392  0.0232  0.0646
 5710W        W 9229   1.231   0.940   0.864 -0.0666 -0.0707  0.2457
 5711W        W 9230   0.344   8.910  12.172  0.1347  0.0049 -0.1184
 5712W        W 9231   8.886   3.251   9.873  0.0994 -0.3402  0.0319
 5713W        W 9232   6.430   7.646   9.485 -0.0981 -0.0136 -0.2347
 5714W        W 9233   9.112   8.889   8.353 -0.3016 -0.0943 -0.1004
 5715W        W 9234   4.991   4.722   9.706 -0.3933  0.0775  0.0455
 5716W        W 9235   9.068   7.793  10.161  0.0314 -0.0448 -0.2987
 5717W        W 9236   0.706   2.748   1.219  0.3675  0.0511  0.1470
 5718W        W 9237   4.389   6.352   2.144 -0.2829 -0.0201  0.0751
 5719W        W 9238   3.114   5.900   1.555  0.2001  0.2226  0.0163
 5720W        W 9239   1.789   7.199  11.456 -0.0505 -0.1316  0.0911
 5721W        W 9240   3.780   7.481   1.233 -0.0367 -0.0108 -0.2761
 5722W        W 9241   1.901   3.324   1.510 -0.1537  0.0332 -0.1973
 5723W        W 9242   8.883   5.791   7.306  0.0620 -0.2260 -0.0158
 5724W        W 9243   9.136   7.688   3.241  0.0443 -0.1701 -0.0650
 5725W        W 9244   0.590   5.137   0.053  0.1503  0.2839  0.0171
 5726W        W 9245   7.001   6.085   0.014 -0.1316  0.0289 -0.0504
 5727W        W 9246   4.073   8.974   4.081  0.0843 -0.1414 -0.1081
 5728W        W 9247   1.776   3.665   9.599 -0.3501  0.0403  0.1503
 5729W        W 9248   6.210   9.058   9.812  0.1263  0.3490 -0.0981
 5730W        W 9249   7.331   6.462   0.444  0.0796 -0.2225  0.2067
 5731W        W 9250   5.568   3.357   3.473  0.2156 -0.1973 -0.1663
 5732W        W 9251   6.059   7.218  10.638  0.0318  0.6329  0.0168
 5733W        W 9252   8.222   0.877  11.133  0.0145  0.0007  0.3288
 5734W        W 9253   3.788   3.659  12.469  0.0112  0.0979 -0.0018
 5735W        W 9254   6.525   8.811   8.645  0.0197 -0.1870 -0.0946
 5736W        W 9255   4.188   4.902   9.865 -0.2850  0.0707 -0.0289
 5737W        W 9256   3.841   6.160   2.737  0.1140 -0.1639 -0.0152
 5738W        W 9257   4.407   5.838   0.365  0.1437  0.0135 -0.3388
 5739W        W 9258   0.071   2.215   9.682  0.1400 -0.0214 -0.0026
 5740W        W 9259   2.865   2.693  10.928  0.1160 -0.1856 -0.0894
 5741W        W 9260   2.384   1.880   0.189  0.0158  0.1109 -0.1087
 5742W        W 9261   2.971   7.920   3.558 -0.0374 -0.2411 -0.0009
 5743W        W 9262   0.304   8.014   1.540  0.0257  0.1486 -0.1988
 5744W        W 9263   8.694   2.903  11.621 -0.1544  0.0518 -0.1047
 5745W        W 9264   4.883   7.530   1.478  0.1141 -0.1084 -0.0565
 5746W        W 9265   3.735   8.969   9.506  0.0454 -0.2250 -0.2663
 5747W        W 9266   9.007   5.444   9.576  0.1547  0.1091 -0.0286
 5748W        W 9267   8.053   1.326   1.428 -0.2770  0.0582  0.4247
 5749W        W 9268   5.172   5.964  10.864  0.0003  0.3097  0.4285
 5750W        W 9269   6.549   7.136  12.161  0.1231 -0.0046 -0.4322
 5751W        W 9270   0.633   8.365   1.913  0.2580 -0.2506 -0.0847
 5752W        W 9271   2.600   3.250   3.538 -0.1602 -0.2489  0.2678
 5753W        W 9272   6.794   8.886   1.978  0.0359 -0.0492 -0.1918
 5754W        W 9273   5.757   5.808   9.543 -0.1242  0.0241 -0.0974
 5755W        W 9274   0.099   4.938  11.697  0.0033 -0.0632  0.2330
 5756W        W 9275   4.346   2.145  12.217 -0.1021 -0.1971 -0.0349
 5757W        W 9276   6.721   2.022   9.203  0.1597 -0.2657  0.0408
 5758W        W 9277   6.734   6.695   9.121 -0.0199 -0.0527 -0.1482
 5759W        W 9278   3.530   9.016   3.440  0.2262 -0.2545 -0.0571
 5760W        W 9279   7.785   4.565  10.300 -0.1555  0.2383 -0.2536
 5761W        W 9280   4.906   6.947  11.144 -0.0864 -0.0493 -0.0656
 5762W        W 9281   1.929   0.187  12.263  0.2667  0.0444 -0.2771
 5763W        W 9282   2.601   6.123  11.687  0.3192 -0.2647 -0.2091
 5764W        W 9283   8.479   1.884   8.953 -0.2891 -0.0644  0.2374
 5765W        W 9284   6.272   4.961   2.441 -0.0085 -0.1123 -0.2043
 5766W        W 9285   5.938   8.069   0.146  0.0033 -0.0313  0.0138
 5767W        W 9286   3.134   1.811   1.910 -0.0231 -0.0352  0.3736
 5768W        W 9287   3.848   0.850   1.505  0.0777  0.1911 -0.1774
 5769W        W 9288   4.623   5.313   0.675 -0.1649 -0.1116  0.1395
 5770W        W 9289   3.826   6.640   4.102 -0.2354  0.2102  0.4012
 5771W        W 9290   8.317   7.633  11.500 -0.1549  0.1669 -0.1719
 5772W        W 9291   2.135   2.422  10.312 -0.1810 -0.2810  0.2148
 5773W        W 9292   9.604   2.440   8.559 -0.0936 -0.1894 -0.0926
 5774W        W 9293   3.583   6.637   8.546  0.1050 -0.0624  0.0157
 5775W        W 9294   1.771   7.294   9.379 -0.2347 -0.0270 -0.1437
 5776W        W 9295   8.041   1.210   2.921  0.0649 -0.0676 -0.1936
 5777W        W 9296   7.188   0.898   3.556 -0.2298  0.1045  0.0231
 5778W        W 9297   7.488   5.355  11.171  0.0407  0.1010  0.2226
 5779W        W 9298   4.107   6.127   1.085 -0.1827 -0.2051  0.0863
 5780W        W 9299   8.630   7.182  12.198  0.0700  0.0990  0.1155
 5781W        W 9300   7.002   0.132   2.817  0.0596  0.1110 -0.1006
 5782W        W 9301   8.574   0.259   1.664 -0.4405  0.0813 -0.2156
 5783W        W 9302   1.519   5.297   9.809 -0.0989  0.4216  0.1101
 5784W        W 9303   0.998   3.351  12.049  0.2576  0.0186 -0.0502
 5785W        W 9304   5.947   0.819   2.946 -0.1386 -0.0695 -0.1291
 5786W        W 9305   6.444   6.421   2.789  0.0178 -0.0439  0.1820
 5787W        W 9306   4.686   3.302   9.118 -0.1186 -0.0460 -0.0831
 5788W        W 9307   8.271   3.355   8.191 -0.2212 -0.2143 -0.0295
 5789W        W 9308   7.166   6.353  10.140 -0.1219  0.3459 -0.2475
 5790W        W 9309   6.504   7.198  10.034  0.3121  0.1363 -0.1781
 5791W        W 9310   5.904   6.682   0.189 -0.2283 -0.1001  0.1193
 5792W        W 9311   3.786   0.251  10.671 -0.0103 -0.1089  0.4255
 5793W        W 9312   8.917   1.438   2.380  0.2760  0.3198 -0.2012
 5794W        W 9313   1.822   0.857   9.341  0.2846 -0.2235  0.0163
 5795W        W 9314   2.278   6.449  11.438 -0.0890 -0.1584 -0.0130
 5796W        W 9315   1.680   8.606   9.553 -0.0098  0.0350 -0.1489
 5797W        W 9316   2.905   2.267   9.302 -0.0244 -0.0898 -0.0658
 5798W        W 9317   6.990   1.312   2.729 -0.3979 -0.1949  0.0244
 5799W        W 9318   3.363   8.785   8.943 -0.2625 -0.1005 -0.0653
 5800W        W 9319   4.440   5.416   3.773 -0.1345  0.0024 -0.3986
 5801W        W 9320   3.724   8.430  10.422  0.1960 -0.0654 -0.1062
 5802W        W 9321   0.338   7.865  10.090  0.0771 -0.2498  0.0370
 5803W        W 9322   2.525   6.601   3.803  0.2212  0.1270 -0.3269
 5804W        W 9323   7.894   5.481   1.398 -0.1043  0.0314  0.2185
 5805W        W 9324   3.270   9.067   9.805  0.4167  0.0588 -0.0031
 5806W        W 9325   6.870   2.116   8.456  0.2418 -0.0531 -0.2608
 5807W        W 9326   3.390   7.756   9.125  0.2028 -0.0542  0.2695
 5808W        W 9327   2.150   4.944   9.123 -0.0547  0.4954 -0.1597
 5809W        W 9328   4.136   0.201  12.081  0.3787  0.0234 -0.2458
 5810W        W 9329   2.295   1.021  10.127  0.2961 -0.0517 -0.0255
 5811W        W 9330   1.362   9.654   9.614 -0.0581 -0.3331 -0.3182
 5812W        W 9331   4.030   1.308   9.324 -0.0480  0.0400 -0.0267
 5813W        W 9332   5.860   9.511   1.408 -0.1540  0.0587 -0.1837
 5814W        W 9333   5.366   8.860   9.665  0.0754 -0.0221 -0.0870
 5815W        W 9334   7.404   6.108   3.601 -0.3632  0.4681  0.0060
 5816W        W 9335   0.784   6.573   8.284  0.0094  0.2268 -0.2773
 5817W        W 9336   1.562   7.823   8.404 -0.0119 -0.1946  0.0504
 5818W        W 9337   5.810   4.813   0.835  0.3307  0.6148 -0.2013
 5819W        W 9338   3.469   8.584   9.747  0.0736 -0.1966 -0.2202
 5820W        W 9339   2.697   2.228   0.744  0.3807  0.1236 -0.0217
 5821W        W 9340   5.472   3.164  12.423 -0.2286 -0.0532  0.0731
 5822W        W 9341   6.645   7.854   2.719 -0.0470  0.1691 -0.1836
 5823W        W 9342   8.126   4.942  10.325  0.1255 -0.1864  0.0479
 5824W        W 9343   4.888   0.384  10.579 -0.0106 -0.2178 -0.0305
 5825W        W 9344   4.622   2.656   8.777  0.3122  0.0324  0.2621
 5826W        W 9345   8.327   8.958   0.863  0.1061  0.4176 -0.1681
 5827W        W 9346   0.770   6.035   3.637  0.1498 -0.4403 -0.1898
 5828W        W 9347   2.166   6.365   1.986  0.3855  0.3504 -0.1475
 5829W        W 9348   0.775   8.471   2.993 -0.1199  0.0224  0.2976
 5830W        W 9349   1.815   3.758   1.822  0.2438  0.1117 -0.1682
 5831W        W 9350   0.629   8.844   2.669 -0.2234  0.0541  0.3738
 5832W        W 9351   2.630   9.004   2.847  0.3099 -0.0182  0.2256
 5833W        W 9352   2.887   7.241   2.679 -0.1784  0.4164 -0.0573
 5834W        W 9353   4.620   0.820   1.476  0.1545 -0.1009  0.1279
 5835W        W 9354   3.959   9.242  10.273  0.1120  0.1563  0.0892
 5836W        W 9355   4.864   2.244   1.078 -0.0367 -0.0703  0.1096
 5837W        W 9356   8.586   3.770   2.658  0.2983  0.0935  0.1685
 5838W        W 9357   5.980   8.090   8.051  0.1615  0.1028  0.0424
 5839W        W 9358   0.615   8.395  12.025 -0.2606  0.1541  0.0681
 5840W        W 9359   3.182   5.451   0.447 -0.1357 -0.1844  0.1809
 5841W        W 9360   6.668   0.728   2.288 -0.2511 -0.1646  0.2668
 5842W        W 9361   5.776   5.427   8.539  0.2250  0.0864  0.0659
 5843W        W 9362   5.452   4.269   3.202  0.1662 -0.0485  0.3763
 5844W        W 9363   3.038   9.005   3.127 -0.2861  0.3373  0.0715
 5845W        W 9364   3.088   6.829   8.559 -0.5256 -0.5227 -0.2825
 5846W        W 9365   6.424   6.935   2.977 -0.2121  0.1779  0.1081
 5847W        W 9366   5.350   0.832   4.102 -0.2500  0.0194  0.3204
 5848W        W 9367   3.032   2.878   0.999  0.1428 -0.0471 -0.3628
 5849W        W 9368   1.212   7.661   1.491 -0.0228  0.1069 -0.1475
 5850W        W 9369   9.583   6.161  10.683 -0.3277 -0.0389 -0.0823
 5851W        W 9370   2.723   6.759   2.835  0.0249 -0.0218  0.1181
 5852W        W 9371   5.079   8.364   3.418 -0.2000  0.0077 -0.3425
 5853W        W 9372   9.191   1.625   9.486  0.0490 -0.1476  0.2249
 5854W        W 9373   1.648   6.410  10.797 -0.0822  0.1147  0.3115
 5855W        W 9374   7.253   3.736  12.351  0.0191 -0.0026  0.2129
 5856W        W 9375   1.576   1.771  11.998  0.0007  0.0383  0.0153
 5857W        W 9376   8.717   0.791   3.326  0.3501 -0.2452  0.1198
 5858W        W 9377   3.598   7.714  10.883 -0.2292 -0.0388  0.1449
 5859W        W 9378   2.375   5.369   9.122 -0.3510 -0.3323 -0.1000
 5860W        W 9379   3.135   1.857   9.563  0.0919  0.0285  0.0315
 5861W        W 9380   8.680   9.080   3.345 -0.1463  0.0104 -0.2301
 5862W        W 9381   4.447   2.052  11.304 -0.2024 -0.0497 -0.3217
 5863W        W 9382   9.427   4.064   0.797 -0.2957  0.1043  0.4062
 5864W        W 9383   2.089   7.339   3.718  0.0428  0.1881  0.0991
 5865W        W 9384   4.977   2.204   3.303 -0.0246  0.0698 -0.1494
 5866W        W 9385   5.056   9.692   8.914  0.1626 -0.0182  0.0154
 5867W        W 9386   7.092   0.281   8.916  0.3241  0.0239  0.0211
 5868W        W 9387   3.721   1.731  10.779  0.2848 -0.0581 -0.1197
 5869W        W 9388   6.169   8.187  10.106 -0.2915 -0.0893 -0.1401
 5870W        W 9389   5.887   0.735   1.922 -0.1552 -0.3474  0.0778
 5871W        W 9390   1.225   5.566   2.771  0.2459  0.2680  0.0192
 5872W        W 9391   5.067   3.392   0.708  0.0987 -0.0647  0.2089
 5873W        W 9392   9.511   4.459  10.489  0.0554  0.0004 -0.0046
 5874W        W 9393   3.126   2.285   2.761 -0.1212 -0.1175 -0.1304
 5875W        W 9394   5.966   2.617   0.616  0.2208 -0.0001 -0.2028
 5876W        W 9395   7.160   6.190  10.667  0.1000 -0.0065 -0.1640
 5877W        W 9396   0.201   7.835   8.605  0.0941  0.1300 -0.5182
 5878W        W 9397   3.143   4.247   0.025  0.3603  0.3741  0.1614
 5879W        W 9398   1.519   5.241   3.431 -0.2080 -0.0407  0.2629
 5880W        W 9399   1.564   0.591   1.007 -0.1163 -0.2459  0.0130
 5881W        W 9400   3.022   5.628   4.102 -0.0813  0.1010  0.0879
 5882W        W 9401   9.657   4.614  12.040  0.1598  0.1076 -0.1162
 5883W        W 9402   7.418   2.654   9.387  0.2102 -0.2569  0.0757
 5884W        W 9403   2.927   8.888   0.516 -0.0966  0.3387 -0.1056
 5885W        W 9404   4.464   1.891   0.322 -0.1457 -0.2106  0.1900
 5886W        W 9405   5.898   0.135  11.849  0.1714  0.1468  0.1085
 5887W        W 9406   3.490   2.899  12.424 -0.1722 -0.3495 -0.2730
 5888W        W 9407   6.612   2.493  11.794 -0.0835 -0.0798  0.0014
 5889W        W 9408   1.423   4.639   1.836 -0.3333  0.0852 -0.5246
 5890W        W 9409   3.921   5.245   0.005 -0.0500 -0.0877 -0.1920
 5891W        W 9410   5.545   8.932   4.460 -0.1036  0.1037 -0.0072
 5892W        W 9411   4.512   7.110   8.361 -0.0334  0.1098  0.0395
 5893W        W 9412   9.394   0.064   2.278 -0.0085 -0.0699 -0.0629
 5894W        W 9413   2.919   7.409   3.609  0.2075  0.3737 -0.0447
 5895W        W 9414   1.649   4.855   9.196 -0.2817  0.0026  0.0864
 5896W        W 9415   5.665   6.840  11.460  0.0003 -0.3746  0.1821
 5897W        W 9416   6.691   0.820   1.390  0.0553  0.1466 -0.1426
 5898W        W 9417   6.552   2.071   1.221 -0.0305  0.2155  0.1784
 5899W        W 9418   6.482   0.827   1.871 -0.0022 -0.4788 -0.1184
 5900W        W 9419   5.182   0.092  12.425 -0.2704  0.1592  0.0169
 5901W        W 9420   5.478   7.971   9.419  0.2647  0.1858 -0.3642
 5902W        W 9421   4.393   8.819   8.013  0.0643 -0.0893  0.1107
 5903W        W 9422   7.648   7.267  12.285 -0.0423 -0.4178  0.1224
 5904W        W 9423   2.978   4.856   2.617 -0.1143 -0.0054  0.1383
 5905W        W 9424   0.121   6.560   3.232  0.2485 -0.1177  0.1709
 5906W        W 9425   3.014   9.425   1.159 -0.2677 -0.1085 -0.0999
 5907W        W 9426   7.721   5.823   3.836  0.0370  0.1107  0.2524
 5908W        W 9427   4.535   2.158   3.587  0.3937 -0.2590  0.0284
 5909W        W 9428   8.820   6.769  10.917  0.3195 -0.2133 -0.3926
 5910W        W 9429   3.495   6.948  12.404  0.3587  0.2407  0.1765
 5911W        W 9430   2.539   6.182   3.042 -0.0797 -0.1973 -0.0452
 5912W        W 9431   0.673   3.284   1.236 -0.2660 -0.0328 -0.3304
 5913W        W 9432   3.868   4.243   1.870 -0.1357 -0.3770  0.3419
 5914W        W 9433   0.017   5.976   0.675 -0.0377  0.0085 -0.3139
 5915W        W 9434   0.357   7.161   2.089 -0.0934  0.0837  0.0345
 5916W        W 9435   3.822   8.179   8.227  0.1537  0.0632 -0.0532
 5917W        W 9436   5.585   6.251  11.577  0.0589  0.2790  0.2384
 5918W        W 9437   3.629   1.664   1.737  0.2023  0.2471 -0.1182
 5919W        W 9438   8.131   4.749   2.041  0.0527  0.1624 -0.1071
 5920W        W 9439   7.352   7.941   0.165  0.0839 -0.2410 -0.0180
 5921W        W 9440   3.450   0.520  10.140  0.2423 -0.0454 -0.0166
 5922W        W 9441   6.931   2.515  10.800 -0.0814  0.1142  0.1740
 5923W        W 9442   6.375   5.764   9.309 -0.1221  0.2918 -0.1362
 5924W        W 9443   5.232   7.799   1.809 -0.1404 -0.2702 -0.4285
 5925W        W 9444   8.631   4.576   0.769 -0.3870 -0.1898 -0.1340
 5926W        W 9445   0.618   5.023   3.638 -0.1559 -0.2342 -0.1121
 5927W        W 9446   0.112   3.087   1.073 -0.0091 -0.1175 -0.0876
 5928W        W 9447   4.273   7.989   1.476  0.2340  0.1474  0.0756
 5929W        W 9448   8.989   2.168   1.145 -0.0335  0.2443 -0.1238
 5930W        W 9449   1.228   7.332   4.165  0.0093 -0.1059  0.1466
 5931W        W 9450   1.601   0.227   0.559  0.1350  0.0596  0.2728
 5932W        W 9451   6.707   7.126   4.310 -0.1166  0.2400  0.0408
 5933W        W 9452   3.283   4.155   8.568 -0.0505  0.1928 -0.2839
 5934W        W 9453   0.629   4.827   1.195  0.0474 -0.1728 -0.3637
 5935W        W 9454   0.123   0.878   9.460  0.1150 -0.1763 -0.2209
 5936W        W 9455   4.814   6.611   1.896 -0.1333 -0.0294 -0.2311
 5937W        W 9456   4.060   6.298   0.242  0.1800 -0.2103  0.1202
 5938W        W 9457   7.210   9.660  11.919 -0.3107  0.0280  0.1881
 5939W        W 9458   9.272   2.942   0.098  0.0608 -0.0668  0.4047
 5940W        W 9459   6.784   4.712   9.895 -0.0713  0.2379 -0.0558
 5941W        W 9460   7.980   2.899   2.697 -0.1708 -0.3161  0.2207
 5942W        W 9461   6.408   7.675   0.483 -0.2454 -0.0594  0.1536
 5943W        W 9462   7.544   0.694   3.246 -0.1981 -0.3433 -0.0393
 5944W        W 9463   8.917   8.306   1.681  0.0848  0.1917  0.0874
 5945W        W 9464   0.003   2.277   8.978 -0.0037  0.3206 -0.1390
 5946W        W 9465   7.757   0.069  11.545 -0.0989 -0.0623 -0.0616
 5947W        W 9466   1.999   0.451   0.757  0.0448 -0.4021  0.1719
 5948W        W 9467   1.672   3.745   2.976 -0.0340  0.0796 -0.0800
 5949W        W 9468   0.417   0.476   2.643  0.0310 -0.1813 -0.0822
 5950W        W 9469   8.431   3.346  10.723 -0.1632 -0.1854 -0.0816
 5951W        W 9470   6.506   1.605   3.937 -0.4001  0.1313  0.1317
 5952W        W 9471   5.977   7.373   1.632  0.1141 -0.1047 -0.1086
 5953W        W 9472   7.047   1.668   9.345  0.0597  0.2786  0.1123
 5954W        W 9473   6.402   6.465   2.282  0.2399  0.4170 -0.1812
 5955W        W 9474   8.204   8.534   4.158 -0.2434  0.0519 -0.1744
 5956W        W 9475   0.301   1.289   9.260 -0.2232  0.1062  0.0600
 5957W        W 9476   5.917   9.110  12.411 -0.3172 -0.2088 -0.0480
 5958W        W 9477   6.425   1.607  12.358 -0.1105  0.0896 -0.4232
 5959W        W 9478   7.091   5.111  10.146 -0.2275  0.2610  0.0451
 5960W        W 9479   7.304   5.070   9.238  0.1488  0.1661  0.0313
 5961W        W 9480   8.937   8.841   2.168  0.1698  0.3738 -0.1422
 5962W        W 9481   5.528   7.650   0.479 -0.0001  0.0867 -0.3425
 5963W        W 9482   5.889   2.797   1.356 -0.1564 -0.3393  0.1977
 5964W        W 9483   6.179   9.036  10.478  0.0267 -0.3217  0.0843
 5965W        W 9484   6.735   9.084   9.285 -0.3425 -0.0065 -0.4957
 5966W        W 9485   5.027   5.889   8.706 -0.0169 -0.1584 -0.1833
 5967W        W 9486   8.101   1.257  10.802 -0.0739  0.3060  0.1831
 5968W        W 9487   5.341   5.820  11.554  0.0846  0.0339  0.1712
 5969W        W 9488   5.948   0.889   4.368 -0.0583  0.1546 -0.1996
 5970W        W 9489   0.161   4.347   1.385 -0.1369 -0.1778 -0.1320
 5971W        W 9490   0.465   6.552   1.819  0.1826 -0.3415  0.0427
 5972W        W 9491   2.297   6.621   9.929 -0.1244  0.1615  0.3156
 5973W        W 9492   5.629   5.539   3.333  0.1625 -0.2680  0.2107
 5974W        W 9493   6.396   4.771   8.587 -0.0994 -0.1855 -0.2083
 5975W        W 9494   9.098   5.171   2.957 -0.3304  0.1112 -0.3658
 5976W        W 9495   5.417   7.346   3.524 -0.2825  0.0250 -0.1219
 5977W        W 9496   0.302   4.355   8.430  0.0307  0.1720  0.0940
 5978W        W 9497   9.512   5.778   8.677 -0.2536  0.0363  0.0655
 5979W        W 9498   5.423   2.478   0.448 -0.1645 -0.0037  0.1802
 5980W        W 9499   7.820   3.944   8.875 -0.2555 -0.2549 -0.0496
 5981W        W 9500   1.259   3.308   0.051  0.2184 -0.0380  0.0326
 5982W        W 9501   4.919   6.913  11.641 -0.2390  0.2403  0.3553
 5983W        W 9502   4.752   8.170   2.847 -0.0938  0.3783  0.2252
 5984W        W 9503   5.868   0.545   3.997  0.3137  0.1429  0.0163
 5985W        W 9504   5.794   4.952   9.768 -0.0364 -0.0952  0.1503
 5986W        W 9505   8.912   8.480   9.704 -0.2456  0.0308  0.2014
 5987W        W 9506   4.878   9.027  10.965 -0.0680 -0.0584 -0.0995
 5988W        W 9507   2.099   7.241   1.143 -0.1851 -0.1242  0.0814
 5989W        W 9508   1.117   4.325   2.154  0.0611 -0.0145  0.0215
 5990W        W 9509   5.516   0.076  10.033 -0.0240  0.0112 -0.0889
 5991W        W 9510   5.142   1.493  11.877  0.0516  0.5770  0.0325
 5992W        W 9511   0.631   7.072   2.944 -0.3694  0.2258 -0.0619
 5993W        W 9512   8.909   1.936  12.373 -0.0485 -0.0841  0.0599
 5994W        W 9513   2.664   2.832   0.108 -0.1468  0.0098  0.0361
 5995W        W 9514   7.693   1.486  11.486 -0.0301 -0.3711  0.2875
 5996W        W 9515   8.149   4.415  11.546  0.1626  0.0532  0.2385
 5997W        W 9516   5.045   1.310   2.256 -0.1182 -0.1482 -0.0978
 5998W        W 9517   5.904   3.593  11.125 -0.2081  0.1662  0.3299
 5999W        W 9518   9.473   2.870   0.724 -0.1894  0.0674 -0.1630
 6000W        W 9519   8.227   8.395  12.112 -0.3726 -0.1173 -0.1901
 6001W        W 9520   1.504   2.508  10.916  0.0172 -0.0545 -0.0174
 6002W        W 9521   3.921   5.594   2.009 -0.0279  0.0841 -0.2330
 6003W        W 9522   3.810   2.744   9.184  0.1210  0.1985  0.0910
 6004W        W 9523   4.393   8.983  12.295  0.2112 -0.0532 -0.2762
 6005W        W 9524   1.774   1.052   0.896  0.2471  0.3906 -0.0676
 6006W        W 9525   0.972   8.403   2.515 -0.0532  0.0688  0.1084
 6007W        W 9526   6.287   1.183   4.708 -0.1251  0.0749 -0.3735
 6008W        W 9527   0.557   2.173   1.132 -0.2749 -0.0160 -0.0888
 6009W        W 9528   8.338   8.434  11.164 -0.0426 -0.4217 -0.1062
 6010W        W 9529   8.329   5.223   1.890 -0.0620 -0.1435  0.1896
 6011W        W 9530   7.787   7.289   8.219 -0.1264  0.1285 -0.2385
 6012W        W 9531   3.164   3.631   8.358  0.0863  0.3140 -0.0231
 6013W        W 9532   0.323   7.397   3.650 -0.2534 -0.1434 -0.1829
 6014W        W 9533   6.104   1.225  12.416  0.0892  0.0429 -0.0981
 6015W        W 9534   2.294   3.704   3.329  0.1637 -0.2037 -0.0059
 6016W        W 9535   4.692   3.444   8.269 -0.0763  0.3418 -0.1019
 6017W        W 9536   0.145   0.330  12.335 -0.1121 -0.0254 -0.0567
 6018W        W 9537   6.662   3.221  10.005  0.0576 -0.0622 -0.0212
 6019W        W 9538   3.647   2.205   4.047  0.0865 -0.2537 -0.2892
 6020W        W 9539   5.686   9.430  10.367  0.2719  0.0474 -0.0677
 6021W        W 9540   1.421   4.761  10.170 -0.0716  0.1055  0.0183
 6022W        W 9541   8.998   0.042   4.773  0.2144 -0.1563  0.1300
 6023W        W 9542   7.590   7.064   3.468 -0.1291  0.0382  0.0628
 6024W        W 9543   0.428   7.863  10.606  0.0925  0.0999 -0.2637
 6025W        W 9544   5.825   5.584  11.693  0.0146 -0.2476 -0.1725
 6026W        W 9545   8.309   7.724   8.886  0.1713  0.2288 -0.0519
 6027W        W 9546   5.727   6.553   3.609 -0.0431 -0.3646  0.0012
 6028W        W 9547   0.868   7.347   3.304  0.0258  0.2388  0.0986
 6029W        W 9548   6.515   0.106  10.800 -0.2538  0.2844  0.2212
 6030W        W 9549   4.006   6.682   9.980  0.1272  0.0161 -0.0123
 6031W        W 9550   9.028   5.156  10.763  0.0673 -0.4768  0.1722
 6032W        W 9551   7.206   6.018   1.726 -0.0639  0.1219 -0.2914
 6033W        W 9552   0.838   2.146   0.199  0.0165  0.0195 -0.1583
 6034W        W 9553   8.990   3.784   2.079 -0.1841 -0.2119 -0.4257
 6035W        W 9554   6.818   8.980   3.666  0.0170  0.1453 -0.1195
 6036W        W 9555   0.635   0.894   9.476  0.0274  0.0912  0.0416
 6037W        W 9556   8.850   5.431  11.734  0.1794  0.1417 -0.0978
 6038W        W 9557   7.582   2.338   4.320 -0.0577  0.1845 -0.0096
 6039W        W 9558   5.528   5.289   9.470  0.0162  0.0295 -0.1075
 6040W        W 9559   6.513   7.037   2.056 -0.0305  0.1129  0.0050
 6041W        W 9560   8.185   5.984   1.889 -0.0157  0.0795 -0.1073
 6042W        W 9561   1.926   0.304   1.515  0.0739  0.0462 -0.0831
 6043W        W 9562   8.470   6.994   0.120  0.1427  0.0592  0.0165
 6044W        W 9563   4.895   2.477   4.116 -0.2417 -0.0087 -0.0705
 6045W        W 9564   2.653   4.164  11.561  0.0522  0.0804  0.0949
 6046W        W 9565   6.844   5.075   8.004  0.0942 -0.0006  0.2244
 6047W        W 9566   4.855   5.785   3.801  0.3628  0.0529 -0.4106
 6048W        W 9567   9.381   3.395  10.756  0.1879 -0.0663  0.1965
 6049W        W 9568   9.308   7.090  11.021  0.0563 -0.1191  0.0799
 6050W        W 9569   8.857   4.529  10.015 -0.0027 -0.2802 -0.1800
 6051W        W 9570   8.955   5.048   2.506  0.0403 -0.2591  0.0421
 6052W        W 9571   2.752   2.715   9.597  0.0900  0.3649 -0.1893
 6053W        W 9572   4.707   9.673   2.596 -0.0562  0.0659 -0.0606
 6054W        W 9573   8.173   7.617   2.185 -0.1294  0.0627  0.0908
 6055W        W 9574   2.221   7.532  12.370  0.1587 -0.2580  0.2567
 6056W        W 9575   0.144   3.963   4.564  0.0711 -0.1341 -0.0106
 6057W        W 9576   2.298   2.871  10.881 -0.2812 -0.2789  0.3176
 6058W        W 9577   8.868   2.582  10.601 -0.0847  0.5430  0.0195
 6059W        W 9578   4.319   9.049  10.643  0.0106  0.1877  0.0029
 6060W        W 9579   2.964   1.098  11.731  0.3319  0.0114  0.0718
 6061W        W 9580   0.982   2.396   9.486 -0.1103  0.2133  0.0427
 6062W        W 9581   2.748   8.763  11.930 -0.0058  0.3872 -0.1508
 6063W        W 9582   7.180   9.193  12.147 -0.5524 -0.1795  0.1498
 6064W        W 9583   9.244   4.881   9.062  0.0964 -0.1774 -0.0468
 6065W        W 9584   7.193   0.977   3.054 -0.3212  0.2338 -0.4152
 6066W        W 9585   2.022   7.710   0.392  0.0354 -0.1189  0.3447
 6067W        W 9586   3.820   1.821   4.787  0.2526  0.0008  0.1207
 6068W        W 9587   9.616   2.993  12.184 -0.1703  0.0359  0.4253
 6069W        W 9588   4.404   7.597   9.393  0.2556 -0.2591  0.0384
 6070W        W 9589   1.124   5.297   2.322 -0.2255 -0.0834 -0.0784
 6071W        W 9590   8.319   2.529   3.934  0.1751  0.0025  0.2408
 6072W        W 9591   1.761   5.387   3.857  0.0217  0.0991 -0.0106
 6073W        W 9592   8.076   3.667   2.540 -0.1950  0.3566  0.0975
 6074W        W 9593   0.662   7.028   8.496 -0.1713 -0.1153  0.0882
 6075W        W 9594   3.761   6.386   1.405 -0.2962  0.1734  0.0089
 6076W        W 9595   1.509   8.999  10.866  0.2337  0.0192  0.0009
 6077W        W 9596   3.717   4.581   0.869  0.0442 -0.2651 -0.0806
 6078W        W 9597   4.062   8.154  11.126 -0.0851 -0.0923 -0.3466
 6079W        W 9598   5.896   6.424   8.455 -0.2835  0.1865  0.1804
 6080W        W 9599   5.201   9.110   0.977 -0.0706  0.1324 -0.0072
 6081W        W 9600   2.202   4.149   0.430  0.3253  0.0994 -0.0723
 6082W        W 9601   5.475   2.835   8.431 -0.2074  0.1681  0.0541
 6083W        W 9602   2.617   6.656   3.328 -0.1526 -0.1173  0.3624
 6084W        W 9603   7.848   6.332   2.173  0.2314  0.0001 -0.2376
 6085W        W 9604   4.504   9.550   0.372 -0.0745  0.0818 -0.0136
 6086W        W 9605   7.366   8.967   4.134 -0.1715 -0.1503  0.3126
 6087W        W 9606   8.120   5.705   7.698  0.2058  0.2258  0.0811
 6088W        W 9607   8.210   8.951  10.149 -0.0189 -0.0112  0.1178
 6089W        W 9608   2.473   2.077  10.234 -0.1147 -0.3256  0.0351
 6090W        W 9609   4.605   7.236  12.031 -0.0195 -0.0744  0.1277
 6091W        W 9610   1.770   4.035   8.120 -0.2711  0.0991 -0.1410
 6092W        W 9611   5.168   4.287  12.066  0.1066  0.3086  0.1403
 6093W        W 9612   0.550   7.588   9.115 -0.3775 -0.1160 -0.1032
 6094W        W 9613   7.831   3.704  10.227 -0.1547 -0.0223 -0.2512
 6095W        W 9614   3.104   9.513   2.169 -0.0993 -0.0171 -0.3595
 6096W        W 9615   0.450   0.819   0.296  0.0196  0.0241 -0.0087
 6097W        W 9616   8.509   9.369   3.881 -0.0867  0.2294  0.3839
 6098W        W 9617   5.345   0.881   3.322 -0.0850  0.0708  0.1635
 6099W        W 9618   6.892   2.645  10.323 -0.0245 -0.0448  0.2765
 6100W        W 9619   4.751   0.923   0.220  0.2137  0.1452 -0.0213
 6101W        W 9620   0.219   7.103  11.893  0.1232 -0.2844 -0.1267
 6102W        W 9621   8.220   8.879   1.413  0.0999  0.0639  0.0347
 6103W        W 9622   5.240   1.797   3.144  0.3269 -0.0963  0.1952
 6104W        W 9623   2.157   9.716   0.579  0.0320  0.1174  0.1153
 6105W        W 9624   7.220   4.738  11.958 -0.0755  0.4139  0.1272
 6106W        W 9625   4.782   5.795  12.301  0.2209 -0.0011 -0.4221
 6107W        W 9626   6.438   1.622   0.796 -0.2492  0.2864 -0.1842
 6108W        W 9627   7.490   9.586   9.746 -0.1748  0.1232  0.0233
 6109W        W 9628   4.541   7.193   3.599 -0.0791 -0.1786 -0.0769
 6110W        W 9629   7.052   1.045  10.285 -0.2083 -0.0033  0.2144
 6111W        W 9630   2.622   6.693  10.843  0.0054 -0.0232 -0.5693
 6112W        W 9631   0.093   9.387   9.938  0.0078 -0.3689  0.1832
 6113W        W 9632   9.660   4.262  10.921  0.1834 -0.2891  0.1858
 6114W        W 9633   4.158   4.364  10.644  0.3450 -0.1312  0.1096
 6115W        W 9634   9.182   8.049   1.120  0.3586  0.0215 -0.0575
 6116W        W 9635   6.468   3.869   9.436 -0.4152 -0.1651  0.2479
 6117W        W 9636   3.250   6.651   2.046 -0.4168  0.0112  0.1562
 6118W        W 9637   3.588   1.320   0.185  0.0670  0.1455  0.1632
 6119W        W 9638   7.581   9.680   4.673  0.0755 -0.0832 -0.0199
 6120W        W 9639   5.031   1.006   0.634 -0.2955  0.0201 -0.0418
 6121W        W 9640   3.064   6.529  11.632 -0.1319 -0.0249  0.2897
 6122W        W 9641   0.785   4.551   8.338 -0.0863 -0.0901 -0.2333
 6123W        W 9642   9.070   8.247   9.261 -0.1191  0.3210 -0.2301
 6124W        W 9643   3.772   1.942   1.292 -0.2740  0.2502  0.0666
 6125W        W 9644   0.323   0.191   1.124  0.1183 -0.1319 -0.3240
 6126W        W 9645   4.477   2.236   4.202  0.2027  0.0029 -0.1629
 6127W        W 9646   5.221   6.035   4.046  0.0918  0.3769  0.0528
 6128W        W 9647   6.174   3.649   3.212  0.1519 -0.0935 -0.1880
 6129W        W 9648   7.404   1.182   1.989  0.1957  0.5286 -0.2315
 6130W        W 9649   4.360   6.885   3.260 -0.2122  0.1449 -0.0033
 6131W        W 9650   9.225   0.067   3.003  0.3342  0.0515  0.0929
 6132W        W 9651   2.668   1.087   9.375 -0.0988  0.1862 -0.2091
 6133W        W 9652   2.926   2.878  12.175 -0.2431  0.1141 -0.2529
 6134W        W 9653   9.327   7.480   4.317 -0.0032 -0.2437  0.1814
 6135W        W 9654   1.015   2.707   9.848 -0.0653  0.0020 -0.1492
 6136W        W 9655   3.881   8.523   2.580  0.4064  0.1564 -0.1135
 6137W        W 9656   7.717   4.944  11.970  0.2136  0.2011  0.0476
 6138W        W 9657   5.972   1.025   9.284  0.0865 -0.1367  0.3323
 6139W        W 9658   8.624   5.417   9.861 -0.2457 -0.0898  0.1055
 6140W        W 9659   4.435   5.842  10.245 -0.0965  0.0281  0.0130
 6141W        W 9660   2.441   2.969   2.253  0.3477 -0.0495 -0.0482
 6142W        W 9661   5.389   2.308   9.133 -0.1216 -0.0866  0.1327
 6143W        W 9662   0.482   6.908   3.463  0.0669 -0.1320 -0.0552
 6144W        W 9663   2.925   7.618   3.129 -0.0247 -0.0808 -0.0762
 6145W        W 9664   6.101   6.795   9.885  0.0318  0.1388 -0.0813
 6146W        W 9665   6.732   2.813   3.903 -0.1698  0.3021  0.2909
 6147W        W 9666   4.832   0.237   0.258  0.2189  0.4802 -0.0870
 6148W        W 9667   9.563   7.451   8.499  0.0690  0.1219  0.1975
 6149W        W 9668   2.187   2.593   1.490  0.3015  0.4563 -0.0861
 6150W        W 9669   6.012   8.426   3.097 -0.0599  0.1336 -0.1992
 6151W        W 9670   1.362   1.199   2.173 -0.0823  0.0221  0.0910
 6152W        W 9671   3.939   7.496   2.134  0.2574 -0.3577  0.0904
 6153W        W 9672   7.400   0.795  11.653 -0.3583  0.2750 -0.0775
 6154W        W 9673   0.051   3.703   1.839 -0.3607  0.3437  0.0798
 6155W        W 9674   4.712   6.233  10.574 -0.0116  0.1698 -0.1504
 6156W        W 9675   1.241   5.694  12.223  0.1635 -0.3426 -0.1623
 6157W        W 9676   2.190   6.123  12.000  0.3156  0.0714 -0.1288
 6158W        W 9677   2.795   6.623   9.552 -0.5329 -0.2304 -0.1818
 6159W        W 9678   9.615   5.810   1.746  0.0891 -0.0692 -0.0890
 6160W        W 9679   0.282   4.417  11.654  0.0052  0.1027  0.0557
 6161W        W 9680   4.251   0.011  11.226  0.2178 -0.1089 -0.2305
 6162W        W 9681   0.512   9.141   9.968  0.0029 -0.5086  0.1730
 6163W        W 9682   3.152   3.450   2.227  0.2190  0.0333 -0.0041
 6164W        W 9683   4.475   5.608  11.350  0.0913  0.0546 -0.0131
 6165W        W 9684   2.231   1.956   9.800 -0.0147 -0.0772  0.0838
 6166W        W 9685   7.730   5.823   8.616 -0.1998  0.0544 -0.2653
 6167W        W 9686   1.323   4.570   0.134  0.1664 -0.0456  0.0012
 6168W        W 9687   8.392   9.508   0.795 -0.1437 -0.0336  0.0937
 6169W        W 9688   1.408   8.903  12.375 -0.0926  0.2700 -0.0315
 6170W        W 9689   8.636   3.134  12.091  0.0980  0.0849 -0.3378
 6171W        W 9690   6.212   1.276   3.566 -0.0267 -0.1889 -0.0531
 6172W        W 9691   8.720   2.375   1.625  0.3045  0.1479 -0.0355
 6173W        W 9692   4.047   0.725   0.843 -0.1829  0.3599 -0.2696
 6174W        W 9693   4.977   2.537   0.195  0.1281  0.0174 -0.0253
 6175W        W 9694   3.479   4.913   3.729 -0.1293  0.0968  0.2815
 6176W        W 9695   0.618   1.921   1.563 -0.1054  0.0836  0.1306
 6177W        W 9696   3.068   7.227  12.435 -0.0922 -0.0684  0.0696
 6178W        W 9697   2.414   8.322   1.412  0.2540  0.3155  0.2971
 6179W        W 9698   1.006   6.803   8.855 -0.0113 -0.0731  0.0588
 6180W        W 9699   5.947   6.202   7.775 -0.0873  0.0546 -0.4758
 6181W        W 9700   6.555   2.007   3.454 -0.1162 -0.0708 -0.3183
 6182W        W 9701   4.242   9.398   2.390 -0.1459 -0.0440 -0.2246
 6183W        W 9702   6.346   3.949  10.561  0.2786  0.3359  0.1120
 6184W        W 9703   2.968   0.048  10.978 -0.1528  0.0240  0.0555
 6185W        W 9704   7.185   5.821   4.021  0.0068  0.1342  0.1101
 6186W        W 9705   9.672   9.168   3.586 -0.0716 -0.1977  0.1749
 6187W        W 9706   7.601   4.673   9.402 -0.0242  0.0717 -0.1348
 6188W        W 9707   5.574   8.890   0.305  0.2737 -0.2972  0.0835
 6189W        W 9708   2.844   5.736  12.002 -0.0241  0.3756  0.1254
 6190W        W 9709   4.749   8.194   9.846  0.1628 -0.0693  0.0490
 6191W        W 9710   4.058   3.442  10.321 -0.0727 -0.2838 -0.2133
 6192W        W 9711   2.149   7.628   0.877 -0.2281  0.0558  0.2590
 6193W        W 9712   4.776   1.304   0.981 -0.2684  0.1664 -0.2004
 6194W        W 9713   1.356   7.961   3.626 -0.1272  0.0494  0.1341
 6195W        W 9714   7.044   8.130   2.922  0.1434  0.0672 -0.2651
 6196W        W 9715   8.264   8.139   8.014  0.1992  0.2614 -0.2470
 6197W        W 9716   8.262   6.604   2.290  0.0905  0.1853 -0.0459
 6198W        W 9717   7.992   6.602   8.687 -0.1895  0.0087 -0.0243
 6199W        W 9718   8.367   0.729   0.768  0.0033  0.0421  0.1189
 6200W        W 9719   3.410   4.271  10.097  0.1623 -0.0180 -0.1376
 6201W        W 9720   7.433   9.575   8.261 -0.2178  0.0494  0.0298
 6202W        W 9721   1.521   7.789   1.868 -0.0765 -0.0212 -0.1086
 6203W        W 9722   6.840   7.492  11.435 -0.2931 -0.2514 -0.1340
 6204W        W 9723   4.947   2.079  11.105  0.0259  0.1501  0.1116
 6205W        W 9724   3.067   6.207   2.031  0.2692 -0.1790  0.0372
 6206W        W 9725   7.193   7.927  11.391 -0.2701 -0.3278 -0.2134
 6207W        W 9726   4.247   7.173   2.412  0.3255  0.0383 -0.2905
 6208W        W 9727   1.415   6.984   9.715  0.0627  0.1140  0.2165
 6209W        W 9728   2.084   7.413  11.857  0.1252  0.1427 -0.1767
 6210W        W 9729   2.833   7.126   3.179  0.0054 -0.2458  0.2738
 6211W        W 9730   7.266   3.605   9.028  0.0374 -0.2404 -0.2162
 6212W        W 9731   7.913   2.308  11.542 -0.1618 -0.1387  0.3249
 6213W        W 9732   4.350   4.373  11.583  0.0195  0.1928  0.1834
 6214W        W 9733   0.678   2.458  11.839 -0.1121 -0.1392 -0.2546
 6215W        W 9734   4.387   2.417   9.272 -0.0858  0.2210 -0.0648
 6216W        W 9735   3.116   6.869  10.951 -0.2534  0.2455  0.0198
 6217W        W 9736   1.778   6.174   8.531 -0.1986  0.2815 -0.0011
 6218W        W 9737   4.017   4.216   1.226  0.0663 -0.0455 -0.0224
 6219W        W 9738   8.571   5.914   9.527 -0.1354 -0.0127  0.3417
 6220W        W 9739   4.432   3.596  12.424  0.2445  0.0893  0.1918
 6221W        W 9740   8.678   8.885   8.561  0.0360  0.1317  0.1754
 6222W        W 9741   1.927   6.390   8.959 -0.1033  0.1984  0.0070
 6223W        W 9742   3.524   2.681  11.994 -0.1705 -0.0548 -0.1907
 6224W        W 9743   6.377   8.852  11.264  0.0727  0.4398 -0.0995
 6225W        W 9744   6.867   6.732   8.447  0.1301 -0.0340  0.0069
 6226W        W 9745   8.206   7.465  10.256 -0.1079 -0.0422  0.1269
 6227W        W 9746   0.719   5.978  10.831  0.2867  0.2379  0.2209
 6228W        W 9747   0.688   1.370  11.168 -0.0445  0.2597  0.2508
 6229W        W 9748   8.163   8.463   0.918 -0.2275  0.1489  0.0839
 6230W        W 9749   3.401   2.069  10.492 -0.0547  0.1042 -0.3131
 6231W        W 9750   2.515   6.252   9.630  0.0799  0.0205  0.1778
 6232W        W 9751   6.200   2.269  12.072 -0.0653  0.1444  0.1567
 6233W        W 9752   2.910   6.749   2.355  0.0698 -0.2652 -0.2459
 6234W        W 9753   0.797   9.474   1.366  0.1215 -0.5320 -0.0960
 6235W        W 9754   9.450   6.368   2.380 -0.2268 -0.2600  0.0007
 6236W        W 9755   6.891   8.817   3.203 -0.1179 -0.4169  0.0228
 6237W        W 9756   2.021   4.689  10.962  0.0777  0.1955  0.0608
 6238W        W 9757   6.244   6.485   0.469 -0.1986  0.1804 -0.2098
 6239W        W 9758   2.770   9.716  12.303  0.2399  0.3372 -0.1120
 6240W        W 9759   6.651   4.076   1.826  0.0280 -0.0486 -0.1895
 6241W        W 9760   7.921   0.575   4.625  0.0073  0.1675  0.0637
 6242W        W 9761   8.911   7.147   2.215 -0.2664  0.1146 -0.0214
 6243W        W 9762   5.505   8.247   3.645  0.1871  0.0797 -0.2058
 6244W        W 9763   7.473   3.648  11.833 -0.1831  0.1485  0.0451
 6245W        W 9764   0.092   4.511   4.517  0.0156  0.0586  0.2814
 6246W        W 9765   3.822   1.303  10.496 -0.1002 -0.1549 -0.2245
 6247W        W 9766   1.478   2.202   9.481  0.2237 -0.0872  0.1892
 6248W        W 9767   6.590   6.364  11.048  0.2436 -0.0754 -0.0116
 6249W        W 9768   7.494   1.676   2.972 -0.0527  0.4018  0.0271
 6250W        W 9769   0.927   1.853   3.220  0.0487 -0.1744  0.3032
 6251W        W 9770   3.038   8.452  11.163  0.1992 -0.1796 -0.2593
 6252W        W 9771   9.663   7.453   7.574 -0.0841 -0.0285  0.1581
 6253W        W 9772   3.644   5.206  10.511  0.2735 -0.1382 -0.2417
 6254W        W 9773   8.488   8.096   0.676 -0.0740  0.0329 -0.3028
 6255W        W 9774   8.900   5.338  11.227  0.0587  0.1212  0.0508
 6256W        W 9775   5.034   1.892   9.550  0.4546 -0.4768 -0.0054
 6257W        W 9776   0.053   6.680  10.412 -0.0214  0.1217 -0.0306
 6258W        W 9777   4.811   1.709  11.533 -0.3671  0.0714 -0.0304
 6259W        W 9778   1.705   3.450   0.280 -0.0045 -0.1856 -0.0560
 6260W        W 9779   1.001   2.237   2.553  0.3157  0.2335 -0.1978
 6261W        W 9780   8.443   3.366   8.934 -0.1117  0.1039 -0.0074
 6262W        W 9781   5.919   1.433   1.207 -0.1288 -0.0029  0.1621
 6263W        W 9782   8.802   8.796   0.911 -0.0936 -0.2205  0.2005
 6264W        W 9783   1.805   6.396   2.446  0.0523 -0.4415 -0.0914
 6265W        W 9784   8.945   2.746   8.597  0.2571  0.2229 -0.1615
 6266W        W 9785   5.868   5.131  11.284 -0.2312  0.0889  0.1490
 6267W        W 9786   9.346   1.088  12.246 -0.1747  0.1454 -0.0139
 6268W        W 9787   0.563   3.407   1.833 -0.1930 -0.2231 -0.0709
 6269W        W 9788   3.704   8.912   1.575 -0.0083  0.0300 -0.4077
 6270W        W 9789   1.592   4.279   0.880 -0.0337 -0.0836 -0.1544
 6271W        W 9790   3.368   7.601   3.377  0.1197  0.0124 -0.0777
 6272W        W 9791   1.272   4.554   2.835  0.1509 -0.0963 -0.1211
 6273W        W 9792   9.430   7.832   3.792 -0.0952  0.0303  0.3389
 6274W        W 9793   5.524   1.812   9.269  0.0898 -0.0456  0.3118
 6275W        W 9794   3.390   4.134   9.133 -0.1798  0.4121  0.3703
 6276W        W 9795   0.759   7.388   8.110  0.0083  0.0844  0.2912
 6277W        W 9796   6.865   2.395   0.245 -0.2242 -0.3065  0.0497
 6278W        W 9797   2.027   9.399  11.771 -0.2965 -0.0796 -0.3192
 6279W        W 9798   9.487   5.144  12.164 -0.0766 -0.1735 -0.0460
 6280W        W 9799   5.066   9.554   0.478  0.0898  0.0611 -0.2110
 6281W        W 9800   2.165   6.956   3.182  0.0989  0.2257 -0.0484
 6282W        W 9801   3.726   8.987  12.246 -0.0238 -0.1791 -0.2177
 6283W        W 9802   0.048   1.189   2.772 -0.0578 -0.0232 -0.2717
 6284W        W 9803   9.322   8.575  10.984  0.0159 -0.1215 -0.0277
 6285W        W 9804   6.456   0.053  10.203  0.0662 -0.0564 -0.2040
 6286W        W 9805   8.027   1.520   1.894  0.0080  0.4167  0.4435
 6287W        W 9806   5.107   4.821   2.715  0.0387  0.0485  0.2491
 6288W        W 9807   6.311   4.676   9.057 -0.2142 -0.1490 -0.2326
 6289W        W 9808   0.555   3.558  12.033  0.1086  0.2344 -0.1736
 6290W        W 9809   1.065   4.064   9.085 -0.1862  0.2251 -0.0916
 6291W        W 9810   5.733   7.675  10.310 -0.0130  0.1860 -0.0598
 6292W        W 9811   8.260   7.949  12.247 -0.2265  0.4558 -0.2883
 6293W        W 9812   8.135   6.111   4.232 -0.1324  0.0685  0.0754
 6294W        W 9813   5.882   7.409   0.736  0.3926  0.0101 -0.1922
 6295W        W 9814   1.104   1.167   1.666 -0.1006 -0.0430 -0.2920
 6296W        W 9815   2.573   9.415  11.962 -0.1767  0.0286 -0.1691
 6297W        W 9816   1.201   0.699  11.598 -0.1711  0.2836  0.1155
 6298W        W 9817   9.596   9.661   9.504 -0.0846 -0.4356  0.0987
 6299W        W 9818   9.631   4.638   1.952  0.0458  0.3269 -0.0290
 6300W        W 9819   8.723   7.369  11.740  0.4280 -0.0447 -0.1976
 6301W        W 9820   8.879   8.236   0.328 -0.3605  0.0552  0.2970
 6302W        W 9821   0.679   2.573   0.752 -0.0426  0.0167  0.1357
 6303W        W 9822   2.078   2.283  12.071  0.0242  0.1243  0.0222
 6304W        W 9823   1.366   3.723  10.443 -0.0801  0.6800  0.0095
 6305W        W 9824   5.554   3.943   1.089  0.0781 -0.0634 -0.2754
 6306W        W 9825   8.821   7.544   7.635 -0.3369 -0.0065  0.3744
 6307W        W 9826   4.654   0.030   0.792  0.2994 -0.1385  0.0131
 6308W        W 9827   7.755   3.532   9.229 -0.0340  0.0628  0.2430
 6309W        W 9828   4.376   7.553   3.350  0.0556 -0.0869  0.1620
 6310W        W 9829   1.097   0.660  12.297  0.0851 -0.0930  0.1868
 6311W        W 9830   0.488   4.196   0.228 -0.0446  0.1015  0.1192
 6312W        W 9831   0.412   6.570   9.663 -0.0396  0.0407  0.1470
 6313W        W 9832   4.181   1.706  10.396 -0.2456 -0.3147 -0.0530
 6314W        W 9833   3.994   0.149   3.307  0.2654  0.2271 -0.1098
 6315W        W 9834   1.237   1.460   9.963  0.3152 -0.1497 -0.0382
 6316W        W 9835   5.400   3.477   0.328  0.1856 -0.0518  0.0443
 6317W        W 9836   6.913   0.009   1.920  0.1372 -0.0237 -0.2840
 6318W        W 9837   4.130   2.589   8.005 -0.0670 -0.1046  0.1944
 6319W        W 9838   1.401   4.809  11.716 -0.1824  0.1849  0.0183
 6320W        W 9839   3.557   3.986   3.272 -0.1654  0.1499  0.2314
 6321W        W 9840   8.085   4.753  11.158 -0.2505 -0.3761  0.1970
 6322W        W 9841   2.233   1.231   3.137  0.0266 -0.1510  0.1591
 6323W        W 9842   9.037   3.630   1.219 -0.0173  0.2014 -0.0875
 6324W        W 9843   0.235   5.976   9.575  0.1584  0.1001 -0.0144
 6325W        W 9844   5.197   6.785   1.671 -0.1291 -0.0426 -0.1325
 6326W        W 9845   7.461   6.868   0.996  0.1782  0.0423  0.0467
 6327W        W 9846   5.110   0.413   3.125 -0.0163 -0.3380 -0.0796
 6328W        W 9847   2.855   4.488  10.887  0.1524 -0.0151  0.1004
 6329W        W 9848   5.365   3.034   2.206 -0.0594 -0.1091 -0.0828
 6330W        W 9849   7.389   8.740  12.447  0.1417  0.2491  0.1792
 6331W        W 9850   7.801   1.724   3.364 -0.0352 -0.2858  0.0188
 6332W        W 9851   4.364   1.217   0.103  0.3795 -0.0634 -0.0347
 6333W        W 9852   6.763   1.866  10.127 -0.0046 -0.0115 -0.3524
 6334W        W 9853   2.390   0.617   3.161 -0.0493 -0.1677  0.0800
 6335W        W 9854   6.928   9.539   9.029 -0.4923  0.2845 -0.1384
 6336W        W 9855   2.437   4.361   1.326  0.3216 -0.0586  0.1467
 6337W        W 9856   2.828   7.698  11.047  0.0795 -0.2450 -0.0604
 6338W        W 9857   6.659   3.737  10.210  0.2276  0.0127 -0.3041
 6339W        W 9858   4.431   4.651   8.884  0.3282 -0.2344  0.0683
 6340W        W 9859   5.137   0.395  11.034  0.3449 -0.1611 -0.0991
 6341W        W 9860   8.994   3.706  11.471  0.4925 -0.2196  0.0896
 6342W        W 9861   6.424   2.626  10.955  0.0136  0.2167 -0.0891
 6343W        W 9862   8.960   1.146  10.292  0.2283 -0.0080 -0.0476
 6344W        W 9863   7.671   7.058  11.854 -0.1346 -0.3581  0.1241
 6345W        W 9864   2.379   8.164   0.051 -0.2079 -0.1681 -0.1490
 6346W        W 9865   8.272   1.359  12.444  0.2684 -0.1758  0.0899
 6347W        W 9866   1.789   2.764  10.499 -0.4502 -0.3730  0.0281
 6348W        W 9867   5.410   8.271   0.963  0.2751  0.2341  0.2309
 6349W        W 9868   8.094   7.132  11.586 -0.3003  0.2492 -0.1556
 6350W        W 9869   1.392   3.484   1.190  0.2270  0.0747  0.2924
 6351W        W 9870   5.302   5.158   2.320  0.1270  0.3399 -0.1815
 6352W        W 9871   1.169   8.973  10.204  0.1340  0.2577  0.2104
 6353W        W 9872   0.895   9.575  11.470 -0.1875  0.2041  0.0342
 6354W        W 9873   1.924   6.007  10.666 -0.0988  0.0716  0.2691
 6355W        W 9874   3.179   8.050  11.535  0.0348  0.2287  0.2526
 6356W        W 9875   3.363   6.633   1.228  0.1422 -0.0965  0.3317
 6357W        W 9876   4.843   8.760   9.686 -0.0781  0.0392 -0.4121
 6358W        W 9877   6.864   8.285   3.392  0.0459 -0.0159 -0.0127
 6359W        W 9878   2.813   7.775   1.389 -0.2667  0.3669  0.1838
 6360W        W 9879   8.131   4.111   2.567 -0.2965  0.0130  0.0918
 6361W        W 9880   4.835   9.297   3.638  0.3450 -0.3149  0.3398
 6362W        W 9881   6.539   5.354   9.655 -0.0178 -0.2506  0.0070
 6363W        W 9882   4.987   8.227  12.278 -0.0147  0.0553  0.0855
 6364W        W 9883   9.247   1.153   1.915 -0.0809 -0.0132 -0.0526
 6365W        W 9884   9.662   7.105   4.441  0.2285  0.1793 -0.0217
 6366W        W 9885   7.093   7.574   2.754  0.0279 -0.0540 -0.0539
 6367W        W 9886   0.437   4.520   4.036  0.0040  0.0078  0.1064
 6368W        W 9887   0.981   5.959  11.279  0.1408 -0.0333 -0.1679
 6369W        W 9888   8.249   6.578   1.231  0.2113  0.1257  0.1535
 6370W        W 9889   2.674   0.182   3.325  0.1267 -0.0849 -0.1884
 6371W        W 9890   0.428   9.315   3.107  0.4081 -0.1771  0.1601
 6372W        W 9891   0.190   4.656   0.048 -0.0456 -0.0121 -0.3080
 6373W        W 9892   2.824   3.401  11.554 -0.4162  0.2465 -0.0964
 6374W        W 9893   4.774   1.755   3.406 -0.3070 -0.2792  0.2848
 6375W        W 9894   7.374   9.495   2.710  0.2151  0.0505 -0.0268
 6376W        W 9895   5.225   9.456   2.628  0.1545  0.3390 -0.2200
 6377W        W 9896   7.138   0.745   8.585 -0.0733  0.0303 -0.1434
 6378W        W 9897   9.385   5.886   7.926 -0.1251  0.1699 -0.2455
 6379W        W 9898   4.047   1.108   8.867  0.4267  0.1226 -0.1507
 6380W        W 9899   0.343   6.096  12.351  0.0073  0.0801  0.2917
 6381W        W 9900   4.031   2.557  12.136  0.1377 -0.0289 -0.2650
 6382W        W 9901   0.341   7.060   9.591  0.3012  0.5091 -0.0826
 6383W        W 9902   8.561   3.730   3.693 -0.1268  0.2758  0.0578
 6384W        W 9903   7.864   1.036  11.614 -0.1318  0.3530 -0.1258
 6385W        W 9904   6.912   4.798   8.457 -0.0915 -0.0287 -0.0818
 6386W        W 9905   5.164   4.298   2.447 -0.0049  0.0105 -0.2288
 6387W        W 9906   3.189   7.402  11.951 -0.0297 -0.1126  0.0410
 6388W        W 9907   7.009   3.893  10.553 -0.0487  0.2190 -0.0680
 6389W        W 9908   4.425   3.604   8.770 -0.1503 -0.1260 -0.2034
 6390W        W 9909   4.360   8.783   8.975  0.3502  0.1047 -0.2130
 6391W        W 9910   1.140   0.326   9.903 -0.0898 -0.0644 -0.0082
 6392W        W 9911   8.595   4.745   8.556  0.2864 -0.1095  0.2897
 6393W        W 9912   9.347   2.726   2.713 -0.2668 -0.0853 -0.0544
 6394W        W 9913   6.062   8.743   0.275 -0.0215  0.1062  0.0654
 6395W        W 9914   4.809   7.845  11.939  0.2803 -0.1902  0.2609
 6396W        W 9915   8.236   0.470  10.032  0.0731  0.0385 -0.1342
 6397W        W 9916   9.336   7.088   1.234  0.0411  0.1352 -0.0869
 6398W        W 9917   3.606   6.661   9.225 -0.2592 -0.3359 -0.0143
 6399W        W 9918   4.980   1.885  10.607 -0.0774 -0.0469 -0.1935
 6400W        W 9919   1.737   5.973   1.121 -0.3113 -0.1392  0.1296
 6401W        W 9920   9.465   3.203   1.385  0.1893  0.2014  0.1422
 6402W        W 9921   2.000   7.953  11.848 -0.0894  0.1683  0.2257
 6403W        W 9922   3.961   1.636   9.703 -0.2916  0.1901 -0.1549
 6404W        W 9923   7.628   2.268   1.336 -0.0287 -0.0929  0.1650
 6405W        W 9924   4.775   6.950   7.920  0.0684  0.0672 -0.2371
 6406W        W 9925   5.221   6.472  11.886  0.0202  0.1601 -0.2944
 6407W        W 9926   8.897   1.649  10.396  0.2674 -0.1745  0.1372
 6408W        W 9927   0.661   7.547   8.601 -0.1771  0.2567 -0.0104
 6409W        W 9928   6.040   6.877   0.687  0.2358 -0.0899  0.0245
 6410W        W 9929   8.653   6.936   1.070  0.4978 -0.2446  0.0903
 6411W        W 9930   1.311   6.240   4.238 -0.0277  0.0047  0.0296
 6412W        W 9931   9.432   4.212  11.937  0.1167 -0.2025  0.0233
 6413W        W 9932   2.930   4.705   9.989  0.0531 -0.0680  0.1903
 6414W        W 9933   9.205   2.548   3.569 -0.2231  0.1404 -0.1190
 6415W        W 9934   9.215   5.847  10.430  0.0071 -0.3000  0.0529
 6416W        W 9935   1.364   1.355   2.634 -0.0748 -0.1775 -0.0788
 6417W        W 9936   8.909   8.739   3.013  0.3083 -0.2220  0.0159
 6418W        W 9937   1.462   7.196  11.130 -0.2248 -0.0512  0.3658
 6419W        W 9938   9.058   6.399   9.762  0.0685 -0.3337 -0.0554
 6420W        W 9939   0.280   9.450   1.219  0.2428 -0.0322 -0.1241
 6421W        W 9940   7.637   6.574  11.162 -0.0441  0.4649 -0.1174
 6422W        W 9941   9.293   0.529   2.638 -0.1110  0.0630  0.0290
 6423W        W 9942   0.394   3.036   1.581  0.0739 -0.0258 -0.1700
 6424W        W 9943   1.750   1.302  10.296 -0.4085 -0.0175 -0.2694
 6425W        W 9944   1.718   5.645   8.431  0.0863 -0.0382  0.1297
 6426W        W 9945   0.200   7.086   1.249  0.1157 -0.5872  0.1537
 6427W        W 9946   9.370   2.125   2.408 -0.1061  0.0286  0.3148
 6428W        W 9947   5.123   6.477   0.846 -0.1087  0.1890  0.3040
 6429W        W 9948   4.282   7.630  12.146 -0.1769 -0.1079  0.1699
 6430W        W 9949   5.111   5.151  11.725 -0.2130 -0.1600 -0.3526
 6431W        W 9950   5.222   7.009   9.454 -0.0530 -0.0876 -0.0090
 6432W        W 9951   2.214   2.949   2.724 -0.0673  0.1406  0.3565
 6433W        W 9952   4.336   1.830  11.827 -0.3868  0.1146  0.2330
 6434W        W 9953   2.077   7.835   3.001  0.1553 -0.0063 -0.0923
 6435W        W 9954   3.794   7.581   3.116 -0.0322 -0.0614  0.0996
 6436W        W 9955   2.309   7.044  10.692  0.2072  0.2888  0.2074
 6437W        W 9956   8.670   2.358   8.842 -0.2177 -0.0808 -0.2883
 6438W        W 9957   9.530   6.783   4.886  0.0214 -0.1624 -0.0876
 6439W        W 9958   6.860   2.726   2.176 -0.0753  0.0997 -0.0089
 6440W        W 9959   4.248   5.077   3.376 -0.1642  0.0951  0.0789
 6441W        W 9960   7.856   8.970   2.216 -0.0682  0.1650  0.0528
 6442W        W 9961   2.383   4.091  12.372  0.0943 -0.1799 -0.0029
 6443W        W 9962   4.134   0.450  11.565  0.1174 -0.1260  0.3025
 6444W        W 9963   3.233   2.669   2.349  0.2082 -0.1678 -0.1780
 6445W        W 9964   2.971   5.269   0.007 -0.2871 -0.0777 -0.4656
 6446W        W 9965   9.009   0.338   1.448  0.1714 -0.2773  0.0607
 6447W        W 9966   4.455   8.802  11.083 -0.0443  0.0965  0.0506
 6448W        W 9967   7.684   0.174   2.845  0.1714  0.0955 -0.3355
 6449W        W 9968   5.850   8.767   1.884  0.0674  0.3152  0.1702
 6450W        W 9969   4.668   3.976   8.501  0.0186  0.1108 -0.2533
 6451W        W 9970   1.676   8.337   0.867 -0.4044  0.1190 -0.0113
 6452W        W 9971   3.279   4.354   1.674 -0.0624 -0.2511  0.0195
 6453W        W 9972   4.332   4.028  11.938  0.1456  0.1569  0.1094
 6454W        W 9973   0.263   6.324  10.030 -0.0305 -0.1703  0.0389
 6455W        W 9974   0.013   1.865   3.673  0.1870 -0.0392  0.0091
 6456W        W 9975   7.097   0.943  12.477  0.0630 -0.2307 -0.0427
 6457W        W 9976   9.650   8.280  10.239 -0.1481 -0.4285 -0.0137
 6458W        W 9977   8.114   2.917   3.481 -0.1105  0.1001 -0.1562
 6459W        W 9978   3.074   9.016   1.470  0.3743 -0.3516 -0.0087
 6460W        W 9979   0.114   1.739   2.787  0.2815 -0.2024 -0.1375
 6461W        W 9980   2.863   5.737   8.443  0.4176 -0.2673 -0.0211
 6462W        W 9981   2.257   7.276   9.606 -0.0744 -0.2293 -0.2227
 6463W        W 9982   2.193   5.519   4.708  0.0703  0.1181 -0.1053
 6464W        W 9983   4.392   9.530   3.436  0.0637  0.2979  0.1300
 6465W        W 9984   4.845   1.975   3.988 -0.0252 -0.1708 -0.0082
 6466W        W 9985   2.717   3.741   3.593 -0.1590  0.1984  0.0846
 6467W        W 9986   3.548   9.390   2.458 -0.1484  0.1092 -0.1481
 6468W        W 9987   1.311   8.775  11.847  0.0441 -0.1528 -0.1135
 6469W        W 9988   1.198   8.446   9.650  0.1382 -0.0319  0.1985
 6470W        W 9989   5.987   2.720  11.184  0.1813  0.1777 -0.1098
 6471W        W 9990   9.158   3.032   3.239 -0.0622 -0.2752 -0.0641
 6472W        W 9991   7.696   7.523   8.644  0.1884 -0.2318  0.3099
 6473W        W 9992   6.062   6.582  11.668 -0.0189 -0.3454 -0.0545
 6474W        W 9993   0.470   4.010   8.763  0.2683  0.1208  0.0020
 6475W        W 9994   7.282   7.471   8.092  0.2378 -0.0951  0.0571
 6476W        W 9995   5.221   3.110   1.122 -0.1098  0.1178 -0.1503
 6477W        W 9996   1.626   1.740   1.394  0.0436  0.1146 -0.0681
 6478W        W 9997   1.704   7.148   0.744 -0.2146 -0.1275  0.2993
 6479W        W 9998   3.055   7.997   2.027  0.1837  0.0120  0.0643
 6480W        W 9999   4.089   9.273  12.051  0.2513 -0.3639  0.0687
 6481W        W10000   4.373   5.527  12.433  0.3990  0.0472  0.0939
 6482W        W10001   5.096   0.050   9.740  0.0208 -0.0522  0.2104
 6483W        W10002   4.690   1.853   9.060  0.3763 -0.0273 -0.0587
 6484W        W10003   8.766   0.006   3.300 -0.1311  0.0200 -0.1246
 6485W        W10004   1.400   2.227   2.181 -0.1884 -0.2480  0.1272
 6486W        W10005   6.265   2.457   1.567  0.0250 -0.2633 -0.2224
 6487W        W10006   3.465   3.716   2.502 -0.2239  0.1390  0.0475
 6488W        W10007   5.967   3.979   4.049  0.2216  0.2329  0.2960
 6489W        W10008   3.213   3.329  10.459 -0.5401 -0.0573 -0.1026
 6490W        W10009   8.035   4.667   8.610  0.2581  0.0175  0.2064
 6491W        W10010   1.382   4.107   2.593 -0.0517  0.1124  0.1235
 6492W        W10011   9.191   8.828   3.588 -0.1888  0.1026  0.4998
 6493W        W10012   9.549   7.665   2.468 -0.0861 -0.1975  0.0424
 6494W        W10013   3.275   9.652  12.397 -0.0072 -0.2697  0.1160
 6495W        W10014   4.718   2.804   9.237  0.0177 -0.0359  0.0664
 6496W        W10015   7.308   1.360  12.304 -0.1172 -0.1484 -0.2815
 6497W        W10016   5.071   4.666   1.357  0.0832 -0.1522 -0.0228
 6498W        W10017   8.855   7.160   8.245 -0.1039 -0.1305  0.3455
 6499W        W10018   8.303   8.304   0.183 -0.2363 -0.1592  0.0596
 6500W        W10019   3.361   9.662   9.017 -0.0166  0.2066  0.0588
 6501W        W10020   6.085   9.038   2.243 -0.1166 -0.0164 -0.2650
 6502W        W10021   5.730   5.768   0.006 -0.0070 -0.0760 -0.2707
 6503W        W10022   4.232   8.482   8.333 -0.1034 -0.0812 -0.1595
 6504W        W10023   6.352   4.455  11.174 -0.2940  0.2300  0.0603
 6505W        W10024   9.362   3.065   1.919 -0.0258 -0.1469  0.2944
 6506W        W10025   6.092   2.221   3.573  0.0561  0.2712 -0.0972
 6507W        W10026   4.959   3.940   2.770 -0.0614  0.0776 -0.0682
 6508W        W10027   7.196   9.629   2.308  0.2143  0.1762  0.0728
 6509W        W10028   7.527   0.891  12.125  0.0995  0.1523  0.0868
 6510W        W10029   0.701   8.447   0.118 -0.3590  0.1246 -0.4233
 6511W        W10030   1.832   0.385   2.094 -0.2281  0.0798  0.0646
 6512W        W10031   3.537   4.586   8.613 -0.2399 -0.0089 -0.0435
 6513W        W10032   7.139   4.576   0.219 -0.1216 -0.1802 -0.1858
 6514W        W10033   2.897   6.162   9.266  0.2254 -0.0245 -0.0013
 6515W        W10034   3.714   5.284   3.409 -0.0380 -0.2382  0.0897
 6516W        W10035   7.463   6.911   9.317 -0.5434 -0.2960  0.2536
 6517W        W10036   3.567   6.733  11.101 -0.4424 -0.1374  0.1423
 6518W        W10037   0.544   6.272  11.926 -0.1384 -0.1508 -0.0013
 6519W        W10038   4.845   0.009  11.315 -0.0494 -0.1762  0.0212
 6520W        W10039   0.507   6.796   2.531 -0.1881  0.0811 -0.0478
 6521W        W10040   5.516   6.822   2.541  0.2786 -0.1040  0.0832
 6522W        W10041   5.950   8.706  12.150 -0.1728 -0.0862  0.0673
 6523W        W10042   3.439   7.943   3.806 -0.1879  0.0472  0.1352
 6524W        W10043   8.271   3.223   1.899 -0.0198  0.0796  0.2169
 6525W        W10044   3.485   6.238   2.334  0.4236  0.3874 -0.0053
 6526W        W10045   9.197   0.622   0.358  0.1866 -0.4429 -0.0862
 6527W        W10046   5.532   9.398   0.711  0.0635  0.1168  0.3369
 6528W        W10047   0.411   4.642   2.338 -0.0953 -0.3649  0.0301
 6529W        W10048   8.731   7.483   9.088  0.1787  0.3539  0.3136
 6530W        W10049   4.856   4.344   2.077  0.0916  0.0720 -0.1049
 6531W        W10050   8.178   2.324   8.943  0.0985  0.2873  0.4315
 6532W        W10051   4.449   0.357   3.568 -0.2075  0.1643 -0.2315
 6533W        W10052   3.206   5.807   2.580  0.0133  0.0397 -0.2338
 6534W        W10053   4.859   2.332   9.158 -0.1181 -0.1121 -0.4728
 6535W        W10054   0.488   4.744   0.462 -0.3218  0.0563 -0.3534
 6536W        W10055   6.275   7.035   2.454  0.2125  0.1364 -0.1319
 6537W        W10056   5.974   4.094  10.090  0.1916  0.3254 -0.0047
 6538W        W10057   5.088   0.555  11.698  0.0842 -0.0473  0.0141
 6539W        W10058   1.794   1.447   2.321 -0.1492 -0.0659 -0.1043
 6540W        W10059   6.547   3.486  11.017  0.2034  0.0097  0.0111
 6541W        W10060   2.119   4.749   0.985 -0.2236 -0.2759 -0.2385
 6542W        W10061   8.507   8.504   1.286 -0.1260  0.0120  0.2956
 6543W        W10062   0.533   4.816  10.117  0.0382 -0.1019  0.1188
 6544W        W10063   4.062   1.223   3.278  0.1446  0.2614  0.0466
 6545W        W10064   9.041   6.824   0.481  0.2917  0.1236  0.2861
 6546W        W10065   8.773   2.453   4.257  0.0115 -0.2445 -0.0828
 6547W        W10066   6.584   6.714  11.918 -0.1096  0.2167  0.3163
 6548W        W10067   9.602   4.755   9.351  0.1173  0.2785 -0.2199
 6549W        W10068   5.963   4.583   8.451  0.2936  0.0513 -0.0660
 6550W        W10069   6.162   5.305   1.501 -0.2777  0.0785 -0.0493
 6551W        W10070   4.543   6.193  12.004 -0.0294 -0.1906 -0.1434
 6552W        W10071   3.850   0.564   8.347  0.3552 -0.2295 -0.0103
 6553W        W10072   5.456   2.725  11.017 -0.0978  0.0693  0.2154
 6554W        W10073   1.743   9.586  11.442  0.2998  0.0982 -0.0283
 6555W        W10074   6.659   5.152   4.099 -0.0399  0.0323 -0.3662
 6556W        W10075   6.674   2.101  12.387 -0.4768 -0.0152 -0.1003
 6557W        W10076   0.157   4.116   0.947 -0.2043 -0.4043  0.1261
 6558W        W10077   2.564   3.922   1.137 -0.2449 -0.1406  0.1316
 6559W        W10078   5.638   3.631   3.942  0.3094 -0.0707  0.0402
 6560W        W10079   9.537   1.510  12.436 -0.0168  0.0179 -0.0253
 6561W        W10080   2.688   3.252   9.603  0.0333  0.2450  0.1313
 6562W        W10081   6.295   8.841   0.739  0.0436 -0.0989 -0.0626
 6563W        W10082   1.004   3.925  10.141 -0.1106 -0.1182 -0.1793
 6564W        W10083   3.435   8.213   2.383  0.1820 -0.2151 -0.3460
 6565W        W10084   9.317   5.427   3.529  0.1052  0.3773  0.2844
 6566W        W10085   1.926   6.910   9.640 -0.0926 -0.0107 -0.2511
 6567W        W10086   3.413   2.944   3.280 -0.0004  0.2165 -0.3520
 6568W        W10087   6.411   0.124   8.239  0.1164  0.1862  0.3138
 6569W        W10088   6.968   4.200   9.823 -0.0465 -0.0136  0.1758
 6570W        W10089   6.929   2.633   9.364  0.0315  0.0117 -0.1244
 6571W        W10090   4.453   5.094   1.590  0.1165 -0.0039  0.1056
 6572W        W10091   8.292   9.155   0.379 -0.0769  0.1612 -0.1076
 6573W        W10092   6.881   0.671   4.004  0.2055 -0.1864 -0.0164
 6574W        W10093   9.526   1.104   0.278 -0.0088  0.0101  0.0071
 6575W        W10094   0.839   9.650   3.077  0.0097 -0.0900  0.1470
 6576W        W10095   7.889   3.770   3.025 -0.0611 -0.2825 -0.0210
 6577W        W10096   0.888   9.234   0.903 -0.1541 -0.0620  0.0553
 6578W        W10097   9.405   0.521  12.437 -0.2533  0.2866  0.0828
 6579W        W10098   2.649   1.136   2.849 -0.0155  0.0913 -0.2498
 6580W        W10099   1.599   5.151   8.374 -0.2912  0.1664  0.2616
 6581W        W10100   4.391   4.195   1.648  0.3096  0.3769 -0.2274
 6582W        W10101   9.700   5.742   2.767  0.2045 -0.4897  0.0102
 6583W        W10102   8.658   6.624  11.362  0.3458 -0.0930  0.3106
 6584W        W10103   3.932   5.040  11.044  0.2592  0.1134 -0.1306
 6585W        W10104   7.613   6.709  10.681  0.0700  0.1125 -0.2341
 6586W        W10105   2.420   4.873   1.408  0.1177  0.3064 -0.0019
 6587W        W10106   8.574   2.880   1.630  0.1811  0.1138  0.1250
 6588W        W10107   2.123   3.494   9.167 -0.0041  0.1051 -0.0865
 6589W        W10108   9.193   5.728  11.440  0.0150  0.2488  0.0017
 6590W        W10109   5.150   9.095   0.439  0.0823 -0.1150  0.2029
 6591W        W10110   4.176   8.510  10.778  0.1237  0.2176  0.2789
 6592W        W10111   3.513   2.099   2.226 -0.1784 -0.1515  0.1523
 6593W        W10112   8.580   5.444  10.719 -0.0715  0.0012 -0.1666
 6594W        W10113   0.913   6.525   2.160 -0.3172 -0.5349  0.0427
 6595W        W10114   2.651   2.213   2.701 -0.0526 -0.2617 -0.0455
 6596W        W10115   5.632   6.720  11.929  0.1789  0.2205  0.1639
 6597W        W10116   2.166   8.668  10.476  0.2415  0.2463 -0.0438
 6598W        W10117   1.415   2.854   2.005  0.0772  0.1231 -0.0617
 6599W        W10118   4.289   1.228  10.134 -0.1902  0.1926  0.2070
 6600W        W10119   6.296   5.799   9.793 -0.1986  0.0520 -0.2090
 6601W        W10120   1.482   8.336   3.989  0.2065  0.0148 -0.3425
 6602W        W10121   0.100   9.571   2.412 -0.1428  0.0898  0.1007
 6603W        W10122   1.565   2.974   1.073 -0.2139  0.0567 -0.1632
 6604W        W10123   1.730   6.744  11.256  0.0677 -0.2800 -0.2346
 6605W        W10124   4.540   7.371  11.534  0.1135 -0.2483  0.0288
 6606W        W10125   7.585   4.252   8.608  0.0564 -0.0023 -0.0838
 6607W        W10126   2.947   2.091   1.529 -0.2269 -0.3551  0.0556
 6608W        W10127   3.045   5.438   9.000 -0.1047 -0.2070  0.1596
 6609W        W10128   5.169   3.638   1.110  0.1636 -0.5274  0.0280
 6610W        W10129   5.336   0.983   2.072  0.2229  0.1564 -0.0736
 6611W        W10130   6.917   5.098  11.150  0.1484 -0.0404 -0.3341
 6612W        W10131   3.139   4.404  10.505 -0.0807 -0.0824  0.0226
 6613W        W10132   4.524   9.115   9.519 -0.1253 -0.0177  0.0340
 6614W        W10133   5.116   9.540  11.677 -0.1287 -0.0395 -0.0084
 6615W        W10134   7.400   0.887   9.019  0.0324 -0.2502  0.1300
 6616W        W10135   4.683   6.308   1.047  0.0873  0.3331  0.0685
 6617W        W10136   5.426   7.252   0.678 -0.1133  0.0941 -0.0109
 6618W        W10137   6.704   9.388  11.453 -0.0962 -0.1377  0.1161
 6619W        W10138   2.590   7.477   1.051 -0.3213  0.2089 -0.0093
 6620W        W10139   2.144   0.765   1.801  0.4944  0.0130  0.2506
 6621W        W10140   9.212   7.072   9.800  0.0264  0.2716  0.0223
 6622W        W10141   2.041   9.461   1.445 -0.1981 -0.2161  0.0187
 6623W        W10142   2.769   3.300   1.971 -0.0640 -0.6218 -0.0144
 6624W        W10143   1.228   7.571  12.060  0.0023  0.2886 -0.1322
 6625W        W10144   4.731   0.607   2.808  0.1132  0.0573 -0.2258
 6626W        W10145   5.339   4.536   0.434  0.2487 -0.1417  0.2042
 6627W        W10146   1.242   4.231   3.791 -0.1506  0.2723 -0.1122
 6628W        W10147   4.637   5.198   9.705  0.1205 -0.1511  0.6638
 6629W        W10148   3.357   1.889  12.057 -0.0316 -0.0564 -0.0137
 6630W        W10149   3.905   8.003   2.474 -0.1588  0.1956  0.2124
 6631W        W10150   4.219   7.034  12.385  0.0800 -0.1448 -0.1035
 6632W        W10151   0.694   4.129   2.432 -0.0364 -0.2447 -0.0205
 6633W        W10152   5.406   0.383   4.261 -0.2448 -0.3332 -0.3804
 6634W        W10153   5.013   0.618   9.560 -0.3306 -0.2376  0.0074
 6635W        W10154   3.372   7.674   2.330  0.1657 -0.0160 -0.0614
 6636W        W10155   2.187   3.883   1.510  0.0420 -0.0141 -0.2362
 6637W        W10156   1.417   7.183   9.058 -0.1768  0.3978 -0.0110
 6638W        W10157   0.245   4.775   2.816  0.0445  0.0725 -0.0906
 6639W        W10158   8.050   2.145   1.105 -0.1680  0.1169  0.0949
 6640W        W10159   2.831   3.356   1.060 -0.1824 -0.1057 -0.0990
 6641W        W10160   1.665   8.385  11.809 -0.2929 -0.2528  0.1622
 6642W        W10161   4.572   7.672   8.428 -0.1811  0.1678 -0.0426
 6643W        W10162   7.662   2.909  10.518 -0.0424 -0.0936  0.0997
 6644W        W10163   6.962   3.090   8.290  0.1845 -0.0320 -0.1213
 6645W        W10164   2.526   7.621   9.853  0.0119 -0.0782 -0.3161
 6646W        W10165   9.315   6.119  11.133  0.0109 -0.1479  0.2613
 6647W        W10166   7.427   5.423   8.360  0.2858 -0.1583  0.1305
 6648W        W10167   0.679   7.280   0.278  0.1210  0.2999  0.0596
 6649W        W10168   4.937   5.288   3.912  0.2701 -0.1329  0.1171
 6650W        W10169   4.824   0.943   3.878  0.1464  0.0160  0.1619
 6651W        W10170   6.108   1.648   8.428 -0.1511 -0.0528  0.1907
 6652W        W10171   7.509   4.653  12.337  0.2235  0.0870 -0.1357
 6653W        W10172   2.345   0.169   2.809 -0.2427 -0.1576 -0.0654
 6654W        W10173   5.351   9.292   3.494  0.1297 -0.0385 -0.0128
 6655W        W10174   2.688   5.208  10.297 -0.1345  0.0205  0.0296
 6656W        W10175   6.165   5.593   0.970  0.2315  0.2676 -0.0119
 6657W        W10176   5.436   5.766   0.464  0.1324  0.1466  0.0913
 6658W        W10177   2.633   8.195   3.819 -0.1760  0.2697  0.2939
 6659W        W10178   4.595   6.270   9.481  0.2362 -0.0622  0.1063
 6660W        W10179   0.056   2.447   2.401 -0.0024  0.1930 -0.0482
 6661W        W10180   5.976   2.408   9.134  0.0298  0.0789  0.1377
 6662W        W10181   4.924   3.780   2.283  0.1704  0.0855 -0.2597
 6663W        W10182   0.764   2.270   2.990 -0.0553 -0.4041 -0.0195
 6664W        W10183   8.128   7.043   8.987 -0.4633 -0.1448  0.0028
 6665W        W10184   9.670   0.696   2.863 -0.0387 -0.1986  0.0573
 6666W        W10185   7.723   4.011   9.356 -0.2061 -0.0573 -0.3833
 6667W        W10186   3.404   9.589  10.771 -0.0156  0.0742 -0.2737
 6668W        W10187   9.084   3.771   3.490  0.0283  0.2930  0.4581
 6669W        W10188   9.662   8.686   3.443  0.0012 -0.1423 -0.1021
 6670W        W10189   8.594   8.378   2.143 -0.0754 -0.2371 -0.0013
 6671W        W10190   3.932   6.130   3.278 -0.0077 -0.0456 -0.0848
 6672W        W10191   7.675   9.036   0.223  0.2857 -0.1774  0.2548
 6673W        W10192   1.790   5.886   0.332 -0.0480  0.0917 -0.3463
 6674W        W10193   4.821   7.939   2.189  0.1273  0.3758 -0.1220
 6675W        W10194   6.932   9.285   1.016  0.1077 -0.2589 -0.0727
 6676W        W10195   5.213   0.703   0.230 -0.3001  0.1127 -0.0943
 6677W        W10196   5.309   7.887   3.366 -0.3975 -0.0374  0.1406
 6678W        W10197   9.618   0.177  11.428  0.4096 -0.0432  0.0336
 6679W        W10198   1.599   2.454   1.314  0.1548 -0.2517  0.2352
 6680W        W10199   0.858   5.731   1.473  0.0201  0.1406  0.1098
 6681W        W10200   1.127   5.746   9.226 -0.1627 -0.5126  0.0347
 6682W        W10201   0.135   8.303   8.762  0.1531 -0.0015 -0.0109
 6683W        W10202   4.988   5.246  10.260  0.1321 -0.1426  0.1777
 6684W        W10203   0.555   5.938  11.540  0.3123 -0.2281 -0.2111
 6685W        W10204   4.031   6.303  11.930 -0.2526 -0.3923 -0.0152
 6686W        W10205   6.692   8.558   0.866 -0.1855  0.1931  0.1322
 6687W        W10206   3.830   1.630   3.158  0.0461 -0.1028  0.0706
 6688W        W10207   5.130   3.763  11.782  0.0844  0.1981  0.1266
 6689W        W10208   6.493   5.990   2.168 -0.1861  0.3110  0.0730
 6690W        W10209   0.760   7.112   9.139  0.1625 -0.0386  0.1014
 6691W        W10210   6.375   4.918  10.683  0.1817 -0.3082 -0.1104
 6692W        W10211   7.325   8.883  10.292  0.1696 -0.3059  0.2118
 6693W        W10212   0.017   9.695   3.636  0.0551  0.1576  0.1618
 6694W        W10213   5.444   0.137   5.236  0.0088 -0.2688 -0.2427
 6695W        W10214   7.533   5.140   9.680  0.0500  0.0999 -0.2665
 6696W        W10215   9.135   5.616   1.770  0.1222 -0.0814 -0.0063
 6697W        W10216   9.369   1.400   8.192 -0.1679 -0.2352 -0.1696
 6698W        W10217   9.653   3.436  10.130 -0.0298  0.0074 -0.3263
 6699W        W10218   5.997   1.618   2.353 -0.1718 -0.1899  0.2824
 6700W        W10219   5.214   7.945   0.160 -0.1472  0.1169 -0.1973
 6701W        W10220   6.319   1.963   9.882  0.1216  0.0193  0.4524
 6702W        W10221   0.220   6.745   4.557 -0.0441 -0.1094  0.2744
 6703W        W10222   4.402   1.658  12.340 -0.1779  0.2068 -0.0735
 6704W        W10223   3.986   8.011   0.735  0.1714 -0.3352  0.3855
 6705ION    NA+10224   7.574   7.707   1.333  0.1834  0.1148 -0.2604
 6706ION    NA+10225   5.313   0.171   9.268 -0.3567 -0.3481  0.0819
 6707ION    NA+10226   8.942   6.945  10.507  0.2704  0.0566  0.0995
 6708ION    NA+10227   4.149   7.182   9.871 -0.1515  0.1185 -0.2571
 6709ION    NA+10228   1.860   3.764  10.518 -0.0674  0.1840 -0.2967
 6710ION    NA+10229   2.690   1.305   3.308  0.1504  0.0944  0.1398
 6711ION    NA+10230   0.023   2.219  10.571  0.1543 -0.1505  0.0099
 6712ION    NA+10231   1.553   7.802   0.206  0.1629 -0.1007 -0.1955
 6713ION    NA+10232   0.498   8.129   0.924  0.1091 -0.1807 -0.1661
 6714ION    NA+10233   1.057   3.950   9.570 -0.1618 -0.0933 -0.1092
 6715ION    NA+10234   7.123   9.321  10.105  0.0237 -0.0110 -0.0703
 6716ION    NA+10235   7.369   2.533   1.698 -0.2779  0.2613 -0.2645
 6717ION    NA+10236   8.632   5.189   0.978  0.2820  0.0201  0.1196
 6718ION    NA+10237   8.573   7.422   1.447  0.1797  0.0743  0.1790
 6719ION    NA+10238   0.299   7.995  12.089  0.1730  0.2545  0.0288
 6720ION    NA+10239   8.806   3.745   8.790  0.0784 -0.2916  0.3243
 6721ION    NA+10240   3.560   0.926   1.064 -0.0580 -0.2832 -0.2373
 6722ION    NA+10241   9.296   5.803   0.903  0.4913 -0.1312 -0.1136
 6723ION    NA+10242   6.659   1.612   8.359  0.1603  0.2517  0.1271
 6724ION    NA+10243   4.715   6.462  11.604 -0.0703  0.0546  0.0864
 6725ION    NA+10244   9.283   1.951  11.217  0.3090  0.0375 -0.1680
 6726ION    NA+10245   5.391   7.956   2.271  0.4309 -0.0529  0.0683
 6727ION    NA+10246   4.011   4.055   4.184  0.1381  0.1082 -0.0791
 6728ION    NA+10247   8.334   3.919   1.699 -0.1800 -0.0615  0.0477
 6729ION    NA+10248   6.655   8.264  10.081 -0.3389 -0.2785  0.4662
 6730ION    NA+10249   6.922   3.027   4.461  0.1137  0.0846 -0.2500
 6731ION    NA+10250   7.840   4.140  10.012 -0.0315  0.0198 -0.0670
 6732ION    NA+10251   0.671   1.843   9.596  0.0698  0.1303  0.1386
 6733ION    NA+10252   0.080   9.423   4.048  0.0354  0.2486  0.1633
 6734ION    NA+10253   1.713   1.306   0.380  0.1407 -0.1783 -0.2615
 6735ION    NA+10254   1.621   5.175  12.094 -0.6075 -0.2833 -0.0370
 6736ION    NA+10255   7.679   3.865   0.379 -0.3562  0.0827 -0.0944
 6737ION    NA+10256   5.389   3.004   7.970  0.0032 -0.0328 -0.0226
 6738ION    NA+10257   6.724   4.080   4.320  0.2391  0.0497 -0.3163
 6739ION    NA+10258   2.477   2.086   2.289  0.1799  0.2266  0.0902
 6740ION    NA+10259   1.021   0.863  10.735  0.3543 -0.3122  0.1411
 6741ION    NA+10260   4.426   4.337   4.431  0.1130  0.4538  0.1295
 6742ION    NA+10261   2.773   7.285  10.727  0.1155  0.2267 -0.0982
 6743ION    NA+10262   7.928   8.119   3.185 -0.0959  0.0923  0.5911
 6744ION    NA+10263   8.482   4.549  11.954  0.3083  0.1536 -0.2863
 6745ION    NA+10264   7.536   8.361   2.266  0.1750  0.2055 -0.0371
 6746ION    NA+10265   8.929   4.065   7.792 -0.3177 -0.1516  0.1689
 6747ION    NA+10266   8.932   8.166   3.075 -0.1928  0.3424 -0.2529
 6748ION    NA+10267   0.222   5.373   9.317 -0.1970 -0.1207  0.0462
 6749ION    NA+10268   1.271   5.350   3.947  0.0170  0.1493  0.2538
 6750ION    NA+10269   2.858   8.774   2.322 -0.1270 -0.2894 -0.0188
 6751ION    NA+10270   6.612   0.641   0.887 -0.1151 -0.1322  0.0460
 6752ION    NA+10271   6.746   5.854   0.903 -0.0704  0.2056 -0.0210
 6753ION    NA+10272   5.655   8.936  11.852 -0.3476 -0.2332 -0.1334
 6754ION    NA+10273   2.755   6.320   4.593 -0.2317  0.2376  0.0793
 6755ION    NA+10274   1.182   9.541   1.768  0.2268 -0.0926  0.1460
 6756ION    NA+10275   2.581   5.733   3.354  0.1270  0.5122 -0.2557
 6757ION    NA+10276   1.194   3.259   2.354  0.3482  0.0267  0.1643
 6758ION    NA+10277   2.947   6.546  10.016  0.1558  0.4384 -0.1843
 6759ION    NA+10278   1.841   7.305   9.982  0.3003  0.1088 -0.1621
 6760ION    NA+10279   4.294   9.270   8.246  0.0117  0.0226  0.1197
 6761ION    NA+10280   2.799   3.366   3.989  0.0153  0.2254  0.0195
 6762ION    NA+10281   0.734   7.381   0.765 -0.0992 -0.4710  0.3995
 6763ION    NA+10282   3.339   7.383   7.963  0.3514  0.2101 -0.1706
 6764ION    NA+10283   7.271   0.396   0.351  0.0100  0.2043  0.2029
 6765ION    NA+10284   9.565   3.557   9.582  0.2141 -0.1855 -0.2111
 6766ION    NA+10285   7.398   5.424   1.521 -0.1012  0.2874  0.1082
 6767ION    NA+10286   3.480   9.665   3.869  0.2637 -0.0579 -0.3715
 6768ION    NA+10287   4.716   5.203   0.174  0.4447  0.1159  0.0469
 6769ION    NA+10288   3.855   7.082   0.644  0.3538  0.0273 -0.1301
 6770ION    NA+10289   5.041   1.894   8.280  0.0850 -0.1636 -0.1179
 6771ION    NA+10290   8.510   2.080   1.228 -0.0916  0.1476 -0.0587
 6772ION    NA+10291   4.795   9.516   0.016  0.0923 -0.3916 -0.0598
 6773ION    NA+10292   0.172   3.960  11.969 -0.0164 -0.1863  0.0058
 6774ION    NA+10293   0.021   6.935   8.444 -0.1630 -0.0085  0.2468
 6775ION    NA+10294   8.249   8.044   2.453  0.0519 -0.0731 -0.1227
 6776ION    CL-10295   1.226   7.332   0.561  0.2981  0.2083  0.2006
 6777ION    CL-10296   8.333   7.964   3.393  0.1230 -0.0101  0.1121
 6778ION    CL-10297   6.504   1.139   1.034 -0.4234 -0.1866 -0.1496
 6779ION    CL-10298   2.375   7.414  11.045  0.0514 -0.2061 -0.0570
 6780ION    CL-10299   1.927   7.287  10.452 -0.1180  0.2376 -0.0568
 6781ION    CL-10300   8.998   7.795   1.635 -0.2188  0.3492  0.0480
 6782ION    CL-10301   6.804   8.895   9.859 -0.4891 -0.1143 -0.0041
 6783ION    CL-10302   9.425   2.395  10.990  0.2202 -0.0295 -0.0487
 6784ION    CL-10303   3.030   8.654   2.773 -0.3396  0.1865  0.0325
 6785ION    CL-10304   7.592   3.394   8.711  0.1285  0.1600  0.0497
 6786ION    CL-10305   4.908   5.596   0.324 -0.1031 -0.1482  0.1560
 6787ION    CL-10306   7.299   8.042   2.518  0.2444 -0.0513 -0.1741
 6788ION    CL-10307   0.036   3.139   9.361  0.0731 -0.1261 -0.0896
 6789ION    CL-10308   7.088   8.377   0.198 -0.0601 -0.1296 -0.1802
 6790ION    CL-10309   8.354   4.482   1.661  0.1311  0.0070 -0.1523
 6791ION    CL-10310   9.621   5.190   8.921  0.1320 -0.3534  0.1237
 6792ION    CL-10311   2.586   4.136   3.128  0.1430 -0.1232 -0.0058
 6793ION    CL-10312   1.704   9.451  10.242  0.1340  0.0134 -0.1759
 6794ION    CL-10313   0.400   7.595   1.055 -0.1160  0.2062  0.1273
 6795ION    CL-10314   7.512   0.382  12.362  0.2623  0.1562  0.0835
 6796ION    CL-10315   1.036   3.085   0.924  0.1121  0.1172  0.0867
 6797ION    CL-10316   7.567   2.074  10.063  0.0882  0.0966 -0.1826
 6798ION    CL-10317   3.770   6.604   3.604 -0.1799  0.0338  0.1936
 6799ION    CL-10318   0.416   7.896  11.569 -0.1305  0.0295 -0.2074
 6800ION    CL-10319   4.700   6.716   3.666  0.3020 -0.2071  0.0063
 6801ION    CL-10320   9.056   0.582   9.356  0.4057  0.2715  0.0041
 6802ION    CL-10321   6.939   0.779   0.478 -0.1689 -0.2884 -0.1476
 6803ION    CL-10322   7.509   6.439   8.785 -0.1637 -0.1325  0.3580
 6804ION    CL-10323   2.246   6.066   3.535  0.1950 -0.1559  0.0056
 6805ION    CL-10324   7.570   8.346   3.458 -0.0664  0.0911  0.0486
 6806ION    CL-10325   6.016   1.699   3.794 -0.0339  0.0462 -0.0222
 6807ION    CL-10326   4.724   2.713   3.444 -0.0846  0.0042  0.0869
 6808ION    CL-10327   3.105   8.728   9.393  0.4074  0.0532  0.0257
 6809ION    CL-10328   0.204   7.219   8.858 -0.0114  0.2398 -0.0967
 6810ION    CL-10329   4.676   8.303   3.721  0.0781  0.1693  0.0228
 6811ION    CL-10330   6.329   0.994  10.831 -0.0672 -0.2625  0.0647
 6812ION    CL-10331   8.989   7.279   0.801  0.0385  0.0861 -0.0658
 6813ION    CL-10332   8.235   0.713   8.820  0.2789  0.1792  0.0924
 6814ION    CL-10333   0.526   8.030   3.269  0.1202 -0.1985 -0.3580
 6815ION    CL-10334   1.260   3.638   2.689  0.1886 -0.0223 -0.2601
 6816ION    CL-10335   8.023   8.464   2.312 -0.1143 -0.0691  0.1189
 6817ION    CL-10336   9.205   4.082   8.667 -0.3367  0.0846  0.0573
 6818ION    CL-10337   4.431   4.106   3.918  0.2203 -0.1178  0.1283
 6819ION    CL-10338   3.094   8.408  11.843  0.2418  0.0801 -0.1832
 6820ION    CL-10339   8.740   8.557   3.552  0.0197  0.2387 -0.2680
 6821ION    CL-10340   7.918   3.454   1.613 -0.0950 -0.1363 -0.2880
 6822ION    CL-10341   0.093   6.255   8.662 -0.0115 -0.2725 -0.0963
 6823ION    CL-10342   1.397   6.016   3.094 -0.3190  0.1364  0.1943
 6824ION    CL-10343   5.927   5.536   9.069 -0.2298  0.1420 -0.1815
 6825ION    CL-10344   8.081   7.551   1.309  0.1139 -0.2505 -0.2729
 6826ION    CL-10345   5.681   9.609   9.337 -0.3115 -0.3646 -0.0732
 6827ION    CL-10346   4.354   6.725  11.855  0.0493 -0.1368 -0.0355
 6828ION    CL-10347   4.091   7.532   0.584 -0.0211 -0.0937  0.0877
 6829ION    CL-10348   0.817   2.504  10.324 -0.0549 -0.2590  0.1969
 6830ION    CL-10349   1.676   5.512   0.002 -0.0410  0.1009 -0.0988
 6831ION    CL-10350   4.546   9.415  10.880 -0.3817  0.0289  0.0614
 6832ION    CL-10351   8.274   4.238   3.540  0.2244  0.0551 -0.2046
 6833ION    CL-10352   5.512   7.492   2.135  0.0390 -0.1737 -0.1722
 6834ION    CL-10353   1.965   4.686  10.459 -0.1937  0.1171  0.3046
 6835ION    CL-10354   3.506   3.256   9.096 -0.0602 -0.1634  0.0205
 6836ION    CL-10355   8.258   1.699   0.971 -0.0322 -0.0389 -0.0423
 6837ION    CL-10356   7.081   5.580   1.193 -0.2712 -0.0473 -0.0497
 6838ION    CL-10357   7.711   4.291   0.741  0.1968  0.1915  0.3194
 6839ION    CL-10358   1.847   4.637   8.783  0.2087  0.0823  0.2179
 6840ION    CL-10359   7.788   8.992  10.565  0.1666 -0.0701  0.0080
 6841ION    CL-10360   1.268   3.484   9.602  0.2674 -0.3204  0.1887
 6842ION    CL-10361   2.434   7.683   9.377  0.1275 -0.0875  0.1468
 6843ION    CL-10362   0.596   8.125   8.686  0.0951 -0.1749 -0.2175
 6844ION    CL-10363   1.987   3.288  10.532  0.2155 -0.3238 -0.1635
 6845ION    CL-10364   2.980   3.516   9.921 -0.2657 -0.2323  0.3367
 6846ION    CL-10365   8.223   8.424   2.748 -0.2849 -0.0207 -0.0883
   9.71678   9.71678  12.48450
