Protein in INSANE! Membrane UpperLeaflet>POPC=1.0 LowerLeaflet>POPC=1.0
10365
    1AU     AUC    1   5.116   5.143   5.873
    1AU     AUC    2   5.282   4.901   5.696
    1AU     AUC    3   5.465   5.120   5.837
    1AU     AUC    4   4.756   5.189   5.872
    1AU     AUC    5   5.030   5.399   6.032
    1AU     AUC    6   4.987   5.380   5.753
    1AU     AUC    7   5.268   5.166   5.650
    1AU     AUC    8   4.914   5.124   6.105
    1AU     AUC    9   5.244   4.921   6.013
    1AU     AUC   10   5.258   5.220   6.125
    1AU     AUC   11   5.299   5.367   5.875
    1AU     AUC   12   4.991   4.877   5.847
    1AU     AUC   13   4.961   5.044   5.650
    1AU     AUC   14   5.461   4.617   5.549
    1AU     AUC   15   5.656   4.896   5.632
    1AU     AUC   16   5.799   5.147   5.791
    1AU     AUC   17   4.333   5.210   5.986
    1AU     AUC   18   4.607   5.440   6.026
    1AU     AUC   19   4.910   5.703   6.166
    1AU     AUC   20   4.855   5.623   5.709
    1AU     AUC   21   5.033   5.437   5.440
    1AU     AUC   22   5.341   5.248   5.304
    1AU     AUC   23   4.713   5.106   6.267
    1AU     AUC   24   5.028   4.798   6.234
    1AU     AUC   25   5.324   4.677   6.102
    1AU     AUC   26   5.391   5.296   6.366
    1AU     AUC   27   5.492   5.497   6.109
    1AU     AUC   28   5.496   5.674   5.842
    1AU     AUC   29   4.813   4.524   5.913
    1AU     AUC   30   4.798   4.719   5.709
    1AU     AUC   31   4.700   4.913   5.543
    1AU     AUC   32   5.669   5.229   6.110
    1AU     AUC   33   5.654   5.403   5.739
    1AU     AUC   34   5.171   4.601   5.711
    1AU     AUC   35   5.109   4.716   5.470
    1AU     AUC   36   5.132   5.514   6.274
    1AU     AUC   37   5.258   5.691   6.105
    1AU     AUC   38   4.507   4.908   5.958
    1AU     AUC   39   4.611   5.064   5.793
    1AU     AUC   40   5.421   4.935   5.406
    1AU     AUC   41   5.612   5.215   5.485
    1AU     AUC   42   4.636   5.444   5.799
    1AU     AUC   43   4.917   5.713   5.952
    1AU     AUC   44   5.446   4.630   5.858
    1AU     AUC   45   5.615   4.920   6.016
    1AU     AUC   46   4.280   5.250   5.875
    1AU     AUC   47   4.724   5.435   6.223
    1AU     AUC   48   5.174   5.708   5.759
    1AU     AUC   49   5.392   5.471   5.539
    1AU     AUC   50   5.003   5.158   6.380
    1AU     AUC   51   5.367   5.015   6.301
    1AU     AUC   52   4.791   5.284   5.472
    1AU     AUC   53   5.026   5.065   5.368
    1AU     AUC   54   4.690   4.783   6.076
    1AU     AUC   55   5.128   4.550   5.916
    1AU    AUSL   56   6.046   5.359   5.933
    1AU    AUSL   57   5.713   5.208   6.555
    1AU     AUL   58   6.081   5.410   6.408
    1AU       S   59   5.917   5.154   6.768
    1AU     LIG   60   5.829   5.319   7.383
    1AU     LIG   61   5.767   4.946   7.712
    1AU     LIG   62   5.373   4.843   8.006
    1AU       S   63   6.457   5.065   5.442
    1AU     LIG   64   6.640   5.003   5.988
    1AU     LIG   65   6.533   5.445   6.260
    1AU     LIG   66   6.425   5.832   6.039
    1AU    AUSL   67   5.690   5.377   6.178
    1AU    AUSL   68   5.639   5.785   6.239
    1AU     AUL   69   5.953   5.770   6.185
    1AU       S   70   6.267   5.338   5.406
    1AU     LIG   71   6.088   5.009   4.840
    1AU     LIG   72   5.782   4.950   4.420
    1AU     LIG   73   5.301   4.864   4.297
    1AU       S   74   4.822   5.563   6.864
    1AU     LIG   75   4.347   5.366   6.971
    1AU     LIG   76   4.124   5.322   7.408
    1AU     LIG   77   3.915   5.535   7.794
    1AU    AUSL   78   5.727   5.617   5.826
    1AU    AUSL   79   5.819   5.343   5.503
    1AU     AUL   80   6.062   5.637   5.692
    1AU       S   81   5.924   4.688   5.165
    1AU     LIG   82   5.685   4.231   5.117
    1AU     LIG   83   5.394   4.131   4.797
    1AU     LIG   84   5.119   4.449   4.607
    1AU       S   85   5.585   5.234   4.757
    1AU     LIG   86   5.290   5.466   4.398
    1AU     LIG   87   5.075   5.785   4.586
    1AU     LIG   88   5.127   6.195   4.744
    1AU    AUSL   89   5.315   4.442   5.481
    1AU    AUSL   90   5.015   4.691   5.283
    1AU     AUL   91   5.119   4.353   5.146
    1AU       S   92   5.482   4.071   6.232
    1AU     LIG   93   6.142   4.420   6.551
    1AU     LIG   94   6.508   4.841   6.831
    1AU     LIG   95   6.618   5.181   7.173
    1AU       S   96   5.645   4.461   6.348
    1AU     LIG   97   4.531   4.953   6.819
    1AU     LIG   98   3.961   5.583   7.039
    1AU     LIG   99   3.943   6.103   6.916
    1AU    AUSL  100   4.775   4.375   5.954
    1AU    AUSL  101   5.471   4.217   5.798
    1AU     AUL  102   5.366   4.150   5.559
    1AU       S  103   5.103   3.752   6.243
    1AU     LIG  104   5.447   3.990   6.750
    1AU     LIG  105   5.781   4.354   6.892
    1AU     LIG  106   5.906   4.574   7.370
    1AU       S  107   5.390   4.089   6.291
    1AU     LIG  108   5.733   3.867   5.622
    1AU     LIG  109   5.631   3.427   5.535
    1AU     LIG  110   5.263   3.169   5.671
    1AU    AUSL  111   4.705   4.695   5.558
    1AU    AUSL  112   4.488   4.424   6.254
    1AU     AUL  113   4.551   4.229   6.071
    1AU       S  114   4.276   4.437   6.583
    1AU     LIG  115   3.747   4.643   6.829
    1AU     LIG  116   3.370   4.829   7.035
    1AU     LIG  117   3.160   5.217   7.216
    1AU       S  118   5.315   4.426   6.642
    1AU     LIG  119   5.211   5.666   7.006
    1AU     LIG  120   5.232   6.100   7.036
    1AU     LIG  121   5.170   6.433   6.736
    1AU    AUSL  122   5.228   5.847   6.221
    1AU    AUSL  123   5.500   6.014   5.919
    1AU     AUL  124   5.628   6.121   6.203
    1AU       S  125   4.781   5.504   6.901
    1AU     LIG  126   4.100   4.963   6.973
    1AU     LIG  127   4.045   4.321   7.034
    1AU     LIG  128   4.212   3.913   6.941
    1AU       S  129   5.764   5.727   6.664
    1AU     LIG  130   5.580   5.060   7.085
    1AU     LIG  131   5.466   4.565   7.185
    1AU     LIG  132   5.492   4.087   7.261
    1AU    AUSL  133   5.403   5.552   6.498
    1AU    AUSL  134   4.821   5.993   6.242
    1AU     AUL  135   5.206   6.113   6.339
    1AU       S  136   4.416   6.137   6.580
    1AU     LIG  137   4.167   6.430   6.274
    1AU     LIG  138   4.021   6.488   5.785
    1AU     LIG  139   3.914   6.152   5.446
    1AU       S  140   4.792   5.276   6.974
    1AU     LIG  141   4.689   4.291   6.769
    1AU     LIG  142   4.668   3.761   6.698
    1AU     LIG  143   4.651   3.329   6.416
    1AU    AUSL  144   4.143   4.875   6.090
    1AU    AUSL  145   4.458   4.672   5.940
    1AU     AUL  146   4.128   4.531   6.158
    1AU       S  147   4.168   4.574   6.631
    1AU     LIG  148   4.578   4.539   7.136
    1AU     LIG  149   5.009   4.525   7.424
    1AU     LIG  150   5.443   4.449   7.669
    1AU       S  151   3.843   4.812   6.388
    1AU     LIG  152   4.477   4.982   7.259
    1AU     LIG  153   5.307   4.906   7.507
    1AU     LIG  154   5.435   5.306   7.770
    1AU    AUSL  155   4.421   4.833   6.366
    1AU    AUSL  156   4.312   5.233   6.270
    1AU     AUL  157   4.208   5.037   6.485
    1AU       S  158   3.990   5.988   5.892
    1AU     LIG  159   3.736   5.754   6.626
    1AU     LIG  160   3.464   5.666   7.004
    1AU     LIG  161   3.586   5.445   7.407
    1AU       S  162   4.302   4.584   6.727
    1AU     LIG  163   4.157   4.643   7.360
    1AU     LIG  164   4.224   4.967   7.727
    1AU     LIG  165   4.416   5.405   7.831
    1AU    AUSL  166   5.685   5.047   5.158
    1AU    AUSL  167   5.466   4.661   5.166
    1AU     AUL  168   5.600   4.752   4.853
    1AU       S  169   6.068   4.600   5.721
    1AU     LIG  170   6.488   5.378   5.787
    1AU     LIG  171   6.790   5.431   5.429
    1AU     LIG  172   6.984   5.057   5.213
    1AU       S  173   6.360   4.706   5.137
    1AU     LIG  174   6.587   4.995   4.893
    1AU     LIG  175   6.382   5.408   4.808
    1AU     LIG  176   5.960   5.503   4.650
    1AU    AUSL  177   5.680   4.788   5.515
    1AU    AUSL  178   5.901   4.960   5.828
    1AU     AUL  179   6.221   4.974   5.808
    1AU       S  180   6.312   4.532   5.340
    1AU     LIG  181   6.184   4.188   4.947
    1AU     LIG  182   5.884   4.274   4.654
    1AU     LIG  183   5.580   4.453   4.409
    1AU       S  184   6.223   4.228   5.890
    1AU     LIG  185   6.602   4.123   5.617
    1AU     LIG  186   6.708   4.172   5.171
    1AU     LIG  187   6.604   4.400   4.764
    1AU    AUSL  188   6.025   4.993   5.422
    1AU    AUSL  189   5.551   5.450   5.136
    1AU     AUL  190   5.903   5.318   5.142
    1AU       S  191   5.277   5.118   4.710
    1AU     LIG  192   4.369   5.025   4.870
    1AU     LIG  193   3.633   5.182   5.118
    1AU     LIG  194   3.177   4.978   5.348
    1AU       S  195   6.196   4.332   5.394
    1AU     LIG  196   5.930   3.900   6.069
    1AU     LIG  197   5.578   3.631   6.443
    1AU     LIG  198   5.144   3.619   6.728
    1AU    AUSL  199   4.625   5.746   6.494
    1AU    AUSL  200   5.039   5.801   6.574
    1AU     AUL  201   4.845   6.028   6.723
    1AU       S  202   5.569   5.479   6.907
    1AU     LIG  203   4.889   5.050   7.462
    1AU     LIG  204   4.618   4.676   7.664
    1AU     LIG  205   4.503   4.234   7.548
    1AU       S  206   4.049   5.943   6.347
    1AU     LIG  207   3.807   5.313   6.501
    1AU     LIG  208   3.674   5.203   6.931
    1AU     LIG  209   3.761   4.966   7.355
    1AU    AUSL  210   4.048   5.510   6.129
    1AU    AUSL  211   4.572   5.576   5.640
    1AU     AUL  212   4.240   5.491   6.344
    1AU       S  213   3.849   5.678   6.179
    1AU     LIG  214   3.507   5.218   5.647
    1AU     LIG  215   3.608   4.760   5.331
    1AU     LIG  216   3.424   4.591   4.961
    1AU       S  217   4.410   6.058   5.453
    1AU     LIG  218   4.124   5.887   5.058
    1AU     LIG  219   3.746   5.788   4.914
    1AU     LIG  220   3.385   6.001   4.775
    1AU    AUSL  221   4.644   5.961   5.835
    1AU    AUSL  222   4.208   5.401   5.727
    1AU     AUL  223   4.166   5.731   5.599
    1AU       S  224   4.026   5.279   5.416
    1AU     LIG  225   4.099   5.419   4.876
    1AU     LIG  226   4.254   5.237   4.436
    1AU     LIG  227   4.494   5.032   4.059
    1AU       S  228   4.397   6.194   5.920
    1AU     LIG  229   4.870   6.233   5.489
    1AU     LIG  230   5.208   6.335   5.219
    1AU     LIG  231   5.630   6.484   5.389
    1AU    AUSL  232   5.686   4.616   5.951
    1AU    AUSL  233   5.961   5.026   6.228
    1AU     AUL  234   6.016   4.738   6.138
    1AU       S  235   6.162   4.314   6.082
    1AU     LIG  236   6.699   4.569   5.802
    1AU     LIG  237   7.098   4.977   5.973
    1AU     LIG  238   7.010   5.479   6.451
    1AU       S  239   6.100   4.948   6.537
    1AU     LIG  240   6.431   4.797   6.364
    1AU     LIG  241   6.784   5.064   6.435
    1AU     LIG  242   6.937   5.432   5.977
    1AU    AUSL  243   5.759   4.392   5.554
    1AU    AUSL  244   5.306   4.462   6.079
    1AU     AUL  245   5.727   4.283   5.894
    1AU       S  246   6.329   4.367   6.015
    1AU     LIG  247   6.876   4.614   6.262
    1AU     LIG  248   7.287   5.079   6.390
    1AU     LIG  249   7.378   5.584   6.162
    1AU       S  250   4.900   3.888   6.287
    1AU     LIG  251   4.323   3.995   6.465
    1AU     LIG  252   3.852   4.178   6.556
    1AU     LIG  253   3.386   4.409   6.572
    1AU    AUSL  254   4.334   5.726   5.978
    1AU    AUSL  255   3.927   5.163   5.912
    1AU     AUL  256   3.826   5.527   5.766
    1AU       S  257   3.739   5.045   6.034
    1AU     LIG  258   3.431   5.341   6.120
    1AU     LIG  259   3.071   5.118   5.879
    1AU     LIG  260   2.716   4.950   5.592
    1AU       S  261   3.960   5.454   5.335
    1AU     LIG  262   3.577   5.753   5.389
    1AU     LIG  263   3.453   6.211   5.273
    1AU     LIG  264   3.743   6.609   5.308
    1AU    AUSL  265   4.630   5.519   6.180
    1AU    AUSL  266   4.624   5.315   6.540
    1AU     AUL  267   4.419   5.830   6.162
    1AU       S  268   4.246   5.777   6.721
    1AU     LIG  269   3.651   6.160   6.428
    1AU     LIG  270   3.272   5.772   6.449
    1AU     LIG  271   3.036   5.451   6.747
    1AU       S  272   3.954   5.178   5.462
    1AU     LIG  273   3.495   4.699   5.776
    1AU     LIG  274   3.655   4.115   5.787
    1AU     LIG  275   3.804   3.695   6.027
    1AU    AUSL  276   5.333   5.726   5.668
    1AU    AUSL  277   5.064   6.013   5.854
    1AU     AUL  278   5.350   6.124   5.630
    1AU       S  279   5.520   5.948   6.652
    1AU     LIG  280   6.029   5.570   7.008
    1AU     LIG  281   6.142   5.006   7.162
    1AU     LIG  282   6.260   4.496   7.049
    1AU       S  283   5.004   4.349   6.336
    1AU     LIG  284   5.482   3.704   5.976
    1AU     LIG  285   6.112   3.617   5.748
    1AU     LIG  286   6.430   3.702   5.403
    1AU    AUSL  287   4.941   5.758   5.509
    1AU    AUSL  288   5.052   5.350   5.021
    1AU     AUL  289   5.008   5.798   5.090
    1AU       S  290   4.954   4.363   6.338
    1AU     LIG  291   4.490   3.704   6.142
    1AU     LIG  292   4.326   3.519   5.540
    1AU     LIG  293   4.373   3.739   5.034
    1AU       S  294   4.888   5.384   4.805
    1AU     LIG  295   4.713   4.938   4.494
    1AU     LIG  296   4.235   4.651   4.584
    1AU     LIG  297   3.918   4.403   4.889
    1AU    AUSL  298   5.216   5.464   5.376
    1AU    AUSL  299   5.672   5.738   5.424
    1AU     AUL  300   5.424   5.811   5.253
    1AU       S  301   5.383   5.162   4.825
    1AU     LIG  302   4.484   4.700   5.169
    1AU     LIG  303   3.995   4.426   5.391
    1AU     LIG  304   3.443   4.308   5.396
    1AU       S  305   4.926   4.347   6.342
    1AU     LIG  306   4.130   4.086   6.025
    1AU     LIG  307   3.663   4.416   6.155
    1AU     LIG  308   3.351   4.813   6.240
    1AU    AUSL  309   5.318   5.083   6.633
    1AU    AUSL  310   5.578   4.864   6.316
    1AU     AUL  311   5.575   4.830   6.678
    1AU       S  312   5.114   4.934   7.065
    1AU     LIG  313   4.664   5.441   7.381
    1AU     LIG  314   4.354   5.770   7.408
    1AU     LIG  315   4.353   6.199   7.219
    1AU       S  316   6.024   4.874   6.683
    1AU     LIG  317   6.390   5.323   6.750
    1AU     LIG  318   6.299   5.834   6.564
    1AU     LIG  319   6.146   6.230   6.262
    1AU    AUSL  320   4.894   4.983   6.586
    1AU    AUSL  321   5.035   5.383   6.509
    1AU     AUL  322   5.155   5.263   6.769
    1AU       S  323   4.977   4.854   7.012
    1AU     LIG  324   5.212   5.334   7.313
    1AU     LIG  325   5.389   5.707   7.459
    1AU     LIG  326   5.677   5.896   7.179
    1AU       S  327   4.444   5.837   6.884
    1AU     LIG  328   4.795   5.913   7.218
    1AU     LIG  329   4.905   5.783   7.648
    1AU     LIG  330   4.935   5.373   7.858
    1AU    AUSL  331   5.190   4.739   6.410
    1AU    AUSL  332   4.791   4.746   6.245
    1AU     AUL  333   4.815   4.691   6.611
    1AU       S  334   4.610   3.916   5.778
    1AU     LIG  335   4.877   3.449   5.916
    1AU     LIG  336   5.301   3.270   6.182
    1AU     LIG  337   5.778   3.181   6.379
    1AU       S  338   5.146   4.754   6.915
    1AU     LIG  339   5.088   4.269   7.026
    1AU     LIG  340   4.856   3.949   7.222
    1AU     LIG  341   4.769   3.502   7.120
    1AU    AUSL  342   4.773   5.054   5.183
    1AU    AUSL  343   5.265   5.036   5.238
    1AU     AUL  344   4.989   4.898   4.960
    1AU       S  345   4.689   5.300   4.778
    1AU     LIG  346   4.680   4.567   4.785
    1AU     LIG  347   4.352   4.233   5.115
    1AU     LIG  348   4.045   3.932   5.454
    1AU       S  349   5.746   4.438   6.317
    1AU     LIG  350   5.905   4.001   6.549
    1AU     LIG  351   5.830   3.665   6.880
    1AU     LIG  352   5.539   3.297   6.857
    1AU    AUSL  353   4.727   5.491   5.261
    1AU    AUSL  354   4.503   5.161   5.483
    1AU     AUL  355   4.432   5.378   5.237
    1AU       S  356   4.627   5.632   4.893
    1AU     LIG  357   4.680   6.194   5.036
    1AU     LIG  358   4.517   6.526   5.536
    1AU     LIG  359   4.806   6.462   5.951
    1AU       S  360   4.483   5.892   5.349
    1AU     LIG  361   4.231   6.388   5.146
    1AU     LIG  362   4.200   6.838   5.342
    1AU     LIG  363   4.579   7.024   5.633
    1AU    AUSL  364   4.528   4.338   5.643
    1AU    AUSL  365   4.225   4.897   5.674
    1AU     AUL  366   4.349   4.533   5.778
    1AU       S  367   3.938   4.762   5.714
    1AU     LIG  368   3.984   4.868   5.076
    1AU     LIG  369   3.682   5.263   4.667
    1AU     LIG  370   3.310   5.529   4.968
    1AU       S  371   4.497   4.076   5.584
    1AU     LIG  372   4.784   4.017   5.195
    1AU     LIG  373   4.878   3.731   4.893
    1AU     LIG  374   4.634   3.326   4.906
    1AU    AUSL  375   4.947   4.297   5.592
    1AU    AUSL  376   5.092   4.122   5.947
    1AU     AUL  377   4.973   4.132   5.681
    1AU       S  378   4.684   3.812   5.606
    1AU     LIG  379   4.877   3.458   5.331
    1AU     LIG  380   5.303   3.221   5.166
    1AU     LIG  381   5.519   2.767   5.088
    1AU       S  382   5.017   3.892   6.062
    1AU     LIG  383   5.186   3.703   5.607
    1AU     LIG  384   5.398   3.781   5.203
    1AU     LIG  385   5.778   3.789   4.901
    2POPC   NC3  386   3.505   1.397   8.114
    2POPC   PO4  387   3.083   0.801   8.219
    2POPC   GL1  388   3.284   0.814   7.790
    2POPC   GL2  389   3.528   1.069   7.691
    2POPC   C1A  390   3.136   0.866   7.346
    2POPC   D2A  391   3.092   0.973   6.885
    2POPC   C3A  392   3.345   0.983   6.467
    2POPC   C4A  393   3.294   0.947   5.977
    2POPC   C1B  394   3.468   1.248   7.259
    2POPC   C2B  395   3.457   1.373   6.813
    2POPC   C3B  396   3.733   1.323   6.462
    2POPC   C4B  397   3.740   1.179   6.039
    3POPC   NC3  398   7.268   0.304   8.137
    3POPC   PO4  399   7.856   9.940   8.024
    3POPC   GL1  400   7.585   0.205   7.736
    3POPC   GL2  401   7.378   0.538   7.697
    3POPC   C1A  402   7.414   0.175   7.327
    3POPC   D2A  403   7.516   0.441   6.958
    3POPC   C3A  404   7.360   0.376   6.554
    3POPC   C4A  405   7.398   0.106   6.180
    3POPC   C1B  406   7.180   0.640   7.311
    3POPC   C2B  407   7.227   0.838   6.930
    3POPC   C3B  408   7.103   0.847   6.493
    3POPC   C4B  409   7.251   0.747   6.078
    4POPC   NC3  410   1.088   1.433   8.147
    4POPC   PO4  411   0.711   0.813   8.091
    4POPC   GL1  412   0.849   1.125   7.789
    4POPC   GL2  413   1.185   1.033   7.834
    4POPC   C1A  414   1.115   1.294   7.402
    4POPC   D2A  415   1.361   1.393   6.999
    4POPC   C3A  416   1.195   1.312   6.571
    4POPC   C4A  417   0.999   1.440   6.159
    4POPC   C1B  418   1.314   0.821   7.481
    4POPC   C2B  419   1.259   0.878   7.062
    4POPC   C3B  420   1.455   0.777   6.681
    4POPC   C4B  421   1.374   0.935   6.293
    5POPC   NC3  422   0.679   5.127   8.064
    5POPC   PO4  423   0.103   4.640   7.940
    5POPC   GL1  424   0.483   4.768   7.628
    5POPC   GL2  425   0.664   5.091   7.575
    5POPC   C1A  426   0.622   4.858   7.151
    5POPC   D2A  427   0.479   5.027   6.740
    5POPC   C3A  428   0.747   4.954   6.383
    5POPC   C4A  429   0.787   4.882   5.961
    5POPC   C1B  430   0.363   5.293   7.302
    5POPC   C2B  431   0.096   5.369   6.963
    5POPC   C3B  432   0.071   5.346   6.535
    5POPC   C4B  433   0.259   5.078   6.230
    6POPC   NC3  434   6.277   7.559   8.609
    6POPC   PO4  435   5.733   7.742   8.201
    6POPC   GL1  436   5.633   8.032   7.759
    6POPC   GL2  437   5.617   8.408   7.808
    6POPC   C1A  438   5.723   8.050   7.265
    6POPC   D2A  439   5.541   7.991   6.823
    6POPC   C3A  440   5.836   7.875   6.486
    6POPC   C4A  441   6.262   7.724   6.423
    6POPC   C1B  442   5.425   8.471   7.393
    6POPC   C2B  443   5.622   8.453   6.967
    6POPC   C3B  444   5.677   8.356   6.484
    6POPC   C4B  445   5.650   8.404   6.006
    7POPC   NC3  446   0.332   8.154   8.241
    7POPC   PO4  447   0.866   7.716   8.178
    7POPC   GL1  448   0.492   7.878   7.848
    7POPC   GL2  449   0.392   8.270   7.751
    7POPC   C1A  450   0.233   7.899   7.446
    7POPC   D2A  451   0.395   7.862   7.014
    7POPC   C3A  452   0.136   7.939   6.626
    7POPC   C4A  453   0.161   7.747   6.203
    7POPC   C1B  454   0.519   8.303   7.291
    7POPC   C2B  455   0.447   8.327   6.821
    7POPC   C3B  456   0.566   8.161   6.419
    7POPC   C4B  457   0.859   8.266   6.075
    8POPC   NC3  458   8.611   6.426   8.134
    8POPC   PO4  459   9.256   6.306   8.349
    8POPC   GL1  460   9.107   6.450   7.920
    8POPC   GL2  461   8.940   6.762   7.809
    8POPC   C1A  462   8.922   6.370   7.486
    8POPC   D2A  463   8.658   6.529   7.138
    8POPC   C3A  464   8.871   6.529   6.744
    8POPC   C4A  465   9.031   6.400   6.333
    8POPC   C1B  466   8.960   6.911   7.322
    8POPC   C2B  467   9.129   6.977   6.857
    8POPC   C3B  468   8.912   6.937   6.435
    8POPC   C4B  469   8.671   6.732   6.109
    9POPC   NC3  470   2.625   6.298   8.053
    9POPC   PO4  471   2.687   6.916   8.173
    9POPC   GL1  472   2.558   6.724   7.725
    9POPC   GL2  473   2.847   6.499   7.640
    9POPC   C1A  474   2.524   6.664   7.234
    9POPC   D2A  475   2.508   6.464   6.805
    9POPC   C3A  476   2.427   6.753   6.497
    9POPC   C4A  477   2.637   6.873   6.138
    9POPC   C1B  478   3.032   6.627   7.244
    9POPC   C2B  479   2.960   6.687   6.804
    9POPC   C3B  480   2.870   6.487   6.405
    9POPC   C4B  481   3.026   6.109   6.171
   10POPC   NC3  482   7.536   9.596   7.997
   10POPC   PO4  483   6.957   9.882   8.156
   10POPC   GL1  484   7.160   9.854   7.726
   10POPC   GL2  485   7.197   9.484   7.639
   10POPC   C1A  486   7.043   9.804   7.273
   10POPC   D2A  487   7.146   0.052   6.905
   10POPC   C3A  488   7.065   9.922   6.509
   10POPC   C4A  489   6.810   9.966   6.124
   10POPC   C1B  490   7.502   9.603   7.302
   10POPC   C2B  491   7.377   9.590   6.861
   10POPC   C3B  492   7.442   9.558   6.416
   10POPC   C4B  493   7.663   9.677   6.005
   11POPC   NC3  494   8.078   4.843   8.057
   11POPC   PO4  495   8.024   4.178   8.348
   11POPC   GL1  496   8.185   4.334   7.910
   11POPC   GL2  497   8.482   4.440   7.800
   11POPC   C1A  498   8.234   4.162   7.454
   11POPC   D2A  499   8.312   3.953   7.021
   11POPC   C3A  500   8.233   4.020   6.548
   11POPC   C4A  501   7.939   4.098   6.204
   11POPC   C1B  502   8.608   4.521   7.364
   11POPC   C2B  503   8.730   4.340   6.966
   11POPC   C3B  504   8.579   4.425   6.572
   11POPC   C4B  505   8.370   4.363   6.185
   12POPC   NC3  506   3.329   2.048   8.204
   12POPC   PO4  507   3.780   2.551   8.123
   12POPC   GL1  508   3.576   2.239   7.807
   12POPC   GL2  509   3.512   1.861   7.747
   12POPC   C1A  510   3.528   2.213   7.357
   12POPC   D2A  511   3.355   2.431   6.983
   12POPC   C3A  512   3.428   2.262   6.563
   12POPC   C4A  513   3.254   2.134   6.140
   12POPC   C1B  514   3.743   1.689   7.350
   12POPC   C2B  515   3.927   1.642   6.898
   12POPC   C3B  516   3.683   1.812   6.547
   12POPC   C4B  517   3.232   1.787   6.512
   13POPC   NC3  518   9.252   5.950   8.064
   13POPC   PO4  519   9.504   5.358   8.147
   13POPC   GL1  520   9.270   5.504   7.809
   13POPC   GL2  521   9.521   5.716   7.668
   13POPC   C1A  522   8.974   5.524   7.455
   13POPC   D2A  523   9.017   5.328   7.043
   13POPC   C3A  524   9.066   5.636   6.741
   13POPC   C4A  525   9.176   5.880   6.368
   13POPC   C1B  526   9.299   5.865   7.274
   13POPC   C2B  527   8.860   5.962   7.111
   13POPC   C3B  528   8.739   6.028   6.672
   13POPC   C4B  529   8.557   6.207   6.315
   14POPC   NC3  530   2.003   4.413   8.343
   14POPC   PO4  531   1.441   4.236   8.027
   14POPC   GL1  532   1.737   4.344   7.731
   14POPC   GL2  533   1.967   4.596   7.844
   14POPC   C1A  534   1.704   4.386   7.277
   14POPC   D2A  535   1.658   4.163   6.863
   14POPC   C3A  536   1.733   4.437   6.505
   14POPC   C4A  537   1.769   4.224   6.108
   14POPC   C1B  538   2.182   4.346   7.500
   14POPC   C2B  539   2.134   4.157   7.069
   14POPC   C3B  540   2.099   4.075   6.597
   14POPC   C4B  541   2.218   4.401   6.278
   15POPC   NC3  542   4.348   9.059   8.122
   15POPC   PO4  543   3.881   8.563   8.240
   15POPC   GL1  544   3.908   8.778   7.777
   15POPC   GL2  545   4.007   9.129   7.698
   15POPC   C1A  546   3.743   8.893   7.319
   15POPC   D2A  547   3.946   8.837   6.893
   15POPC   C3A  548   4.097   9.014   6.483
   15POPC   C4A  549   4.181   9.241   6.035
   15POPC   C1B  550   4.235   8.853   7.345
   15POPC   C2B  551   4.526   8.688   7.050
   15POPC   C3B  552   4.551   8.860   6.643
   15POPC   C4B  553   4.475   8.795   6.206
   16POPC   NC3  554   0.334   1.159   7.948
   16POPC   PO4  555   0.673   1.671   8.074
   16POPC   GL1  556   0.441   1.625   7.677
   16POPC   GL2  557   0.153   1.407   7.561
   16POPC   C1A  558   0.615   1.412   7.289
   16POPC   D2A  559   0.871   1.218   6.953
   16POPC   C3A  560   0.688   1.243   6.523
   16POPC   C4A  561   0.386   1.511   6.342
   16POPC   C1B  562   0.254   1.022   7.312
   16POPC   C2B  563   0.366   1.109   6.901
   16POPC   C3B  564   0.205   1.043   6.492
   16POPC   C4B  565   0.165   0.953   6.049
   17POPC   NC3  566   7.971   5.790   8.126
   17POPC   PO4  567   8.651   5.900   8.056
   17POPC   GL1  568   8.343   5.803   7.770
   17POPC   GL2  569   8.208   6.166   7.839
   17POPC   C1A  570   8.452   5.611   7.354
   17POPC   D2A  571   8.563   5.565   6.903
   17POPC   C3A  572   8.263   5.384   6.598
   17POPC   C4A  573   8.223   5.531   6.158
   17POPC   C1B  574   8.430   6.150   7.406
   17POPC   C2B  575   8.329   6.171   6.933
   17POPC   C3B  576   8.211   5.911   6.533
   17POPC   C4B  577   7.990   5.997   6.106
   18POPC   NC3  578   5.758   0.415   8.329
   18POPC   PO4  579   6.227   9.906   8.330
   18POPC   GL1  580   6.080   0.316   7.944
   18POPC   GL2  581   5.812   0.592   7.859
   18POPC   C1A  582   5.898   0.293   7.464
   18POPC   D2A  583   6.035   0.065   7.087
   18POPC   C3A  584   6.091   0.194   6.666
   18POPC   C4A  585   5.925   0.044   6.293
   18POPC   C1B  586   5.609   0.699   7.438
   18POPC   C2B  587   5.816   0.695   7.024
   18POPC   C3B  588   5.713   0.528   6.603
   18POPC   C4B  589   5.918   0.556   6.208
   19POPC   NC3  590   9.571   6.587   8.141
   19POPC   PO4  591   0.238   6.251   8.172
   19POPC   GL1  592   9.988   6.502   7.805
   19POPC   GL2  593   9.807   6.790   7.750
   19POPC   C1A  594   9.820   6.534   7.307
   19POPC   D2A  595   9.882   6.420   6.843
   19POPC   C3A  596   9.887   6.598   6.401
   19POPC   C4A  597   9.963   6.382   5.936
   19POPC   C1B  598   9.405   6.757   7.511
   19POPC   C2B  599   9.284   6.544   7.102
   19POPC   C3B  600   9.412   6.606   6.640
   19POPC   C4B  601   9.392   6.908   6.274
   20POPC   NC3  602   9.618   0.911   8.508
   20POPC   PO4  603   9.957   1.403   8.085
   20POPC   GL1  604   9.669   1.326   7.736
   20POPC   GL2  605   9.326   1.277   7.855
   20POPC   C1A  606   9.745   1.195   7.308
   20POPC   D2A  607   9.870   0.941   6.951
   20POPC   C3A  608   9.704   1.052   6.540
   20POPC   C4A  609   9.698   0.793   6.165
   20POPC   C1B  610   9.241   1.146   7.421
   20POPC   C2B  611   9.353   1.120   6.955
   20POPC   C3B  612   9.391   1.455   6.617
   20POPC   C4B  613   9.422   1.575   6.169
   21POPC   NC3  614   1.951   8.078   8.070
   21POPC   PO4  615   2.391   7.550   8.079
   21POPC   GL1  616   2.244   7.783   7.677
   21POPC   GL2  617   1.903   8.026   7.574
   21POPC   C1A  618   2.279   7.950   7.257
   21POPC   D2A  619   2.071   7.916   6.864
   21POPC   C3A  620   2.383   7.993   6.545
   21POPC   C4A  621   2.469   8.085   6.107
   21POPC   C1B  622   1.529   8.306   7.421
   21POPC   C2B  623   1.385   8.304   6.974
   21POPC   C3B  624   1.692   8.196   6.631
   21POPC   C4B  625   1.988   8.191   6.278
   22POPC   NC3  626   4.156   1.499   8.188
   22POPC   PO4  627   4.712   1.106   8.393
   22POPC   GL1  628   4.604   1.359   7.963
   22POPC   GL2  629   4.285   1.204   7.803
   22POPC   C1A  630   4.627   1.316   7.443
   22POPC   D2A  631   4.406   1.217   6.992
   22POPC   C3A  632   4.562   1.060   6.543
   22POPC   C4A  633   4.608   1.048   6.041
   22POPC   C1B  634   3.985   1.244   7.451
   22POPC   C2B  635   3.900   1.139   6.984
   22POPC   C3B  636   4.046   0.939   6.585
   22POPC   C4B  637   4.187   1.214   6.230
   23POPC   NC3  638   7.850   7.066   8.031
   23POPC   PO4  639   8.373   7.519   8.145
   23POPC   GL1  640   8.147   7.353   7.784
   23POPC   GL2  641   8.205   7.525   7.571
   23POPC   C1A  642   7.976   7.127   7.381
   23POPC   D2A  643   8.107   7.249   6.950
   23POPC   C3A  644   7.904   7.070   6.566
   23POPC   C4A  645   7.668   7.021   6.169
   23POPC   C1B  646   8.297   7.693   7.228
   23POPC   C2B  647   8.447   7.640   6.848
   23POPC   C3B  648   8.316   7.636   6.424
   23POPC   C4B  649   8.242   7.371   6.054
   24POPC   NC3  650   9.226   3.518   8.024
   24POPC   PO4  651   8.733   3.968   8.017
   24POPC   GL1  652   8.859   3.676   7.710
   24POPC   GL2  653   8.816   3.287   7.792
   24POPC   C1A  654   9.179   3.774   7.395
   24POPC   D2A  655   9.347   3.576   7.026
   24POPC   C3A  656   9.150   3.644   6.627
   24POPC   C4A  657   8.888   3.535   6.260
   24POPC   C1B  658   9.020   3.304   7.379
   24POPC   C2B  659   8.907   3.291   6.940
   24POPC   C3B  660   8.992   3.121   6.529
   24POPC   C4B  661   8.788   2.935   6.146
   25POPC   NC3  662   0.188   1.801   8.154
   25POPC   PO4  663   0.454   2.227   8.473
   25POPC   GL1  664   0.399   2.153   7.883
   25POPC   GL2  665   0.683   2.093   7.672
   25POPC   C1A  666   0.218   2.081   7.443
   25POPC   D2A  667   9.987   2.155   7.028
   25POPC   C3A  668   0.151   1.948   6.641
   25POPC   C4A  669   0.192   1.978   6.183
   25POPC   C1B  670   0.697   2.129   7.214
   25POPC   C2B  671   0.638   2.098   6.770
   25POPC   C3B  672   0.674   1.951   6.353
   25POPC   C4B  673   0.595   1.731   5.932
   26POPC   NC3  674   9.868   4.370   8.233
   26POPC   PO4  675   9.357   4.730   7.910
   26POPC   GL1  676   9.684   4.552   7.673
   26POPC   GL2  677   9.807   4.197   7.753
   26POPC   C1A  678   9.672   4.644   7.240
   26POPC   D2A  679   9.435   4.619   6.852
   26POPC   C3A  680   9.586   4.500   6.437
   26POPC   C4A  681   9.567   4.645   6.002
   26POPC   C1B  682   9.907   4.200   7.318
   26POPC   C2B  683   9.910   4.367   6.884
   26POPC   C3B  684   0.013   4.194   6.503
   26POPC   C4B  685   9.942   3.823   6.246
   27POPC   NC3  686   7.298   0.956   8.110
   27POPC   PO4  687   7.711   1.406   7.806
   27POPC   GL1  688   7.262   1.344   7.662
   27POPC   GL2  689   7.098   1.016   7.646
   27POPC   C1A  690   7.139   1.280   7.207
   27POPC   D2A  691   7.367   1.290   6.804
   27POPC   C3A  692   7.055   1.354   6.489
   27POPC   C4A  693   6.984   1.191   6.047
   27POPC   C1B  694   7.526   0.984   7.378
   27POPC   C2B  695   7.745   0.934   6.987
   27POPC   C3B  696   7.613   0.861   6.572
   27POPC   C4B  697   7.476   1.174   6.275
   28POPC   NC3  698   9.286   4.969   8.293
   28POPC   PO4  699   8.603   4.932   8.062
   28POPC   GL1  700   8.884   4.782   7.693
   28POPC   GL2  701   9.095   5.055   7.608
   28POPC   C1A  702   9.049   4.739   7.202
   28POPC   D2A  703   8.952   4.767   6.715
   28POPC   C3A  704   9.189   4.831   6.301
   28POPC   C4A  705   9.124   4.718   5.797
   28POPC   C1B  706   8.690   5.102   7.361
   28POPC   C2B  707   8.582   5.033   6.939
   28POPC   C3B  708   8.749   5.212   6.551
   28POPC   C4B  709   8.688   5.619   6.356
   29POPC   NC3  710   6.010   8.895   8.446
   29POPC   PO4  711   5.462   9.264   8.267
   29POPC   GL1  712   5.684   9.255   7.873
   29POPC   GL2  713   5.883   8.953   7.871
   29POPC   C1A  714   5.784   9.251   7.429
   29POPC   D2A  715   5.985   9.134   7.026
   29POPC   C3A  716   5.747   9.180   6.652
   29POPC   C4A  717   5.448   9.175   6.313
   29POPC   C1B  718   5.867   8.743   7.464
   29POPC   C2B  719   6.094   8.634   7.106
   29POPC   C3B  720   5.981   8.704   6.690
   29POPC   C4B  721   5.783   8.805   6.297
   30POPC   NC3  722   5.042   8.897   8.194
   30POPC   PO4  723   4.449   8.674   7.904
   30POPC   GL1  724   4.866   8.757   7.715
   30POPC   GL2  725   4.933   9.141   7.726
   30POPC   C1A  726   4.983   8.827   7.276
   30POPC   D2A  727   4.825   9.224   7.165
   30POPC   C3A  728   4.804   9.295   6.760
   30POPC   C4A  729   5.000   9.022   6.499
   30POPC   C1B  730   5.363   8.981   7.566
   30POPC   C2B  731   5.514   8.917   7.110
   30POPC   C3B  732   5.412   8.784   6.665
   30POPC   C4B  733   5.257   8.653   6.247
   31POPC   NC3  734   5.894   9.680   8.076
   31POPC   PO4  735   5.385   0.076   8.311
   31POPC   GL1  736   5.621   0.061   7.856
   31POPC   GL2  737   5.773   9.766   7.585
   31POPC   C1A  738   5.407   0.080   7.433
   31POPC   D2A  739   5.552   0.243   7.025
   31POPC   C3A  740   5.496   0.049   6.607
   31POPC   C4A  741   5.538   9.687   6.326
   31POPC   C1B  742   6.123   9.586   7.253
   31POPC   C2B  743   6.254   9.590   6.822
   31POPC   C3B  744   6.013   9.550   6.422
   31POPC   C4B  745   5.908   9.255   6.086
   32POPC   NC3  746   7.172   2.435   8.180
   32POPC   PO4  747   7.228   3.118   8.177
   32POPC   GL1  748   7.352   2.833   7.886
   32POPC   GL2  749   7.599   2.990   7.747
   32POPC   C1A  750   7.229   2.695   7.477
   32POPC   D2A  751   7.253   2.756   7.011
   32POPC   C3A  752   7.095   2.657   6.578
   32POPC   C4A  753   7.050   2.819   6.146
   32POPC   C1B  754   7.747   2.763   7.377
   32POPC   C2B  755   7.760   2.609   6.946
   32POPC   C3B  756   7.600   2.758   6.529
   32POPC   C4B  757   7.613   2.882   6.080
   33POPC   NC3  758   8.982   9.250   8.402
   33POPC   PO4  759   9.222   8.555   8.302
   33POPC   GL1  760   9.050   8.775   7.912
   33POPC   GL2  761   8.711   8.795   8.034
   33POPC   C1A  762   9.089   8.899   7.418
   33POPC   D2A  763   9.169   8.755   6.982
   33POPC   C3A  764   9.147   9.020   6.627
   33POPC   C4A  765   8.950   8.968   6.260
   33POPC   C1B  766   8.595   8.864   7.590
   33POPC   C2B  767   8.676   8.869   7.116
   33POPC   C3B  768   8.700   8.730   6.663
   33POPC   C4B  769   8.458   8.664   6.252
   34POPC   NC3  770   5.050   0.394   8.191
   34POPC   PO4  771   4.645   0.869   7.912
   34POPC   GL1  772   4.886   0.561   7.706
   34POPC   GL2  773   4.774   0.216   7.703
   34POPC   C1A  774   5.104   0.495   7.313
   34POPC   D2A  775   5.308   0.675   6.959
   34POPC   C3A  776   5.199   0.545   6.522
   34POPC   C4A  777   5.087   0.528   6.074
   34POPC   C1B  778   4.766   0.109   7.254
   34POPC   C2B  779   5.035   0.181   6.845
   34POPC   C3B  780   5.042   0.077   6.349
   34POPC   C4B  781   4.860   0.102   5.899
   35POPC   NC3  782   0.332   6.766   8.231
   35POPC   PO4  783   0.872   6.615   8.137
   35POPC   GL1  784   0.827   6.442   7.733
   35POPC   GL2  785   0.496   6.487   7.785
   35POPC   C1A  786   0.783   6.617   7.325
   35POPC   D2A  787   0.762   6.923   6.992
   35POPC   C3A  788   0.778   6.704   6.612
   35POPC   C4A  789   0.684   6.818   6.202
   35POPC   C1B  790   0.305   6.492   7.400
   35POPC   C2B  791   0.443   6.437   6.967
   35POPC   C3B  792   0.337   6.445   6.547
   35POPC   C4B  793   0.190   6.110   6.294
   36POPC   NC3  794   7.623   8.617   7.953
   36POPC   PO4  795   7.833   9.247   8.074
   36POPC   GL1  796   7.534   9.106   7.771
   36POPC   GL2  797   7.204   8.994   7.906
   36POPC   C1A  798   7.610   9.085   7.316
   36POPC   D2A  799   7.834   9.096   6.914
   36POPC   C3A  800   7.645   9.022   6.512
   36POPC   C4A  801   7.548   9.179   6.067
   36POPC   C1B  802   7.224   8.790   7.486
   36POPC   C2B  803   7.277   8.749   7.043
   36POPC   C3B  804   7.021   8.703   6.660
   36POPC   C4B  805   7.214   8.860   6.297
   37POPC   NC3  806   1.989   8.727   8.162
   37POPC   PO4  807   2.311   8.247   7.838
   37POPC   GL1  808   1.989   8.535   7.690
   37POPC   GL2  809   2.047   8.928   7.692
   37POPC   C1A  810   1.913   8.636   7.276
   37POPC   D2A  811   2.061   8.926   6.987
   37POPC   C3A  812   1.980   8.755   6.590
   37POPC   C4A  813   1.675   8.628   6.297
   37POPC   C1B  814   2.204   9.281   7.388
   37POPC   C2B  815   2.409   9.307   6.954
   37POPC   C3B  816   2.179   9.248   6.564
   37POPC   C4B  817   1.929   9.096   6.207
   38POPC   NC3  818   0.715   6.191   8.161
   38POPC   PO4  819   0.468   5.570   7.987
   38POPC   GL1  820   0.511   5.965   7.766
   38POPC   GL2  821   0.854   5.917   7.731
   38POPC   C1A  822   0.589   6.087   7.336
   38POPC   D2A  823   0.474   5.810   6.983
   38POPC   C3A  824   0.592   5.980   6.594
   38POPC   C4A  825   0.742   6.281   6.286
   38POPC   C1B  826   0.734   5.609   7.392
   38POPC   C2B  827   0.750   5.388   6.989
   38POPC   C3B  828   0.697   5.457   6.541
   38POPC   C4B  829   0.393   5.631   6.245
   39POPC   NC3  830   2.134   7.164   8.146
   39POPC   PO4  831   1.550   7.666   8.120
   39POPC   GL1  832   1.784   7.553   7.707
   39POPC   GL2  833   2.048   7.308   7.676
   39POPC   C1A  834   1.943   7.551   7.240
   39POPC   D2A  835   1.825   7.440   6.786
   39POPC   C3A  836   2.029   7.662   6.424
   39POPC   C4A  837   2.072   7.636   5.974
   39POPC   C1B  838   2.304   7.116   7.366
   39POPC   C2B  839   2.191   7.072   6.929
   39POPC   C3B  840   2.288   7.240   6.533
   39POPC   C4B  841   2.229   7.167   6.092
   40POPC   NC3  842   6.544   0.102   8.031
   40POPC   PO4  843   6.967   0.642   7.998
   40POPC   GL1  844   6.911   0.313   7.721
   40POPC   GL2  845   6.595   0.460   7.676
   40POPC   C1A  846   6.866   0.269   7.275
   40POPC   D2A  847   6.873   0.486   6.868
   40POPC   C3A  848   6.881   0.398   6.397
   40POPC   C4A  849   6.719   0.708   6.106
   40POPC   C1B  850   6.379   0.366   7.345
   40POPC   C2B  851   6.339   0.537   6.965
   40POPC   C3B  852   6.442   0.588   6.555
   40POPC   C4B  853   6.379   0.320   6.221
   41POPC   NC3  854   8.946   7.367   8.170
   41POPC   PO4  855   8.491   6.873   8.184
   41POPC   GL1  856   8.640   7.176   7.803
   41POPC   GL2  857   9.052   7.262   7.688
   41POPC   C1A  858   8.682   7.439   7.420
   41POPC   D2A  859   8.906   7.382   7.059
   41POPC   C3A  860   8.835   7.407   6.630
   41POPC   C4A  861   8.747   7.476   6.197
   41POPC   C1B  862   9.238   7.588   7.364
   41POPC   C2B  863   9.351   7.609   6.872
   41POPC   C3B  864   9.195   7.691   6.409
   41POPC   C4B  865   9.234   7.700   5.929
   42POPC   NC3  866   2.446   3.710   8.194
   42POPC   PO4  867   1.836   3.990   8.395
   42POPC   GL1  868   1.825   3.867   7.932
   42POPC   GL2  869   1.858   3.491   7.816
   42POPC   C1A  870   1.792   3.898   7.475
   42POPC   D2A  871   2.034   3.666   7.165
   42POPC   C3A  872   1.801   3.638   6.777
   42POPC   C4A  873   1.639   3.830   6.405
   42POPC   C1B  874   1.652   3.398   7.382
   42POPC   C2B  875   1.544   3.167   6.991
   42POPC   C3B  876   1.713   3.169   6.562
   42POPC   C4B  877   1.983   3.445   6.297
   43POPC   NC3  878   1.029   3.080   8.092
   43POPC   PO4  879   0.724   2.517   7.985
   43POPC   GL1  880   0.943   2.754   7.689
   43POPC   GL2  881   1.311   2.772   7.764
   43POPC   C1A  882   0.895   2.739   7.263
   43POPC   D2A  883   0.806   2.562   6.891
   43POPC   C3A  884   0.946   2.786   6.552
   43POPC   C4A  885   1.082   2.664   6.126
   43POPC   C1B  886   1.514   2.730   7.345
   43POPC   C2B  887   1.322   2.691   6.937
   43POPC   C3B  888   1.459   2.685   6.518
   43POPC   C4B  889   1.460   2.979   6.177
   44POPC   NC3  890   9.405   1.868   7.906
   44POPC   PO4  891   9.957   2.255   8.077
   44POPC   GL1  892   9.775   2.171   7.689
   44POPC   GL2  893   9.886   1.817   7.722
   44POPC   C1A  894   9.542   2.233   7.279
   44POPC   D2A  895   9.572   2.459   6.857
   44POPC   C3A  896   9.889   2.379   6.499
   44POPC   C4A  897   9.795   2.255   5.997
   44POPC   C1B  898   9.847   1.714   7.272
   44POPC   C2B  899   9.885   1.454   6.866
   44POPC   C3B  900   9.878   1.536   6.418
   44POPC   C4B  901   9.703   1.937   6.369
   45POPC   NC3  902   0.309   2.564   8.205
   45POPC   PO4  903   0.513   3.195   8.130
   45POPC   GL1  904   0.371   2.931   7.753
   45POPC   GL2  905   0.140   2.613   7.718
   45POPC   C1A  906   0.245   3.030   7.308
   45POPC   D2A  907   0.525   2.983   6.946
   45POPC   C3A  908   0.516   3.059   6.502
   45POPC   C4A  909   0.597   2.793   6.162
   45POPC   C1B  910   0.401   2.548   7.322
   45POPC   C2B  911   0.297   2.522   6.865
   45POPC   C3B  912   0.403   2.414   6.440
   45POPC   C4B  913   0.221   2.496   6.035
   46POPC   NC3  914   8.219   7.164   8.390
   46POPC   PO4  915   7.945   6.608   8.053
   46POPC   GL1  916   8.222   6.845   7.755
   46POPC   GL2  917   8.466   6.607   7.679
   46POPC   C1A  918   8.453   6.992   7.342
   46POPC   D2A  919   8.625   6.998   6.894
   46POPC   C3A  920   8.415   7.116   6.498
   46POPC   C4A  921   8.175   6.867   6.175
   46POPC   C1B  922   8.137   6.575   7.351
   46POPC   C2B  923   8.205   6.737   6.966
   46POPC   C3B  924   8.377   6.609   6.597
   46POPC   C4B  925   8.064   6.401   6.390
   47POPC   NC3  926   4.996   1.473   8.386
   47POPC   PO4  927   4.482   1.839   8.139
   47POPC   GL1  928   4.754   1.823   7.803
   47POPC   GL2  929   5.055   1.840   8.004
   47POPC   C1A  930   4.785   1.805   7.344
   47POPC   D2A  931   4.971   1.904   6.916
   47POPC   C3A  932   4.690   1.994   6.552
   47POPC   C4A  933   4.836   2.332   6.317
   47POPC   C1B  934   5.234   1.977   7.585
   47POPC   C2B  935   5.436   2.114   7.180
   47POPC   C3B  936   5.422   2.113   6.717
   47POPC   C4B  937   5.176   1.906   6.401
   48POPC   NC3  938   2.639   4.565   7.994
   48POPC   PO4  939   2.746   5.238   8.109
   48POPC   GL1  940   2.568   5.150   7.714
   48POPC   GL2  941   2.384   4.836   7.594
   48POPC   C1A  942   2.626   5.240   7.281
   48POPC   D2A  943   2.518   5.101   6.891
   48POPC   C3A  944   2.679   5.154   6.481
   48POPC   C4A  945   2.603   5.191   6.037
   48POPC   C1B  946   2.402   4.664   7.129
   48POPC   C2B  947   2.524   4.657   6.636
   48POPC   C3B  948   2.852   4.704   6.273
   48POPC   C4B  949   3.011   4.587   5.822
   49POPC   NC3  950   4.300   2.276   8.170
   49POPC   PO4  951   3.754   1.787   8.200
   49POPC   GL1  952   4.020   1.966   7.849
   49POPC   GL2  953   4.224   1.709   7.717
   49POPC   C1A  954   4.042   2.096   7.372
   49POPC   D2A  955   3.862   2.144   6.921
   49POPC   C3A  956   4.148   2.037   6.527
   49POPC   C4A  957   4.336   2.199   6.116
   49POPC   C1B  958   4.270   1.646   7.296
   49POPC   C2B  959   4.453   1.741   6.934
   49POPC   C3B  960   4.390   1.557   6.560
   49POPC   C4B  961   4.384   1.687   6.139
   50POPC   NC3  962   6.359   7.318   7.977
   50POPC   PO4  963   6.797   7.086   8.414
   50POPC   GL1  964   6.800   7.175   7.794
   50POPC   GL2  965   7.062   7.392   7.670
   50POPC   C1A  966   6.612   7.319   7.348
   50POPC   D2A  967   6.381   7.323   6.915
   50POPC   C3A  968   6.566   7.316   6.483
   50POPC   C4A  969   6.616   7.099   6.071
   50POPC   C1B  970   7.072   7.463   7.238
   50POPC   C2B  971   6.988   7.280   6.856
   50POPC   C3B  972   7.045   7.476   6.473
   50POPC   C4B  973   6.812   7.564   6.076
   51POPC   NC3  974   9.705   2.641   8.059
   51POPC   PO4  975   9.175   3.092   8.214
   51POPC   GL1  976   9.354   2.943   7.759
   51POPC   GL2  977   9.582   2.654   7.591
   51POPC   C1A  978   9.289   2.890   7.281
   51POPC   D2A  979   9.435   3.092   6.914
   51POPC   C3A  980   9.480   2.867   6.560
   51POPC   C4A  981   9.283   2.897   6.156
   51POPC   C1B  982   9.880   2.642   7.254
   51POPC   C2B  983   9.946   2.910   6.892
   51POPC   C3B  984   0.033   2.877   6.465
   51POPC   C4B  985   9.761   2.725   6.151
   52POPC   NC3  986   6.695   1.856   8.324
   52POPC   PO4  987   7.093   1.375   8.147
   52POPC   GL1  988   6.811   1.578   7.895
   52POPC   GL2  989   6.775   1.960   7.812
   52POPC   C1A  990   6.797   1.586   7.466
   52POPC   D2A  991   6.622   1.367   7.145
   52POPC   C3A  992   6.638   1.566   6.720
   52POPC   C4A  993   6.847   1.798   6.346
   52POPC   C1B  994   6.459   2.060   7.452
   52POPC   C2B  995   6.311   2.040   6.982
   52POPC   C3B  996   6.439   2.031   6.534
   52POPC   C4B  997   6.777   2.333   6.301
   53POPC   NC3  998   0.221   3.500   7.931
   53POPC   PO4  999   9.878   3.018   8.269
   53POPC   GL1 1000   9.862   3.075   7.803
   53POPC   GL2 1001   9.686   3.403   7.773
   53POPC   C1A 1002   9.751   3.151   7.343
   53POPC   D2A 1003   9.974   3.424   7.027
   53POPC   C3A 1004   9.746   3.466   6.628
   53POPC   C4A 1005   9.677   3.223   6.254
   53POPC   C1B 1006   9.708   3.706   7.392
   53POPC   C2B 1007   9.742   3.888   6.948
   53POPC   C3B 1008   9.543   3.975   6.550
   53POPC   C4B 1009   9.454   3.678   6.213
   54POPC   NC3 1010   6.999   8.749   8.452
   54POPC   PO4 1011   6.435   9.050   8.347
   54POPC   GL1 1012   6.456   8.958   7.875
   54POPC   GL2 1013   6.763   8.719   7.810
   54POPC   C1A 1014   6.333   9.075   7.408
   54POPC   D2A 1015   6.521   9.147   6.956
   54POPC   C3A 1016   6.265   9.118   6.586
   54POPC   C4A 1017   6.292   8.793   6.292
   54POPC   C1B 1018   6.844   9.116   7.555
   54POPC   C2B 1019   7.098   9.256   7.166
   54POPC   C3B 1020   7.088   9.200   6.687
   54POPC   C4B 1021   6.738   9.031   6.395
   55POPC   NC3 1022   9.648   0.339   7.828
   55POPC   PO4 1023   9.258   0.729   8.238
   55POPC   GL1 1024   9.512   0.816   7.788
   55POPC   GL2 1025   9.887   0.817   7.690
   55POPC   C1A 1026   9.497   0.732   7.308
   55POPC   D2A 1027   9.578   0.522   6.904
   55POPC   C3A 1028   9.356   0.690   6.554
   55POPC   C4A 1029   9.219   0.612   6.140
   55POPC   C1B 1030   9.963   0.537   7.291
   55POPC   C2B 1031   9.992   0.213   6.938
   55POPC   C3B 1032   9.947   0.410   6.534
   55POPC   C4B 1033   9.599   0.296   6.309
   56POPC   NC3 1034   0.089   5.810   8.064
   56POPC   PO4 1035   9.585   6.187   7.840
   56POPC   GL1 1036   9.979   6.036   7.605
   56POPC   GL2 1037   0.156   5.709   7.526
   56POPC   C1A 1038   0.090   6.085   7.171
   56POPC   D2A 1039   0.013   5.888   6.761
   56POPC   C3A 1040   9.697   6.086   6.500
   56POPC   C4A 1041   9.727   5.973   6.089
   56POPC   C1B 1042   9.796   5.668   7.247
   56POPC   C2B 1043   9.580   5.592   6.855
   56POPC   C3B 1044   9.627   5.585   6.410
   56POPC   C4B 1045   9.413   5.606   5.971
   57POPC   NC3 1046   8.152   9.576   8.148
   57POPC   PO4 1047   8.640   0.004   7.987
   57POPC   GL1 1048   8.268   9.829   7.687
   57POPC   GL2 1049   8.252   9.424   7.663
   57POPC   C1A 1050   7.904   9.966   7.366
   57POPC   D2A 1051   7.704   9.976   6.922
   57POPC   C3A 1052   7.821   9.923   6.456
   57POPC   C4A 1053   8.146   9.847   6.137
   57POPC   C1B 1054   8.017   9.469   7.253
   57POPC   C2B 1055   8.022   9.567   6.785
   57POPC   C3B 1056   7.940   9.421   6.354
   57POPC   C4B 1057   8.077   9.381   5.898
   58POPC   NC3 1058   3.781   7.492   8.291
   58POPC   PO4 1059   3.684   6.928   8.100
   58POPC   GL1 1060   3.633   7.331   7.814
   58POPC   GL2 1061   3.311   7.483   7.835
   58POPC   C1A 1062   3.629   7.516   7.352
   58POPC   D2A 1063   3.551   7.598   6.879
   58POPC   C3A 1064   3.367   7.243   6.603
   58POPC   C4A 1065   3.451   7.126   6.141
   58POPC   C1B 1066   3.123   7.516   7.404
   58POPC   C2B 1067   3.016   7.556   6.974
   58POPC   C3B 1068   3.171   7.730   6.562
   58POPC   C4B 1069   3.524   7.608   6.290
   59POPC   NC3 1070   8.811   2.233   7.874
   59POPC   PO4 1071   8.995   1.640   7.948
   59POPC   GL1 1072   9.031   1.587   7.537
   59POPC   GL2 1073   8.737   1.767   7.491
   59POPC   C1A 1074   9.348   1.611   7.184
   59POPC   D2A 1075   9.531   1.906   6.863
   59POPC   C3A 1076   9.224   1.952   6.511
   59POPC   C4A 1077   8.964   1.785   6.199
   59POPC   C1B 1078   9.051   2.042   7.286
   59POPC   C2B 1079   9.078   2.250   6.903
   59POPC   C3B 1080   8.741   2.127   6.599
   59POPC   C4B 1081   8.515   1.758   6.422
   60POPC   NC3 1082   6.726   1.054   8.171
   60POPC   PO4 1083   6.101   0.775   8.279
   60POPC   GL1 1084   6.294   0.832   7.854
   60POPC   GL2 1085   6.551   1.074   7.688
   60POPC   C1A 1086   6.164   0.820   7.404
   60POPC   D2A 1087   6.240   1.037   7.003
   60POPC   C3A 1088   6.062   0.912   6.614
   60POPC   C4A 1089   6.242   0.954   6.208
   60POPC   C1B 1090   6.691   0.846   7.301
   60POPC   C2B 1091   6.747   0.971   6.868
   60POPC   C3B 1092   6.626   1.079   6.491
   60POPC   C4B 1093   6.524   1.407   6.223
   61POPC   NC3 1094   1.052   4.055   7.888
   61POPC   PO4 1095   0.923   4.681   7.941
   61POPC   GL1 1096   0.897   4.448   7.584
   61POPC   GL2 1097   1.253   4.357   7.544
   61POPC   C1A 1098   0.880   4.412   7.123
   61POPC   D2A 1099   0.860   4.630   6.762
   61POPC   C3A 1100   0.837   4.432   6.386
   61POPC   C4A 1101   1.020   4.422   5.966
   61POPC   C1B 1102   1.269   4.093   7.187
   61POPC   C2B 1103   1.151   4.172   6.741
   61POPC   C3B 1104   1.312   4.216   6.331
   61POPC   C4B 1105   1.338   4.014   5.910
   62POPC   NC3 1106   7.632   3.323   8.199
   62POPC   PO4 1107   7.160   3.798   8.017
   62POPC   GL1 1108   7.389   3.479   7.783
   62POPC   GL2 1109   7.168   3.260   7.637
   62POPC   C1A 1110   7.655   3.346   7.425
   62POPC   D2A 1111   7.596   3.116   7.036
   62POPC   C3A 1112   7.587   3.278   6.615
   62POPC   C4A 1113   7.591   3.360   6.169
   62POPC   C1B 1114   7.204   3.403   7.202
   62POPC   C2B 1115   7.093   3.215   6.808
   62POPC   C3B 1116   7.124   3.290   6.371
   62POPC   C4B 1117   7.175   3.669   6.077
   63POPC   NC3 1118   1.915   2.868   8.209
   63POPC   PO4 1119   2.491   3.245   8.267
   63POPC   GL1 1120   2.285   3.088   7.852
   63POPC   GL2 1121   2.170   2.749   7.768
   63POPC   C1A 1122   2.095   3.116   7.393
   63POPC   D2A 1123   2.048   3.212   6.942
   63POPC   C3A 1124   2.188   2.989   6.547
   63POPC   C4A 1125   2.079   2.982   6.098
   63POPC   C1B 1126   2.038   2.607   7.350
   63POPC   C2B 1127   1.892   2.724   6.926
   63POPC   C3B 1128   1.966   2.526   6.525
   63POPC   C4B 1129   1.792   2.576   6.118
   64POPC   NC3 1130   8.101   7.844   7.939
   64POPC   PO4 1131   8.279   8.414   8.267
   64POPC   GL1 1132   8.407   8.432   7.805
   64POPC   GL2 1133   8.363   8.104   7.613
   64POPC   C1A 1134   8.391   8.481   7.312
   64POPC   D2A 1135   8.421   8.145   7.012
   64POPC   C3A 1136   8.404   8.305   6.631
   64POPC   C4A 1137   8.384   8.146   6.247
   64POPC   C1B 1138   8.000   8.100   7.294
   64POPC   C2B 1139   7.963   7.849   6.875
   64POPC   C3B 1140   7.934   7.990   6.469
   64POPC   C4B 1141   8.012   7.860   6.066
   65POPC   NC3 1142   4.255   9.788   8.196
   65POPC   PO4 1143   4.762   9.300   8.221
   65POPC   GL1 1144   4.462   9.459   7.846
   65POPC   GL2 1145   4.402   9.836   7.720
   65POPC   C1A 1146   4.408   9.343   7.422
   65POPC   D2A 1147   4.441   9.610   7.042
   65POPC   C3A 1148   4.351   9.456   6.588
   65POPC   C4A 1149   4.622   9.285   6.268
   65POPC   C1B 1150   4.050   9.682   7.501
   65POPC   C2B 1151   3.941   9.797   7.075
   65POPC   C3B 1152   4.182   9.936   6.669
   65POPC   C4B 1153   4.056   9.880   6.211
   66POPC   NC3 1154   2.054   1.232   8.109
   66POPC   PO4 1155   1.555   0.821   8.108
   66POPC   GL1 1156   1.750   0.971   7.751
   66POPC   GL2 1157   2.114   0.979   7.638
   66POPC   C1A 1158   1.655   1.183   7.383
   66POPC   D2A 1159   1.746   1.047   6.987
   66POPC   C3A 1160   1.702   1.218   6.572
   66POPC   C4A 1161   1.956   1.105   6.213
   66POPC   C1B 1162   2.152   1.250   7.258
   66POPC   C2B 1163   2.115   1.381   6.824
   66POPC   C3B 1164   2.014   1.602   6.432
   66POPC   C4B 1165   1.972   1.596   5.961
   67POPC   NC3 1166   7.358   4.221   8.007
   67POPC   PO4 1167   7.621   4.793   7.934
   67POPC   GL1 1168   7.753   4.418   7.650
   67POPC   GL2 1169   7.804   4.035   7.761
   67POPC   C1A 1170   7.790   4.226   7.223
   67POPC   D2A 1171   7.790   4.077   6.793
   67POPC   C3A 1172   7.543   4.302   6.472
   67POPC   C4A 1173   7.369   4.567   6.156
   67POPC   C1B 1174   7.537   3.841   7.446
   67POPC   C2B 1175   7.344   3.881   7.055
   67POPC   C3B 1176   7.313   3.702   6.662
   67POPC   C4B 1177   7.593   3.797   6.396
   68POPC   NC3 1178   2.224   5.403   8.348
   68POPC   PO4 1179   2.276   4.765   8.222
   68POPC   GL1 1180   2.091   5.119   7.913
   68POPC   GL2 1181   1.755   5.053   7.742
   68POPC   C1A 1182   2.125   5.291   7.453
   68POPC   D2A 1183   2.071   5.408   6.997
   68POPC   C3A 1184   2.074   5.074   6.668
   68POPC   C4A 1185   2.239   4.921   6.272
   68POPC   C1B 1186   1.645   5.037   7.286
   68POPC   C2B 1187   1.594   5.199   6.846
   68POPC   C3B 1188   1.646   5.030   6.403
   68POPC   C4B 1189   1.806   4.751   6.063
   69POPC   NC3 1190   7.938   2.775   8.029
   69POPC   PO4 1191   8.476   2.491   8.027
   69POPC   GL1 1192   8.361   2.755   7.702
   69POPC   GL2 1193   8.147   3.038   7.643
   69POPC   C1A 1194   8.244   2.660   7.275
   69POPC   D2A 1195   8.341   2.456   6.875
   69POPC   C3A 1196   8.088   2.609   6.543
   69POPC   C4A 1197   7.906   2.492   6.146
   69POPC   C1B 1198   8.097   3.173   7.233
   69POPC   C2B 1199   8.035   3.078   6.797
   69POPC   C3B 1200   8.014   3.101   6.373
   69POPC   C4B 1201   8.255   2.864   6.123
   70POPC   NC3 1202   1.150   7.338   8.181
   70POPC   PO4 1203   1.690   6.840   8.148
   70POPC   GL1 1204   1.554   7.101   7.724
   70POPC   GL2 1205   1.291   7.384   7.701
   70POPC   C1A 1206   1.501   7.301   7.259
   70POPC   D2A 1207   1.237   7.174   6.909
   70POPC   C3A 1208   1.385   7.273   6.484
   70POPC   C4A 1209   1.741   7.303   6.226
   70POPC   C1B 1210   1.019   7.497   7.312
   70POPC   C2B 1211   0.924   7.546   6.858
   70POPC   C3B 1212   0.861   7.233   6.501
   70POPC   C4B 1213   0.959   7.239   6.030
   71POPC   NC3 1214   0.668   9.653   8.200
   71POPC   PO4 1215   1.268   9.261   8.142
   71POPC   GL1 1216   1.322   9.428   7.721
   71POPC   GL2 1217   1.007   9.616   7.740
   71POPC   C1A 1218   1.252   9.345   7.259
   71POPC   D2A 1219   0.957   9.111   6.949
   71POPC   C3A 1220   0.940   9.236   6.490
   71POPC   C4A 1221   0.917   9.288   6.026
   71POPC   C1B 1222   1.281   9.851   7.451
   71POPC   C2B 1223   1.342   9.928   7.011
   71POPC   C3B 1224   1.031   9.950   6.685
   71POPC   C4B 1225   0.872   9.868   6.297
   72POPC   NC3 1226   6.667   6.803   8.089
   72POPC   PO4 1227   6.160   6.975   7.722
   72POPC   GL1 1228   6.544   6.835   7.489
   72POPC   GL2 1229   6.814   6.637   7.623
   72POPC   C1A 1230   6.647   6.894   7.031
   72POPC   D2A 1231   6.779   6.874   6.598
   72POPC   C3A 1232   6.426   6.707   6.367
   72POPC   C4A 1233   6.247   6.740   5.944
   72POPC   C1B 1234   6.854   6.453   7.196
   72POPC   C2B 1235   6.696   6.398   6.756
   72POPC   C3B 1236   6.647   6.225   6.326
   72POPC   C4B 1237   6.540   6.308   5.875
   73POPC   NC3 1238   7.555   6.363   7.955
   73POPC   PO4 1239   7.117   6.839   7.979
   73POPC   GL1 1240   7.267   6.913   7.612
   73POPC   GL2 1241   7.621   6.811   7.657
   73POPC   C1A 1242   7.121   6.895   7.189
   73POPC   D2A 1243   7.225   6.611   6.842
   73POPC   C3A 1244   7.084   6.502   6.420
   73POPC   C4A 1245   6.842   6.652   6.091
   73POPC   C1B 1246   7.640   6.729   7.222
   73POPC   C2B 1247   7.746   6.643   6.802
   73POPC   C3B 1248   7.590   6.590   6.424
   73POPC   C4B 1249   7.515   6.204   6.215
   74POPC   NC3 1250   6.212   2.672   8.033
   74POPC   PO4 1251   6.716   2.301   8.195
   74POPC   GL1 1252   6.813   2.513   7.795
   74POPC   GL2 1253   6.852   2.879   7.788
   74POPC   C1A 1254   6.582   2.610   7.413
   74POPC   D2A 1255   6.284   2.603   7.082
   74POPC   C3A 1256   6.376   2.515   6.636
   74POPC   C4A 1257   6.300   2.385   6.173
   74POPC   C1B 1258   6.871   3.009   7.304
   74POPC   C2B 1259   6.724   2.832   6.899
   74POPC   C3B 1260   6.656   2.939   6.444
   74POPC   C4B 1261   6.564   2.846   5.984
   75POPC   NC3 1262   3.551   0.529   8.164
   75POPC   PO4 1263   3.897   1.093   8.146
   75POPC   GL1 1264   3.959   0.796   7.789
   75POPC   GL2 1265   3.735   0.524   7.702
   75POPC   C1A 1266   3.950   0.751   7.322
   75POPC   D2A 1267   3.569   0.762   7.058
   75POPC   C3A 1268   3.616   0.583   6.654
   75POPC   C4A 1269   3.725   0.706   6.225
   75POPC   C1B 1270   3.385   0.419   7.431
   75POPC   C2B 1271   3.180   0.428   7.026
   75POPC   C3B 1272   3.220   0.239   6.634
   75POPC   C4B 1273   3.241   0.519   6.263
   76POPC   NC3 1274   2.491   2.052   8.238
   76POPC   PO4 1275   3.011   2.444   8.329
   76POPC   GL1 1276   3.059   2.350   7.841
   76POPC   GL2 1277   2.860   2.036   7.814
   76POPC   C1A 1278   3.004   2.224   7.346
   76POPC   D2A 1279   2.723   2.080   6.947
   76POPC   C3A 1280   2.803   2.131   6.463
   76POPC   C4A 1281   2.758   2.103   5.975
   76POPC   C1B 1282   2.701   1.817   7.431
   76POPC   C2B 1283   2.487   1.634   7.076
   76POPC   C3B 1284   2.522   1.621   6.611
   76POPC   C4B 1285   2.814   1.671   6.247
   77POPC   NC3 1286   1.426   4.686   7.936
   77POPC   PO4 1287   1.405   5.234   8.074
   77POPC   GL1 1288   1.179   5.073   7.723
   77POPC   GL2 1289   1.042   5.403   7.720
   77POPC   C1A 1290   1.172   4.788   7.310
   77POPC   D2A 1291   1.373   4.602   6.925
   77POPC   C3A 1292   1.266   4.707   6.478
   77POPC   C4A 1293   1.277   4.891   6.059
   77POPC   C1B 1294   1.162   5.274   7.277
   77POPC   C2B 1295   1.105   5.057   6.865
   77POPC   C3B 1296   1.167   5.229   6.458
   77POPC   C4B 1297   1.393   5.395   6.112
   78POPC   NC3 1298   8.046   0.861   8.163
   78POPC   PO4 1299   8.027   1.531   8.234
   78POPC   GL1 1300   8.184   1.230   7.842
   78POPC   GL2 1301   8.456   1.390   7.705
   78POPC   C1A 1302   8.109   1.070   7.371
   78POPC   D2A 1303   8.271   1.126   6.925
   78POPC   C3A 1304   8.136   0.859   6.549
   78POPC   C4A 1305   7.923   0.979   6.131
   78POPC   C1B 1306   8.230   1.565   7.348
   78POPC   C2B 1307   7.854   1.451   7.060
   78POPC   C3B 1308   7.859   1.314   6.622
   78POPC   C4B 1309   8.224   1.326   6.353
   79POPC   NC3 1310   1.935   0.570   8.042
   79POPC   PO4 1311   1.951   9.923   8.087
   79POPC   GL1 1312   1.652   0.060   7.756
   79POPC   GL2 1313   1.583   0.444   7.698
   79POPC   C1A 1314   1.750   0.123   7.317
   79POPC   D2A 1315   2.125   0.240   7.044
   79POPC   C3A 1316   2.022   0.217   6.602
   79POPC   C4A 1317   2.036   0.187   6.168
   79POPC   C1B 1318   1.854   0.652   7.346
   79POPC   C2B 1319   2.168   0.782   6.998
   79POPC   C3B 1320   1.980   0.771   6.595
   79POPC   C4B 1321   1.711   0.561   6.272
   80POPC   NC3 1322   5.148   9.619   8.339
   80POPC   PO4 1323   4.637   0.099   8.218
   80POPC   GL1 1324   4.840   9.776   7.965
   80POPC   GL2 1325   5.142   9.896   7.878
   80POPC   C1A 1326   4.830   9.645   7.498
   80POPC   D2A 1327   4.983   9.703   7.046
   80POPC   C3A 1328   4.737   9.798   6.671
   80POPC   C4A 1329   4.584   9.821   6.250
   80POPC   C1B 1330   5.309   9.532   7.643
   80POPC   C2B 1331   5.322   9.370   7.212
   80POPC   C3B 1332   5.296   9.424   6.738
   80POPC   C4B 1333   5.056   9.536   6.343
   81POPC   NC3 1334   1.057   8.835   8.134
   81POPC   PO4 1335   1.597   8.395   8.108
   81POPC   GL1 1336   1.554   8.839   7.857
   81POPC   GL2 1337   1.220   8.938   7.673
   81POPC   C1A 1338   1.637   9.046   7.427
   81POPC   D2A 1339   1.389   8.820   7.088
   81POPC   C3A 1340   1.295   8.823   6.623
   81POPC   C4A 1341   1.366   9.046   6.199
   81POPC   C1B 1342   1.063   8.603   7.425
   81POPC   C2B 1343   0.896   8.561   7.015
   81POPC   C3B 1344   0.746   8.739   6.639
   81POPC   C4B 1345   0.946   8.747   6.246
   82POPC   NC3 1346   9.521   8.905   8.207
   82POPC   PO4 1347   9.970   8.451   8.159
   82POPC   GL1 1348   9.829   8.681   7.814
   82POPC   GL2 1349   9.508   8.539   7.835
   82POPC   C1A 1350   9.984   8.857   7.392
   82POPC   D2A 1351   9.971   9.184   7.029
   82POPC   C3A 1352   9.861   8.993   6.610
   82POPC   C4A 1353   9.848   8.741   6.172
   82POPC   C1B 1354   9.507   8.608   7.387
   82POPC   C2B 1355   9.668   8.681   6.977
   82POPC   C3B 1356   9.481   8.666   6.520
   82POPC   C4B 1357   9.472   9.087   6.216
   83POPC   NC3 1358   2.492   5.630   7.943
   83POPC   PO4 1359   1.936   5.767   8.363
   83POPC   GL1 1360   1.812   5.896   7.873
   83POPC   GL2 1361   1.819   5.567   7.762
   83POPC   C1A 1362   1.942   5.986   7.412
   83POPC   D2A 1363   2.213   6.109   7.036
   83POPC   C3A 1364   2.120   5.911   6.654
   83POPC   C4A 1365   1.737   6.006   6.416
   83POPC   C1B 1366   1.661   5.554   7.323
   83POPC   C2B 1367   1.690   5.747   6.894
   83POPC   C3B 1368   1.826   5.516   6.499
   83POPC   C4B 1369   2.261   5.440   6.350
   84POPC   NC3 1370   7.523   5.237   7.997
   84POPC   PO4 1371   7.551   5.904   7.998
   84POPC   GL1 1372   7.794   5.556   7.666
   84POPC   GL2 1373   7.812   5.142   7.605
   84POPC   C1A 1374   7.742   5.419   7.195
   84POPC   D2A 1375   7.700   5.275   6.747
   84POPC   C3A 1376   7.803   5.583   6.410
   84POPC   C4A 1377   7.793   5.578   5.898
   84POPC   C1B 1378   7.681   4.884   7.255
   84POPC   C2B 1379   7.667   4.609   6.897
   84POPC   C3B 1380   7.674   4.809   6.513
   84POPC   C4B 1381   7.928   5.099   6.297
   85POPC   NC3 1382   1.284   6.664   8.310
   85POPC   PO4 1383   0.761   7.089   8.327
   85POPC   GL1 1384   0.993   6.989   7.844
   85POPC   GL2 1385   1.259   6.700   7.813
   85POPC   C1A 1386   1.144   6.966   7.388
   85POPC   D2A 1387   1.241   6.663   7.023
   85POPC   C3A 1388   1.275   6.777   6.580
   85POPC   C4A 1389   1.135   6.607   6.184
   85POPC   C1B 1390   1.513   6.593   7.469
   85POPC   C2B 1391   1.634   6.324   7.140
   85POPC   C3B 1392   1.620   6.405   6.719
   85POPC   C4B 1393   1.607   6.515   6.304
   86POPC   NC3 1394   0.320   8.728   8.026
   86POPC   PO4 1395   0.308   9.345   8.097
   86POPC   GL1 1396   0.720   9.180   7.886
   86POPC   GL2 1397   0.715   8.830   7.724
   86POPC   C1A 1398   0.788   9.242   7.434
   86POPC   D2A 1399   0.485   9.293   7.072
   86POPC   C3A 1400   0.424   9.152   6.650
   86POPC   C4A 1401   0.537   9.036   6.234
   86POPC   C1B 1402   0.522   8.818   7.295
   86POPC   C2B 1403   0.232   8.763   6.932
   86POPC   C3B 1404   0.260   8.685   6.477
   86POPC   C4B 1405   0.447   8.553   6.102
   87POPC   NC3 1406   0.471   7.444   8.267
   87POPC   PO4 1407   9.941   7.028   8.248
   87POPC   GL1 1408   0.118   7.177   7.853
   87POPC   GL2 1409   0.041   7.518   7.777
   87POPC   C1A 1410   0.149   6.977   7.414
   87POPC   D2A 1411   0.127   6.849   6.969
   87POPC   C3A 1412   0.334   6.984   6.583
   87POPC   C4A 1413   0.392   7.264   6.239
   87POPC   C1B 1414   0.377   7.424   7.419
   87POPC   C2B 1415   0.446   7.351   6.945
   87POPC   C3B 1416   0.531   7.631   6.560
   87POPC   C4B 1417   0.883   7.755   6.279
   88POPC   NC3 1418   8.230   0.270   7.981
   88POPC   PO4 1419   7.649   0.614   8.136
   88POPC   GL1 1420   7.828   0.757   7.729
   88POPC   GL2 1421   8.179   0.673   7.666
   88POPC   C1A 1422   7.812   0.538   7.349
   88POPC   D2A 1423   8.059   0.534   6.961
   88POPC   C3A 1424   7.882   0.402   6.598
   88POPC   C4A 1425   7.708   0.522   6.200
   88POPC   C1B 1426   8.290   0.323   7.358
   88POPC   C2B 1427   8.239   0.027   6.988
   88POPC   C3B 1428   8.326   0.079   6.550
   88POPC   C4B 1429   8.216   0.378   6.212
   89POPC   NC3 1430   5.037   1.047   8.049
   89POPC   PO4 1431   5.442   1.569   8.220
   89POPC   GL1 1432   5.403   1.532   7.743
   89POPC   GL2 1433   5.070   1.419   7.705
   89POPC   C1A 1434   5.247   1.569   7.260
   89POPC   D2A 1435   4.877   1.419   7.004
   89POPC   C3A 1436   4.914   1.486   6.561
   89POPC   C4A 1437   5.341   1.406   6.386
   89POPC   C1B 1438   5.101   1.063   7.414
   89POPC   C2B 1439   4.852   0.913   7.105
   89POPC   C3B 1440   5.032   1.012   6.717
   89POPC   C4B 1441   5.031   0.989   6.304
   90POPC   NC3 1442   5.321   7.938   8.147
   90POPC   PO4 1443   4.875   8.455   8.272
   90POPC   GL1 1444   4.784   8.267   7.856
   90POPC   GL2 1445   5.130   8.244   7.777
   90POPC   C1A 1446   4.839   8.339   7.385
   90POPC   D2A 1447   5.112   8.313   7.018
   90POPC   C3A 1448   4.929   8.517   6.678
   90POPC   C4A 1449   4.713   8.346   6.319
   90POPC   C1B 1450   5.233   7.968   7.420
   90POPC   C2B 1451   5.107   7.790   7.010
   90POPC   C3B 1452   4.938   7.963   6.654
   90POPC   C4B 1453   5.219   8.179   6.431
   91POPC   NC3 1454   9.676   7.451   8.275
   91POPC   PO4 1455   9.249   7.030   8.115
   91POPC   GL1 1456   9.554   7.214   7.846
   91POPC   GL2 1457   9.495   7.547   7.800
   91POPC   C1A 1458   9.692   7.216   7.427
   91POPC   D2A 1459   9.619   6.947   7.062
   91POPC   C3A 1460   9.614   7.144   6.666
   91POPC   C4A 1461   9.879   7.115   6.288
   91POPC   C1B 1462   9.731   7.740   7.425
   91POPC   C2B 1463   9.982   7.560   7.087
   91POPC   C3B 1464   0.030   7.450   6.641
   91POPC   C4B 1465   9.692   7.589   6.336
   92POPC   NC3 1466   7.902   1.813   7.896
   92POPC   PO4 1467   7.638   2.418   7.984
   92POPC   GL1 1468   7.989   2.390   7.655
   92POPC   GL2 1469   8.362   2.243   7.585
   92POPC   C1A 1470   7.991   2.216   7.231
   92POPC   D2A 1471   7.761   1.985   6.937
   92POPC   C3A 1472   7.726   2.225   6.564
   92POPC   C4A 1473   7.682   2.023   6.176
   92POPC   C1B 1474   8.476   2.042   7.163
   92POPC   C2B 1475   8.245   1.742   6.869
   92POPC   C3B 1476   8.009   1.787   6.507
   92POPC   C4B 1477   8.194   2.141   6.358
   93POPC   NC3 1478   1.263   8.039   8.131
   93POPC   PO4 1479   0.707   8.493   8.121
   93POPC   GL1 1480   0.911   8.221   7.751
   93POPC   GL2 1481   1.031   7.848   7.718
   93POPC   C1A 1482   1.009   8.106   7.288
   93POPC   D2A 1483   0.875   8.050   6.861
   93POPC   C3A 1484   1.046   8.323   6.568
   93POPC   C4A 1485   1.338   8.260   6.273
   93POPC   C1B 1486   1.413   7.806   7.436
   93POPC   C2B 1487   1.412   7.744   6.981
   93POPC   C3B 1488   1.356   7.797   6.528
   93POPC   C4B 1489   1.634   7.846   6.155
   94POPC   NC3 1490   0.791   2.113   8.185
   94POPC   PO4 1491   1.380   1.798   8.233
   94POPC   GL1 1492   1.127   1.884   7.846
   94POPC   GL2 1493   1.153   2.258   7.819
   94POPC   C1A 1494   1.082   1.814   7.359
   94POPC   D2A 1495   0.955   1.710   6.895
   94POPC   C3A 1496   1.182   1.816   6.476
   94POPC   C4A 1497   1.054   1.939   6.025
   94POPC   C1B 1498   1.176   2.330   7.369
   94POPC   C2B 1499   1.146   2.187   6.935
   94POPC   C3B 1500   1.079   2.302   6.504
   94POPC   C4B 1501   1.397   2.267   6.180
   95POPC   NC3 1502   8.294   3.868   8.116
   95POPC   PO4 1503   8.076   3.219   8.117
   95POPC   GL1 1504   7.992   3.522   7.804
   95POPC   GL2 1505   8.349   3.526   7.742
   95POPC   C1A 1506   8.029   3.690   7.372
   95POPC   D2A 1507   7.788   3.603   6.998
   95POPC   C3A 1508   8.010   3.573   6.626
   95POPC   C4A 1509   8.033   3.602   6.198
   95POPC   C1B 1510   8.526   3.517   7.347
   95POPC   C2B 1511   8.400   3.466   6.942
   95POPC   C3B 1512   8.478   3.325   6.543
   95POPC   C4B 1513   8.434   3.334   6.115
   96POPC   NC3 1514   8.210   8.878   8.170
   96POPC   PO4 1515   7.908   8.263   7.914
   96POPC   GL1 1516   7.965   8.574   7.584
   96POPC   GL2 1517   8.012   8.913   7.702
   96POPC   C1A 1518   7.796   8.601   7.176
   96POPC   D2A 1519   7.930   8.352   6.838
   96POPC   C3A 1520   7.960   8.525   6.431
   96POPC   C4A 1521   7.651   8.664   6.124
   96POPC   C1B 1522   8.173   8.958   7.295
   96POPC   C2B 1523   8.230   8.762   6.892
   96POPC   C3B 1524   8.223   9.017   6.543
   96POPC   C4B 1525   8.044   8.962   6.170
   97POPC   NC3 1526   3.428   8.186   8.290
   97POPC   PO4 1527   3.341   7.566   8.391
   97POPC   GL1 1528   3.634   7.852   7.979
   97POPC   GL2 1529   3.529   8.207   7.805
   97POPC   C1A 1530   3.853   7.909   7.565
   97POPC   D2A 1531   3.720   8.008   7.141
   97POPC   C3A 1532   3.804   8.101   6.713
   97POPC   C4A 1533   3.569   8.094   6.354
   97POPC   C1B 1534   3.342   8.001   7.449
   97POPC   C2B 1535   3.214   8.044   7.017
   97POPC   C3B 1536   3.256   8.297   6.666
   97POPC   C4B 1537   3.226   8.464   6.232
   98POPC   NC3 1538   2.310   9.643   8.063
   98POPC   PO4 1539   2.935   9.955   8.157
   98POPC   GL1 1540   2.949   9.589   7.818
   98POPC   GL2 1541   2.614   9.506   7.675
   98POPC   C1A 1542   3.108   9.599   7.377
   98POPC   D2A 1543   2.829   9.643   6.991
   98POPC   C3A 1544   2.819   9.847   6.584
   98POPC   C4A 1545   2.489   9.980   6.289
   98POPC   C1B 1546   2.745   9.232   7.340
   98POPC   C2B 1547   2.936   9.148   6.938
   98POPC   C3B 1548   2.916   9.341   6.540
   98POPC   C4B 1549   2.564   9.473   6.288
   99POPC   NC3 1550   3.271   9.628   8.207
   99POPC   PO4 1551   3.954   9.375   8.148
   99POPC   GL1 1552   3.730   9.673   7.904
   99POPC   GL2 1553   3.480   9.465   7.766
   99POPC   C1A 1554   3.593   9.929   7.512
   99POPC   D2A 1555   3.409   9.959   7.079
   99POPC   C3A 1556   3.683   0.047   6.701
   99POPC   C4A 1557   3.634   0.211   6.293
   99POPC   C1B 1558   3.632   9.424   7.358
   99POPC   C2B 1559   3.394   9.449   6.972
   99POPC   C3B 1560   3.304   9.686   6.616
   99POPC   C4B 1561   3.522   9.738   6.241
  100POPC   NC3 1562   8.882   4.455   8.086
  100POPC   PO4 1563   9.460   4.540   8.397
  100POPC   GL1 1564   9.319   4.237   7.921
  100POPC   GL2 1565   8.986   4.243   7.658
  100POPC   C1A 1566   9.402   4.231   7.403
  100POPC   D2A 1567   9.247   4.086   6.980
  100POPC   C3A 1568   9.114   4.291   6.597
  100POPC   C4A 1569   9.150   4.351   6.148
  100POPC   C1B 1570   8.722   4.018   7.365
  100POPC   C2B 1571   8.817   3.789   7.021
  100POPC   C3B 1572   8.668   3.801   6.641
  100POPC   C4B 1573   8.768   4.047   6.304
  101POPC   NC3 1574   7.548   1.514   8.221
  101POPC   PO4 1575   7.157   2.010   8.375
  101POPC   GL1 1576   7.276   1.883   7.918
  101POPC   GL2 1577   7.245   2.210   7.719
  101POPC   C1A 1578   7.293   1.795   7.422
  101POPC   D2A 1579   7.192   1.754   6.948
  101POPC   C3A 1580   7.482   1.718   6.565
  101POPC   C4A 1581   7.301   1.642   6.152
  101POPC   C1B 1582   7.481   2.283   7.311
  101POPC   C2B 1583   7.323   2.260   6.883
  101POPC   C3B 1584   7.232   2.152   6.457
  101POPC   C4B 1585   7.374   2.428   6.151
  102POPC   NC3 1586   1.148   0.610   8.135
  102POPC   PO4 1587   0.956   0.021   8.081
  102POPC   GL1 1588   1.088   0.266   7.737
  102POPC   GL2 1589   0.907   0.577   7.679
  102POPC   C1A 1590   1.235   0.347   7.317
  102POPC   D2A 1591   1.123   0.407   6.892
  102POPC   C3A 1592   1.392   0.287   6.566
  102POPC   C4A 1593   1.332   0.109   6.165
  102POPC   C1B 1594   0.808   0.877   7.354
  102POPC   C2B 1595   0.752   0.740   6.942
  102POPC   C3B 1596   0.963   0.823   6.604
  102POPC   C4B 1597   0.885   0.862   6.197
  103POPC   NC3 1598   1.789   2.066   8.232
  103POPC   PO4 1599   2.285   1.632   8.165
  103POPC   GL1 1600   2.328   1.925   7.774
  103POPC   GL2 1601   2.092   2.212   7.767
  103POPC   C1A 1602   2.243   2.036   7.319
  103POPC   D2A 1603   2.043   1.946   6.919
  103POPC   C3A 1604   2.261   2.080   6.569
  103POPC   C4A 1605   2.366   1.894   6.206
  103POPC   C1B 1606   1.701   2.255   7.519
  103POPC   C2B 1607   1.639   2.295   7.065
  103POPC   C3B 1608   1.621   2.153   6.624
  103POPC   C4B 1609   1.866   2.062   6.217
  104POPC   NC3 1610   7.772   8.028   8.295
  104POPC   PO4 1611   7.218   8.464   8.164
  104POPC   GL1 1612   7.322   8.145   7.826
  104POPC   GL2 1613   7.517   8.319   7.555
  104POPC   C1A 1614   7.336   7.864   7.434
  104POPC   D2A 1615   7.542   8.074   7.058
  104POPC   C3A 1616   7.426   7.961   6.593
  104POPC   C4A 1617   7.244   7.839   6.185
  104POPC   C1B 1618   7.111   8.310   7.351
  104POPC   C2B 1619   7.111   8.269   6.906
  104POPC   C3B 1620   7.459   8.461   6.630
  104POPC   C4B 1621   7.196   8.350   6.302
  105POPC   NC3 1622   3.015   7.279   8.211
  105POPC   PO4 1623   3.130   7.935   8.038
  105POPC   GL1 1624   2.818   7.610   7.781
  105POPC   GL2 1625   2.708   7.261   7.796
  105POPC   C1A 1626   2.588   7.534   7.370
  105POPC   D2A 1627   2.403   7.536   6.965
  105POPC   C3A 1628   2.667   7.590   6.611
  105POPC   C4A 1629   2.530   7.577   6.210
  105POPC   C1B 1630   2.822   7.073   7.412
  105POPC   C2B 1631   2.698   7.107   6.984
  105POPC   C3B 1632   2.809   7.108   6.557
  105POPC   C4B 1633   2.997   7.326   6.235
  106POPC   NC3 1634   3.154   5.422   7.983
  106POPC   PO4 1635   2.857   5.911   8.000
  106POPC   GL1 1636   2.668   5.962   7.606
  106POPC   GL2 1637   2.450   6.201   7.514
  106POPC   C1A 1638   2.478   5.732   7.237
  106POPC   D2A 1639   2.504   5.594   6.780
  106POPC   C3A 1640   2.739   5.655   6.374
  106POPC   C4A 1641   2.998   5.615   6.021
  106POPC   C1B 1642   2.744   6.190   7.164
  106POPC   C2B 1643   2.786   6.039   6.735
  106POPC   C3B 1644   2.533   6.109   6.378
  106POPC   C4B 1645   2.599   5.971   5.933
  107POPC   NC3 1646   0.519   4.508   8.099
  107POPC   PO4 1647   0.216   3.921   8.176
  107POPC   GL1 1648   0.512   4.063   7.839
  107POPC   GL2 1649   0.312   4.267   7.667
  107POPC   C1A 1650   0.666   4.044   7.379
  107POPC   D2A 1651   0.819   3.881   7.015
  107POPC   C3A 1652   0.659   4.007   6.632
  107POPC   C4A 1653   0.415   4.013   6.259
  107POPC   C1B 1654   0.352   4.431   7.268
  107POPC   C2B 1655   0.420   4.419   6.848
  107POPC   C3B 1656   0.348   4.603   6.469
  107POPC   C4B 1657   0.038   4.601   6.156
  108POPC   NC3 1658   7.126   7.276   8.163
  108POPC   PO4 1659   7.766   7.562   8.167
  108POPC   GL1 1660   7.687   7.637   7.742
  108POPC   GL2 1661   7.581   7.331   7.687
  108POPC   C1A 1662   7.773   7.628   7.291
  108POPC   D2A 1663   7.468   7.583   6.923
  108POPC   C3A 1664   7.567   7.463   6.472
  108POPC   C4A 1665   7.655   7.505   6.013
  108POPC   C1B 1666   7.496   7.213   7.280
  108POPC   C2B 1667   7.479   7.079   6.858
  108POPC   C3B 1668   7.268   6.994   6.491
  108POPC   C4B 1669   7.134   7.134   6.109
  109POPC   NC3 1670   6.578   9.595   8.286
  109POPC   PO4 1671   6.219   9.864   7.807
  109POPC   GL1 1672   6.572   9.921   7.556
  109POPC   GL2 1673   6.702   9.629   7.741
  109POPC   C1A 1674   6.532   9.946   7.101
  109POPC   D2A 1675   6.606   0.088   6.708
  109POPC   C3A 1676   6.411   9.859   6.416
  109POPC   C4A 1677   6.284   9.847   5.991
  109POPC   C1B 1678   6.642   9.497   7.292
  109POPC   C2B 1679   6.811   9.600   6.850
  109POPC   C3B 1680   6.791   9.522   6.394
  109POPC   C4B 1681   6.422   9.390   6.183
  110POPC   NC3 1682   3.859   2.991   7.998
  110POPC   PO4 1683   4.413   2.723   8.219
  110POPC   GL1 1684   4.270   2.658   7.789
  110POPC   GL2 1685   3.985   2.501   7.666
  110POPC   C1A 1686   4.377   2.487   7.346
  110POPC   D2A 1687   4.372   2.268   6.925
  110POPC   C3A 1688   4.388   2.531   6.508
  110POPC   C4A 1689   4.665   2.799   6.194
  110POPC   C1B 1690   3.862   2.575   7.207
  110POPC   C2B 1691   3.787   2.625   6.724
  110POPC   C3B 1692   3.947   2.829   6.317
  110POPC   C4B 1693   4.084   3.209   6.032
  111POPC   NC3 1694   1.580   9.638   8.116
  111POPC   PO4 1695   2.189   9.201   8.113
  111POPC   GL1 1696   1.912   9.444   7.774
  111POPC   GL2 1697   2.090   9.750   7.616
  111POPC   C1A 1698   1.719   9.574   7.338
  111POPC   D2A 1699   1.850   9.797   6.922
  111POPC   C3A 1700   1.619   9.833   6.499
  111POPC   C4A 1701   1.715   9.817   6.007
  111POPC   C1B 1702   2.334   9.767   7.216
  111POPC   C2B 1703   2.336   9.795   6.754
  111POPC   C3B 1704   2.087   9.703   6.369
  111POPC   C4B 1705   2.158   9.513   5.964
  112POPC   NC3 1706   9.518   8.182   8.268
  112POPC   PO4 1707   0.053   7.753   8.280
  112POPC   GL1 1708   9.941   8.016   7.894
  112POPC   GL2 1709   9.597   8.035   7.810
  112POPC   C1A 1710   9.901   8.281   7.490
  112POPC   D2A 1711   9.910   8.132   7.055
  112POPC   C3A 1712   9.906   8.382   6.657
  112POPC   C4A 1713   9.891   8.218   6.224
  112POPC   C1B 1714   9.345   8.118   7.457
  112POPC   C2B 1715   9.377   8.190   7.024
  112POPC   C3B 1716   9.510   8.060   6.607
  112POPC   C4B 1717   9.348   8.149   6.194
  113POPC   NC3 1718   0.040   9.686   7.961
  113POPC   PO4 1719   0.446   0.032   8.370
  113POPC   GL1 1720   0.474   9.931   7.834
  113POPC   GL2 1721   0.485   9.602   7.688
  113POPC   C1A 1722   0.755   9.972   7.446
  113POPC   D2A 1723   0.873   9.671   7.112
  113POPC   C3A 1724   0.644   9.620   6.705
  113POPC   C4A 1725   0.476   9.552   6.286
  113POPC   C1B 1726   0.175   9.576   7.346
  113POPC   C2B 1727   0.204   9.730   6.929
  113POPC   C3B 1728   0.045   9.500   6.596
  113POPC   C4B 1729   0.083   9.223   6.227
  114POPC   NC3 1730   3.652   8.991   8.156
  114POPC   PO4 1731   3.139   8.542   8.315
  114POPC   GL1 1732   3.281   8.666   7.880
  114POPC   GL2 1733   3.421   8.956   7.711
  114POPC   C1A 1734   3.382   8.534   7.427
  114POPC   D2A 1735   3.589   8.474   7.006
  114POPC   C3A 1736   3.630   8.632   6.538
  114POPC   C4A 1737   3.512   8.856   6.144
  114POPC   C1B 1738   3.266   9.080   7.328
  114POPC   C2B 1739   3.400   8.939   6.921
  114POPC   C3B 1740   3.399   9.153   6.533
  114POPC   C4B 1741   3.745   9.298   6.276
  115POPC   NC3 1742   3.403   2.686   8.339
  115POPC   PO4 1743   3.470   3.267   8.062
  115POPC   GL1 1744   3.273   2.866   7.839
  115POPC   GL2 1745   3.518   2.713   7.603
  115POPC   C1A 1746   3.045   2.730   7.416
  115POPC   D2A 1747   2.844   2.596   7.003
  115POPC   C3A 1748   3.024   2.591   6.578
  115POPC   C4A 1749   2.963   2.545   6.125
  115POPC   C1B 1750   3.448   2.903   7.149
  115POPC   C2B 1751   3.370   2.963   6.671
  115POPC   C3B 1752   3.523   3.128   6.232
  115POPC   C4B 1753   3.723   2.897   5.847
  116POPC   NC3 1754   3.224   3.651   8.101
  116POPC   PO4 1755   2.700   4.091   8.057
  116POPC   GL1 1756   2.817   3.693   7.793
  116POPC   GL2 1757   2.778   3.332   7.879
  116POPC   C1A 1758   2.946   3.376   7.419
  116POPC   D2A 1759   2.960   3.127   7.030
  116POPC   C3A 1760   2.948   3.421   6.631
  116POPC   C4A 1761   3.053   3.529   6.167
  116POPC   C1B 1762   2.448   3.460   7.543
  116POPC   C2B 1763   2.500   3.410   7.096
  116POPC   C3B 1764   2.393   3.459   6.652
  116POPC   C4B 1765   2.512   3.325   6.241
  117POPC   NC3 1766   5.692   1.980   8.148
  117POPC   PO4 1767   6.265   1.548   8.155
  117POPC   GL1 1768   5.917   1.616   7.840
  117POPC   GL2 1769   6.006   1.969   7.739
  117POPC   C1A 1770   5.749   1.693   7.378
  117POPC   D2A 1771   5.806   1.864   6.934
  117POPC   C3A 1772   5.722   1.717   6.515
  117POPC   C4A 1773   5.808   1.710   6.050
  117POPC   C1B 1774   5.951   2.173   7.328
  117POPC   C2B 1775   5.895   2.357   6.901
  117POPC   C3B 1776   5.923   2.210   6.494
  117POPC   C4B 1777   5.593   2.125   6.219
  118POPC   NC3 1778   2.702   2.821   8.297
  118POPC   PO4 1779   2.148   2.408   8.224
  118POPC   GL1 1780   2.540   2.440   7.906
  118POPC   GL2 1781   2.712   2.760   7.803
  118POPC   C1A 1782   2.542   2.450   7.415
  118POPC   D2A 1783   2.322   2.410   6.971
  118POPC   C3A 1784   2.497   2.540   6.563
  118POPC   C4A 1785   2.549   2.816   6.176
  118POPC   C1B 1786   2.587   2.972   7.425
  118POPC   C2B 1787   2.447   2.908   7.005
  118POPC   C3B 1788   2.685   2.997   6.630
  118POPC   C4B 1789   3.002   3.032   6.298
  119POPC   NC3 1790   2.737   1.100   8.057
  119POPC   PO4 1791   3.110   1.662   8.076
  119POPC   GL1 1792   2.899   1.444   7.714
  119POPC   GL2 1793   2.503   1.405   7.717
  119POPC   C1A 1794   2.956   1.371   7.261
  119POPC   D2A 1795   2.957   1.538   6.859
  119POPC   C3A 1796   2.907   1.258   6.506
  119POPC   C4A 1797   2.857   0.859   6.311
  119POPC   C1B 1798   2.591   1.063   7.410
  119POPC   C2B 1799   2.582   1.145   6.933
  119POPC   C3B 1800   2.405   1.109   6.496
  119POPC   C4B 1801   2.393   1.381   6.150
  120POPC   NC3 1802   1.524   5.647   8.191
  120POPC   PO4 1803   1.238   6.215   8.167
  120POPC   GL1 1804   1.301   6.174   7.738
  120POPC   GL2 1805   1.352   5.817   7.702
  120POPC   C1A 1806   1.137   6.258   7.331
  120POPC   D2A 1807   1.247   6.083   6.908
  120POPC   C3A 1808   1.195   6.231   6.512
  120POPC   C4A 1809   1.360   6.119   6.106
  120POPC   C1B 1810   1.200   5.766   7.298
  120POPC   C2B 1811   1.220   5.569   6.878
  120POPC   C3B 1812   1.320   5.722   6.499
  120POPC   C4B 1813   0.972   5.816   6.274
  121POPC   NC3 1814   4.519   7.343   8.202
  121POPC   PO4 1815   5.138   7.509   8.082
  121POPC   GL1 1816   4.891   7.767   7.793
  121POPC   GL2 1817   4.569   7.607   7.767
  121POPC   C1A 1818   4.737   7.833   7.340
  121POPC   D2A 1819   4.611   7.640   6.913
  121POPC   C3A 1820   4.654   7.564   6.439
  121POPC   C4A 1821   4.714   7.434   5.965
  121POPC   C1B 1822   4.263   7.651   7.413
  121POPC   C2B 1823   4.158   7.833   6.998
  121POPC   C3B 1824   4.008   7.645   6.582
  121POPC   C4B 1825   3.876   7.235   6.389
  122POPC   NC3 1826   1.666   6.365   8.047
  122POPC   PO4 1827   2.257   6.032   7.988
  122POPC   GL1 1828   2.082   6.415   7.770
  122POPC   GL2 1829   2.013   6.793   7.743
  122POPC   C1A 1830   2.063   6.491   7.339
  122POPC   D2A 1831   2.043   6.594   6.900
  122POPC   C3A 1832   2.087   6.383   6.468
  122POPC   C4A 1833   2.309   6.429   6.059
  122POPC   C1B 1834   1.839   6.941   7.311
  122POPC   C2B 1835   1.684   6.940   6.871
  122POPC   C3B 1836   1.911   6.885   6.466
  122POPC   C4B 1837   1.904   6.773   5.994
  123POPC   NC3 1838   4.406   8.336   8.207
  123POPC   PO4 1839   4.203   7.680   8.214
  123POPC   GL1 1840   4.263   7.998   7.855
  123POPC   GL2 1841   4.048   8.283   7.845
  123POPC   C1A 1842   4.354   8.157   7.420
  123POPC   D2A 1843   4.575   8.172   6.970
  123POPC   C3A 1844   4.398   7.998   6.568
  123POPC   C4A 1845   4.470   7.942   6.116
  123POPC   C1B 1846   3.896   8.406   7.436
  123POPC   C2B 1847   4.096   8.373   7.047
  123POPC   C3B 1848   4.228   8.471   6.654
  123POPC   C4B 1849   4.049   8.331   6.311
  124POPC   NC3 1850   0.621   0.339   8.059
  124POPC   PO4 1851   9.983   0.128   8.054
  124POPC   GL1 1852   0.182   0.335   7.712
  124POPC   GL2 1853   0.390   0.666   7.710
  124POPC   C1A 1854   0.267   0.075   7.344
  124POPC   D2A 1855   0.577   0.118   6.974
  124POPC   C3A 1856   0.411   0.075   6.559
  124POPC   C4A 1857   0.034   9.948   6.342
  124POPC   C1B 1858   0.462   0.527   7.297
  124POPC   C2B 1859   0.276   0.614   6.877
  124POPC   C3B 1860   0.480   0.600   6.478
  124POPC   C4B 1861   0.872   0.370   6.385
  125POPC   NC3 1862   5.943   1.207   8.205
  125POPC   PO4 1863   5.400   0.743   8.154
  125POPC   GL1 1864   5.521   1.044   7.811
  125POPC   GL2 1865   5.874   1.092   7.730
  125POPC   C1A 1866   5.595   1.205   7.347
  125POPC   D2A 1867   5.677   1.348   6.921
  125POPC   C3A 1868   5.550   1.015   6.647
  125POPC   C4A 1869   5.508   0.855   6.234
  125POPC   C1B 1870   6.140   1.341   7.444
  125POPC   C2B 1871   6.164   1.538   7.033
  125POPC   C3B 1872   6.146   1.420   6.591
  125POPC   C4B 1873   5.838   1.258   6.287
  126POPC   NC3 1874   4.292   0.787   8.200
  126POPC   PO4 1875   3.838   0.259   8.425
  126POPC   GL1 1876   4.082   0.237   7.985
  126POPC   GL2 1877   4.342   0.451   7.823
  126POPC   C1A 1878   4.059   0.190   7.503
  126POPC   D2A 1879   3.808   0.296   7.140
  126POPC   C3A 1880   4.086   0.445   6.815
  126POPC   C4A 1881   4.115   0.374   6.375
  126POPC   C1B 1882   4.451   0.542   7.369
  126POPC   C2B 1883   4.613   0.483   6.947
  126POPC   C3B 1884   4.593   0.280   6.563
  126POPC   C4B 1885   4.625   0.584   6.282
  127POPC   NC3 1886   9.750   4.948   8.021
  127POPC   PO4 1887   0.374   4.898   8.320
  127POPC   GL1 1888   0.203   5.134   7.859
  127POPC   GL2 1889   9.905   5.378   7.811
  127POPC   C1A 1890   0.005   4.990   7.426
  127POPC   D2A 1891   0.118   4.825   7.031
  127POPC   C3A 1892   9.904   4.853   6.649
  127POPC   C4A 1893   9.685   5.059   6.322
  127POPC   C1B 1894   9.578   5.254   7.466
  127POPC   C2B 1895   9.631   5.112   7.042
  127POPC   C3B 1896   9.351   5.122   6.704
  127POPC   C4B 1897   9.202   5.345   6.356
  128POPC   NC3 1898   9.721   9.923   8.376
  128POPC   PO4 1899   9.369   9.349   8.184
  128POPC   GL1 1900   9.579   9.500   7.845
  128POPC   GL2 1901   9.829   9.220   7.838
  128POPC   C1A 1902   9.675   9.741   7.444
  128POPC   D2A 1903   9.719   9.638   7.024
  128POPC   C3A 1904   9.634   9.907   6.675
  128POPC   C4A 1905   9.308   9.800   6.386
  128POPC   C1B 1906   9.562   9.136   7.468
  128POPC   C2B 1907   9.458   9.176   7.023
  128POPC   C3B 1908   9.516   9.393   6.624
  128POPC   C4B 1909   9.704   9.558   6.224
  129POPC   NC3 1910   2.667   8.003   8.033
  129POPC   PO4 1911   2.364   8.516   8.338
  129POPC   GL1 1912   2.705   8.520   7.832
  129POPC   GL2 1913   2.969   8.292   7.704
  129POPC   C1A 1914   2.611   8.386   7.292
  129POPC   D2A 1915   2.275   8.381   6.924
  129POPC   C3A 1916   2.382   8.489   6.463
  129POPC   C4A 1917   2.714   8.556   6.177
  129POPC   C1B 1918   2.844   7.960   7.396
  129POPC   C2B 1919   2.697   7.971   6.985
  129POPC   C3B 1920   2.760   8.287   6.721
  129POPC   C4B 1921   2.897   8.103   6.353
  130POPC   NC3 1922   9.040   9.699   7.963
  130POPC   PO4 1923   8.536   9.281   8.255
  130POPC   GL1 1924   8.757   9.280   7.850
  130POPC   GL2 1925   9.123   9.256   7.751
  130POPC   C1A 1926   8.738   9.322   7.396
  130POPC   D2A 1927   8.949   9.294   6.994
  130POPC   C3A 1928   8.682   9.249   6.625
  130POPC   C4A 1929   8.431   9.548   6.412
  130POPC   C1B 1930   9.231   9.515   7.361
  130POPC   C2B 1931   9.192   9.772   6.963
  130POPC   C3B 1932   8.872   9.742   6.626
  130POPC   C4B 1933   8.914   9.502   6.215
  131POPC   NC3 1934   8.756   2.846   8.125
  131POPC   PO4 1935   9.260   2.325   7.898
  131POPC   GL1 1936   9.079   2.500   7.540
  131POPC   GL2 1937   8.883   2.777   7.640
  131POPC   C1A 1938   8.763   2.525   7.215
  131POPC   D2A 1939   8.956   2.773   6.903
  131POPC   C3A 1940   9.038   2.593   6.515
  131POPC   C4A 1941   9.407   2.394   6.332
  131POPC   C1B 1942   8.617   3.010   7.360
  131POPC   C2B 1943   8.497   2.971   6.960
  131POPC   C3B 1944   8.550   2.828   6.577
  131POPC   C4B 1945   8.551   2.495   6.316
  132POPC   NC3 1946   2.739   8.763   8.265
  132POPC   PO4 1947   3.214   9.190   8.110
  132POPC   GL1 1948   2.916   9.043   7.794
  132POPC   GL2 1949   2.551   9.007   7.793
  132POPC   C1A 1950   2.914   8.757   7.443
  132POPC   D2A 1951   3.046   8.570   7.045
  132POPC   C3A 1952   3.031   8.756   6.611
  132POPC   C4A 1953   3.015   8.965   6.197
  132POPC   C1B 1954   2.416   8.831   7.367
  132POPC   C2B 1955   2.576   8.788   6.930
  132POPC   C3B 1956   2.580   8.957   6.506
  132POPC   C4B 1957   2.471   9.008   6.065
  133POPC   NC3 1958   2.811   0.405   8.161
  133POPC   PO4 1959   2.323   0.851   8.079
  133POPC   GL1 1960   2.448   0.582   7.802
  133POPC   GL2 1961   2.800   0.651   7.695
  133POPC   C1A 1962   2.398   0.557   7.385
  133POPC   D2A 1963   2.715   0.683   7.100
  133POPC   C3A 1964   2.585   0.683   6.703
  133POPC   C4A 1965   2.357   0.572   6.335
  133POPC   C1B 1966   2.833   0.274   7.376
  133POPC   C2B 1967   2.703   0.217   6.895
  133POPC   C3B 1968   2.798   0.337   6.400
  133POPC   C4B 1969   2.974   0.174   5.972
  134POPC   NC3 1970   5.814   3.073   8.293
  134POPC   PO4 1971   5.813   2.438   8.091
  134POPC   GL1 1972   5.809   2.793   7.775
  134POPC   GL2 1973   6.060   2.616   7.548
  134POPC   C1A 1974   5.891   3.062   7.405
  134POPC   D2A 1975   5.877   2.920   6.980
  134POPC   C3A 1976   6.187   2.986   6.709
  134POPC   C4A 1977   6.165   2.845   6.310
  134POPC   C1B 1978   5.658   2.591   7.303
  134POPC   C2B 1979   5.454   2.609   6.870
  134POPC   C3B 1980   5.317   2.531   6.416
  134POPC   C4B 1981   5.266   2.769   6.011
  135POPC   NC3 1982   8.626   5.420   8.026
  135POPC   PO4 1983   7.973   5.317   8.088
  135POPC   GL1 1984   8.277   5.250   7.709
  135POPC   GL2 1985   8.328   4.898   7.631
  135POPC   C1A 1986   8.188   5.176   7.237
  135POPC   D2A 1987   8.065   4.933   6.863
  135POPC   C3A 1988   8.345   4.870   6.513
  135POPC   C4A 1989   8.421   5.078   6.156
  135POPC   C1B 1990   8.118   4.651   7.335
  135POPC   C2B 1991   8.193   4.441   6.948
  135POPC   C3B 1992   8.033   4.476   6.544
  135POPC   C4B 1993   7.892   4.595   6.114
  136POPC   NC3 1994   6.824   8.221   8.040
  136POPC   PO4 1995   6.730   7.597   8.060
  136POPC   GL1 1996   6.842   7.865   7.658
  136POPC   GL2 1997   6.618   8.172   7.569
  136POPC   C1A 1998   6.823   7.905   7.191
  136POPC   D2A 1999   6.698   7.713   6.801
  136POPC   C3A 2000   6.760   7.930   6.409
  136POPC   C4A 2001   6.484   7.954   6.031
  136POPC   C1B 2002   6.256   8.070   7.251
  136POPC   C2B 2003   6.040   8.188   6.838
  136POPC   C3B 2004   6.196   8.267   6.419
  136POPC   C4B 2005   6.627   8.415   6.440
  137POPC   NC3 2006   8.884   0.413   8.133
  137POPC   PO4 2007   9.418   9.973   8.028
  137POPC   GL1 2008   9.156   0.215   7.706
  137POPC   GL2 2009   8.800   0.355   7.643
  137POPC   C1A 2010   9.263   0.261   7.255
  137POPC   D2A 2011   9.067   0.424   6.872
  137POPC   C3A 2012   9.071   0.242   6.457
  137POPC   C4A 2013   9.226   0.117   6.021
  137POPC   C1B 2014   8.758   0.191   7.228
  137POPC   C2B 2015   8.557   0.415   6.892
  137POPC   C3B 2016   8.622   0.522   6.476
  137POPC   C4B 2017   8.743   0.459   6.044
  138POPC   NC3 2018   5.540   7.317   8.143
  138POPC   PO4 2019   6.103   7.204   8.347
  138POPC   GL1 2020   5.912   7.402   7.836
  138POPC   GL2 2021   6.028   7.720   7.778
  138POPC   C1A 2022   6.106   7.506   7.345
  138POPC   D2A 2023   6.020   7.694   6.938
  138POPC   C3A 2024   5.925   7.382   6.606
  138POPC   C4A 2025   6.141   7.147   6.262
  138POPC   C1B 2026   5.625   7.602   7.474
  138POPC   C2B 2027   5.544   7.519   6.997
  138POPC   C3B 2028   5.382   7.609   6.531
  138POPC   C4B 2029   5.348   7.424   6.092
  139POPC   NC3 2030   0.402   3.545   8.418
  139POPC   PO4 2031   0.990   3.667   8.118
  139POPC   GL1 2032   0.853   3.428   7.769
  139POPC   GL2 2033   0.599   3.619   7.621
  139POPC   C1A 2034   0.711   3.198   7.407
  139POPC   D2A 2035   0.508   3.467   7.094
  139POPC   C3A 2036   0.732   3.476   6.713
  139POPC   C4A 2037   0.647   3.552   6.299
  139POPC   C1B 2038   0.229   3.805   7.375
  139POPC   C2B 2039   0.253   3.950   6.973
  139POPC   C3B 2040   0.248   3.676   6.632
  139POPC   C4B 2041   0.171   3.374   6.299
  140POPC   NC3 2042   8.738   8.288   8.279
  140POPC   PO4 2043   9.255   7.756   8.239
  140POPC   GL1 2044   9.076   7.878   7.837
  140POPC   GL2 2045   9.095   8.237   7.899
  140POPC   C1A 2046   8.834   7.939   7.413
  140POPC   D2A 2047   8.925   7.881   6.957
  140POPC   C3A 2048   8.747   7.926   6.541
  140POPC   C4A 2049   8.854   7.971   6.102
  140POPC   C1B 2050   8.895   8.435   7.537
  140POPC   C2B 2051   8.865   8.374   7.086
  140POPC   C3B 2052   9.045   8.339   6.655
  140POPC   C4B 2053   8.908   8.446   6.243
  141POPC   NC3 2054   6.891   3.406   8.050
  141POPC   PO4 2055   6.230   3.129   8.120
  141POPC   GL1 2056   6.354   3.028   7.675
  141POPC   GL2 2057   6.591   3.288   7.640
  141POPC   C1A 2058   6.373   3.096   7.196
  141POPC   D2A 2059   6.573   3.307   6.807
  141POPC   C3A 2060   6.353   3.370   6.395
  141POPC   C4A 2061   6.199   3.211   5.992
  141POPC   C1B 2062   6.712   3.508   7.275
  141POPC   C2B 2063   6.869   3.703   6.893
  141POPC   C3B 2064   6.790   3.686   6.426
  141POPC   C4B 2065   6.556   3.806   6.018
  142POPC   NC3 2066   1.450   3.760   8.265
  142POPC   PO4 2067   1.507   3.090   8.166
  142POPC   GL1 2068   1.362   3.310   7.788
  142POPC   GL2 2069   1.364   3.671   7.749
  142POPC   C1A 2070   1.213   3.131   7.398
  142POPC   D2A 2071   1.018   3.150   6.986
  142POPC   C3A 2072   1.202   3.224   6.583
  142POPC   C4A 2073   0.980   3.173   6.202
  142POPC   C1B 2074   1.125   3.623   7.355
  142POPC   C2B 2075   1.262   3.630   6.907
  142POPC   C3B 2076   1.121   3.729   6.481
  142POPC   C4B 2077   0.907   3.971   6.181
  143POPC   NC3 2078   8.789   1.251   8.064
  143POPC   PO4 2079   8.473   0.674   8.078
  143POPC   GL1 2080   8.653   0.881   7.715
  143POPC   GL2 2081   9.001   0.829   7.764
  143POPC   C1A 2082   8.722   1.166   7.348
  143POPC   D2A 2083   8.672   1.494   7.042
  143POPC   C3A 2084   8.665   1.319   6.618
  143POPC   C4A 2085   8.718   1.332   6.145
  143POPC   C1B 2086   8.963   0.710   7.302
  143POPC   C2B 2087   8.812   0.878   6.878
  143POPC   C3B 2088   8.916   0.926   6.419
  143POPC   C4B 2089   9.275   1.105   6.218
  144POPC   NC3 2090   1.911   3.806   3.758
  144POPC   PO4 2091   1.967   3.088   3.877
  144POPC   GL1 2092   2.002   3.435   4.148
  144POPC   GL2 2093   1.662   3.583   4.157
  144POPC   C1A 2094   2.262   3.461   4.532
  144POPC   D2A 2095   2.448   3.499   4.951
  144POPC   C3A 2096   2.326   3.310   5.351
  144POPC   C4A 2097   2.224   3.409   5.819
  144POPC   C1B 2098   1.791   3.628   4.610
  144POPC   C2B 2099   1.931   3.435   5.003
  144POPC   C3B 2100   1.875   3.512   5.466
  144POPC   C4B 2101   1.797   3.726   5.897
  145POPC   NC3 2102   2.551   2.080   4.023
  145POPC   PO4 2103   2.516   1.484   3.742
  145POPC   GL1 2104   2.418   1.570   4.184
  145POPC   GL2 2105   2.737   1.736   4.331
  145POPC   C1A 2106   2.362   1.718   4.634
  145POPC   D2A 2107   2.724   1.627   4.916
  145POPC   C3A 2108   2.683   1.584   5.361
  145POPC   C4A 2109   2.554   1.671   5.769
  145POPC   C1B 2110   2.961   1.989   4.641
  145POPC   C2B 2111   3.094   2.014   5.079
  145POPC   C3B 2112   2.978   1.974   5.507
  145POPC   C4B 2113   3.086   1.720   5.825
  146POPC   NC3 2114   7.317   7.032   3.841
  146POPC   PO4 2115   7.666   6.615   4.039
  146POPC   GL1 2116   7.397   6.713   4.367
  146POPC   GL2 2117   7.091   6.922   4.292
  146POPC   C1A 2118   7.455   6.646   4.828
  146POPC   D2A 2119   7.563   6.871   5.214
  146POPC   C3A 2120   7.493   6.609   5.562
  146POPC   C4A 2121   7.328   6.658   5.983
  146POPC   C1B 2122   6.991   6.852   4.755
  146POPC   C2B 2123   7.075   6.723   5.222
  146POPC   C3B 2124   7.009   6.434   5.619
  146POPC   C4B 2125   7.049   6.172   6.000
  147POPC   NC3 2126   5.637   9.250   4.060
  147POPC   PO4 2127   5.390   8.640   3.957
  147POPC   GL1 2128   5.672   8.776   4.299
  147POPC   GL2 2129   5.982   8.893   4.425
  147POPC   C1A 2130   5.624   8.949   4.743
  147POPC   D2A 2131   5.874   9.011   5.100
  147POPC   C3A 2132   5.711   8.776   5.449
  147POPC   C4A 2133   5.511   8.870   5.855
  147POPC   C1B 2134   6.095   8.635   4.737
  147POPC   C2B 2135   6.260   8.680   5.104
  147POPC   C3B 2136   6.284   8.724   5.509
  147POPC   C4B 2137   6.023   8.803   5.851
  148POPC   NC3 2138   1.006   5.111   3.836
  148POPC   PO4 2139   1.596   5.376   3.984
  148POPC   GL1 2140   1.189   5.326   4.277
  148POPC   GL2 2141   1.252   4.984   4.377
  148POPC   C1A 2142   0.951   5.207   4.715
  148POPC   D2A 2143   0.979   4.992   5.136
  148POPC   C3A 2144   1.053   5.153   5.600
  148POPC   C4A 2145   0.883   5.373   6.012
  148POPC   C1B 2146   1.426   5.096   4.825
  148POPC   C2B 2147   1.470   5.081   5.289
  148POPC   C3B 2148   1.593   5.125   5.723
  148POPC   C4B 2149   1.891   5.283   6.034
  149POPC   NC3 2150   6.495   8.112   3.927
  149POPC   PO4 2151   6.119   8.609   4.049
  149POPC   GL1 2152   6.318   8.319   4.385
  149POPC   GL2 2153   6.431   7.943   4.411
  149POPC   C1A 2154   6.498   8.261   4.816
  149POPC   D2A 2155   6.308   8.192   5.228
  149POPC   C3A 2156   6.499   8.239   5.588
  149POPC   C4A 2157   6.371   8.437   5.948
  149POPC   C1B 2158   6.785   7.858   4.746
  149POPC   C2B 2159   6.790   8.011   5.169
  149POPC   C3B 2160   6.845   7.866   5.609
  149POPC   C4B 2161   6.898   8.185   5.935
  150POPC   NC3 2162   9.062   2.462   3.961
  150POPC   PO4 2163   8.915   3.120   3.885
  150POPC   GL1 2164   8.956   3.057   4.297
  150POPC   GL2 2165   8.988   2.705   4.413
  150POPC   C1A 2166   8.755   3.176   4.652
  150POPC   D2A 2167   8.529   3.051   5.018
  150POPC   C3A 2168   8.788   3.021   5.379
  150POPC   C4A 2169   8.538   3.034   5.726
  150POPC   C1B 2170   9.031   2.778   4.876
  150POPC   C2B 2171   8.943   2.543   5.250
  150POPC   C3B 2172   8.903   2.633   5.701
  150POPC   C4B 2173   8.972   2.386   6.058
  151POPC   NC3 2174   8.076   2.208   3.957
  151POPC   PO4 2175   8.702   2.168   4.103
  151POPC   GL1 2176   8.503   1.848   4.375
  151POPC   GL2 2177   8.148   1.931   4.379
  151POPC   C1A 2178   8.460   1.800   4.818
  151POPC   D2A 2179   8.655   1.774   5.222
  151POPC   C3A 2180   8.330   1.782   5.536
  151POPC   C4A 2181   8.301   1.634   5.961
  151POPC   C1B 2182   8.022   2.246   4.684
  151POPC   C2B 2183   8.073   2.094   5.095
  151POPC   C3B 2184   8.153   2.251   5.480
  151POPC   C4B 2185   8.088   2.099   5.872
  152POPC   NC3 2186   8.825   4.185   4.004
  152POPC   PO4 2187   8.993   4.800   3.858
  152POPC   GL1 2188   9.010   4.585   4.271
  152POPC   GL2 2189   9.130   4.263   4.380
  152POPC   C1A 2190   9.097   4.630   4.737
  152POPC   D2A 2191   9.248   4.596   5.175
  152POPC   C3A 2192   8.908   4.422   5.431
  152POPC   C4A 2193   8.731   4.283   5.824
  152POPC   C1B 2194   8.898   4.091   4.729
  152POPC   C2B 2195   8.823   3.966   5.153
  152POPC   C3B 2196   8.994   3.906   5.545
  152POPC   C4B 2197   9.083   3.890   5.948
  153POPC   NC3 2198   7.319   7.769   4.191
  153POPC   PO4 2199   7.617   7.322   3.670
  153POPC   GL1 2200   7.531   7.227   4.239
  153POPC   GL2 2201   7.629   7.540   4.536
  153POPC   C1A 2202   7.416   7.126   4.666
  153POPC   D2A 2203   7.505   7.349   5.031
  153POPC   C3A 2204   7.216   7.240   5.342
  153POPC   C4A 2205   7.450   7.093   5.704
  153POPC   C1B 2206   7.287   7.748   4.807
  153POPC   C2B 2207   7.240   7.776   5.224
  153POPC   C3B 2208   7.521   7.621   5.504
  153POPC   C4B 2209   7.207   7.525   5.781
  154POPC   NC3 2210   1.215   3.520   3.880
  154POPC   PO4 2211   0.627   3.697   3.795
  154POPC   GL1 2212   0.893   3.740   4.225
  154POPC   GL2 2213   1.183   3.512   4.372
  154POPC   C1A 2214   0.861   3.687   4.712
  154POPC   D2A 2215   0.973   3.464   5.107
  154POPC   C3A 2216   0.911   3.682   5.451
  154POPC   C4A 2217   0.921   3.583   5.867
  154POPC   C1B 2218   1.345   3.517   4.783
  154POPC   C2B 2219   1.497   3.652   5.176
  154POPC   C3B 2220   1.389   3.609   5.619
  154POPC   C4B 2221   1.375   3.501   6.097
  155POPC   NC3 2222   0.228   4.895   4.166
  155POPC   PO4 2223   0.806   4.620   3.840
  155POPC   GL1 2224   0.810   4.708   4.255
  155POPC   GL2 2225   0.720   5.012   4.317
  155POPC   C1A 2226   0.757   4.729   4.721
  155POPC   D2A 2227   0.463   4.939   5.027
  155POPC   C3A 2228   0.564   5.029   5.447
  155POPC   C4A 2229   0.332   4.835   5.779
  155POPC   C1B 2230   0.440   5.255   4.640
  155POPC   C2B 2231   0.135   5.353   5.003
  155POPC   C3B 2232   0.219   5.517   5.422
  155POPC   C4B 2233   0.398   5.364   5.807
  156POPC   NC3 2234   9.067   8.128   3.753
  156POPC   PO4 2235   8.594   7.771   3.858
  156POPC   GL1 2236   8.709   7.893   4.260
  156POPC   GL2 2237   9.046   7.856   4.227
  156POPC   C1A 2238   8.511   8.033   4.671
  156POPC   D2A 2239   8.387   8.319   5.037
  156POPC   C3A 2240   8.704   8.338   5.389
  156POPC   C4A 2241   8.567   8.325   5.818
  156POPC   C1B 2242   9.056   8.173   4.547
  156POPC   C2B 2243   9.319   8.323   4.892
  156POPC   C3B 2244   9.276   8.350   5.340
  156POPC   C4B 2245   9.080   8.290   5.755
  157POPC   NC3 2246   7.572   2.653   3.897
  157POPC   PO4 2247   7.047   2.251   3.849
  157POPC   GL1 2248   7.201   2.399   4.234
  157POPC   GL2 2249   7.184   2.729   4.231
  157POPC   C1A 2250   7.087   2.451   4.677
  157POPC   D2A 2251   6.925   2.527   5.100
  157POPC   C3A 2252   7.252   2.605   5.344
  157POPC   C4A 2253   7.312   2.711   5.723
  157POPC   C1B 2254   7.562   2.618   4.530
  157POPC   C2B 2255   7.595   2.672   4.954
  157POPC   C3B 2256   7.703   2.394   5.295
  157POPC   C4B 2257   7.646   2.324   5.724
  158POPC   NC3 2258   5.017   0.577   4.038
  158POPC   PO4 2259   5.101   9.950   3.991
  158POPC   GL1 2260   5.228   0.203   4.389
  158POPC   GL2 2261   5.302   0.575   4.483
  158POPC   C1A 2262   5.155   0.240   4.848
  158POPC   D2A 2263   5.359   0.463   5.210
  158POPC   C3A 2264   5.425   0.192   5.604
  158POPC   C4A 2265   5.498   0.236   6.097
  158POPC   C1B 2266   4.953   0.724   4.741
  158POPC   C2B 2267   4.828   0.552   5.130
  158POPC   C3B 2268   4.966   0.474   5.543
  158POPC   C4B 2269   4.658   0.608   5.787
  159POPC   NC3 2270   1.365   6.752   4.004
  159POPC   PO4 2271   0.889   6.243   3.886
  159POPC   GL1 2272   0.940   6.416   4.261
  159POPC   GL2 2273   1.281   6.371   4.351
  159POPC   C1A 2274   0.782   6.625   4.631
  159POPC   D2A 2275   0.922   6.867   5.011
  159POPC   C3A 2276   1.115   6.645   5.369
  159POPC   C4A 2277   0.944   6.775   5.757
  159POPC   C1B 2278   1.285   6.727   4.662
  159POPC   C2B 2279   1.452   6.907   5.075
  159POPC   C3B 2280   1.631   6.808   5.489
  159POPC   C4B 2281   1.447   6.501   5.770
  160POPC   NC3 2282   0.608   5.832   3.806
  160POPC   PO4 2283   0.530   5.141   3.869
  160POPC   GL1 2284   0.663   5.482   4.182
  160POPC   GL2 2285   0.391   5.668   4.252
  160POPC   C1A 2286   0.736   5.655   4.641
  160POPC   D2A 2287   0.657   5.430   5.081
  160POPC   C3A 2288   0.793   5.592   5.491
  160POPC   C4A 2289   0.678   5.841   5.871
  160POPC   C1B 2290   0.206   5.726   4.657
  160POPC   C2B 2291   0.374   5.853   5.039
  160POPC   C3B 2292   0.457   5.983   5.445
  160POPC   C4B 2293   0.174   5.900   5.815
  161POPC   NC3 2294   0.543   7.537   3.925
  161POPC   PO4 2295   0.051   7.062   3.856
  161POPC   GL1 2296   0.197   7.296   4.207
  161POPC   GL2 2297   0.502   7.088   4.228
  161POPC   C1A 2298   0.265   7.489   4.624
  161POPC   D2A 2299   0.144   7.679   5.050
  161POPC   C3A 2300   0.332   7.518   5.455
  161POPC   C4A 2301   0.568   7.584   5.873
  161POPC   C1B 2302   0.667   7.168   4.653
  161POPC   C2B 2303   0.671   7.442   5.039
  161POPC   C3B 2304   0.787   7.312   5.488
  161POPC   C4B 2305   0.522   7.079   5.773
  162POPC   NC3 2306   4.033   3.613   3.888
  162POPC   PO4 2307   4.271   4.091   3.917
  162POPC   GL1 2308   4.301   3.749   4.292
  162POPC   GL2 2309   4.398   3.389   4.224
  162POPC   C1A 2310   4.048   3.513   4.637
  162POPC   D2A 2311   3.933   3.531   5.105
  162POPC   C3A 2312   3.779   3.255   5.426
  162POPC   C4A 2313   3.483   3.357   5.773
  162POPC   C1B 2314   4.317   3.094   4.597
  162POPC   C2B 2315   4.164   3.066   5.040
  162POPC   C3B 2316   4.155   2.907   5.489
  162POPC   C4B 2317   4.245   2.695   5.901
  163POPC   NC3 2318   8.098   7.026   3.843
  163POPC   PO4 2319   7.744   7.622   4.067
  163POPC   GL1 2320   8.084   7.351   4.237
  163POPC   GL2 2321   8.427   7.472   4.259
  163POPC   C1A 2322   8.329   7.106   4.592
  163POPC   D2A 2323   8.404   6.989   5.039
  163POPC   C3A 2324   8.058   6.943   5.323
  163POPC   C4A 2325   7.959   7.055   5.741
  163POPC   C1B 2326   8.198   7.602   4.650
  163POPC   C2B 2327   8.072   7.371   5.010
  163POPC   C3B 2328   8.296   7.387   5.409
  163POPC   C4B 2329   8.015   7.590   5.647
  164POPC   NC3 2330   8.146   7.802   3.970
  164POPC   PO4 2331   7.527   8.140   3.935
  164POPC   GL1 2332   7.728   8.051   4.336
  164POPC   GL2 2333   8.018   8.233   4.245
  164POPC   C1A 2334   7.966   8.048   4.747
  164POPC   D2A 2335   8.006   7.865   5.171
  164POPC   C3A 2336   8.294   8.017   5.484
  164POPC   C4A 2337   8.455   7.813   5.847
  164POPC   C1B 2338   7.811   8.500   4.555
  164POPC   C2B 2339   7.884   8.506   5.004
  164POPC   C3B 2340   8.034   8.475   5.448
  164POPC   C4B 2341   8.058   8.394   5.927
  165POPC   NC3 2342   6.394   0.519   3.950
  165POPC   PO4 2343   6.095   1.072   4.067
  165POPC   GL1 2344   6.440   0.924   4.311
  165POPC   GL2 2345   6.679   0.650   4.341
  165POPC   C1A 2346   6.404   0.795   4.737
  165POPC   D2A 2347   6.168   0.601   5.048
  165POPC   C3A 2348   6.313   0.761   5.426
  165POPC   C4A 2349   6.270   0.630   5.823
  165POPC   C1B 2350   6.633   0.338   4.615
  165POPC   C2B 2351   6.534   0.159   4.988
  165POPC   C3B 2352   6.622   0.310   5.362
  165POPC   C4B 2353   6.545   0.216   5.761
  166POPC   NC3 2354   3.149   8.734   3.966
  166POPC   PO4 2355   3.782   8.959   3.990
  166POPC   GL1 2356   3.461   8.912   4.353
  166POPC   GL2 2357   3.371   9.246   4.525
  166POPC   C1A 2358   3.327   8.848   4.814
  166POPC   D2A 2359   3.384   9.207   5.092
  166POPC   C3A 2360   3.263   9.209   5.566
  166POPC   C4A 2361   3.330   9.331   5.995
  166POPC   C1B 2362   3.782   9.156   4.672
  166POPC   C2B 2363   3.833   8.952   5.015
  166POPC   C3B 2364   3.701   8.957   5.405
  166POPC   C4B 2365   3.740   9.110   5.778
  167POPC   NC3 2366   7.155   9.298   3.826
  167POPC   PO4 2367   6.932   9.927   3.924
  167POPC   GL1 2368   7.082   9.637   4.261
  167POPC   GL2 2369   7.447   9.524   4.183
  167POPC   C1A 2370   7.133   9.436   4.710
  167POPC   D2A 2371   7.331   9.316   5.119
  167POPC   C3A 2372   7.130   9.460   5.530
  167POPC   C4A 2373   7.156   9.603   5.994
  167POPC   C1B 2374   7.465   9.802   4.547
  167POPC   C2B 2375   7.555   9.787   4.991
  167POPC   C3B 2376   7.573   9.696   5.411
  167POPC   C4B 2377   7.372   9.965   5.697
  168POPC   NC3 2378   8.989   7.477   3.894
  168POPC   PO4 2379   8.546   7.080   3.948
  168POPC   GL1 2380   8.797   7.057   4.315
  168POPC   GL2 2381   8.927   7.376   4.374
  168POPC   C1A 2382   8.816   7.126   4.783
  168POPC   D2A 2383   8.785   7.329   5.187
  168POPC   C3A 2384   8.830   7.027   5.540
  168POPC   C4A 2385   9.048   7.136   5.950
  168POPC   C1B 2386   8.906   7.687   4.705
  168POPC   C2B 2387   8.933   8.002   5.045
  168POPC   C3B 2388   8.945   7.876   5.485
  168POPC   C4B 2389   8.811   7.507   5.686
  169POPC   NC3 2390   3.925   8.057   4.006
  169POPC   PO4 2391   3.252   7.849   3.857
  169POPC   GL1 2392   3.442   8.089   4.222
  169POPC   GL2 2393   3.624   8.435   4.217
  169POPC   C1A 2394   3.361   8.218   4.656
  169POPC   D2A 2395   3.235   8.091   5.095
  169POPC   C3A 2396   3.424   8.167   5.500
  169POPC   C4A 2397   3.432   7.918   5.882
  169POPC   C1B 2398   3.727   8.567   4.663
  169POPC   C2B 2399   3.636   8.503   5.135
  169POPC   C3B 2400   3.808   8.506   5.581
  169POPC   C4B 2401   3.671   8.383   5.970
  170POPC   NC3 2402   7.282   0.927   3.927
  170POPC   PO4 2403   7.419   1.561   3.889
  170POPC   GL1 2404   7.404   1.250   4.291
  170POPC   GL2 2405   7.726   1.243   4.442
  170POPC   C1A 2406   7.409   1.036   4.765
  170POPC   D2A 2407   7.466   1.193   5.221
  170POPC   C3A 2408   7.226   0.924   5.545
  170POPC   C4A 2409   6.819   0.718   5.603
  170POPC   C1B 2410   7.383   1.539   4.696
  170POPC   C2B 2411   7.102   1.568   5.054
  170POPC   C3B 2412   7.187   1.547   5.490
  170POPC   C4B 2413   7.461   1.317   5.770
  171POPC   NC3 2414   2.272   6.262   3.933
  171POPC   PO4 2415   1.626   6.375   3.986
  171POPC   GL1 2416   1.905   6.146   4.311
  171POPC   GL2 2417   1.882   5.757   4.297
  171POPC   C1A 2418   2.097   6.184   4.767
  171POPC   D2A 2419   1.995   5.950   5.187
  171POPC   C3A 2420   2.136   5.968   5.649
  171POPC   C4A 2421   2.146   5.882   6.131
  171POPC   C1B 2422   1.707   5.863   4.712
  171POPC   C2B 2423   1.462   5.967   5.100
  171POPC   C3B 2424   1.593   6.023   5.554
  171POPC   C4B 2425   1.697   5.757   5.925
  172POPC   NC3 2426   0.794   4.134   3.850
  172POPC   PO4 2427   1.445   3.865   3.693
  172POPC   GL1 2428   1.331   3.997   4.115
  172POPC   GL2 2429   1.201   4.345   4.097
  172POPC   C1A 2430   1.251   3.992   4.580
  172POPC   D2A 2431   1.133   3.956   5.052
  172POPC   C3A 2432   1.047   4.170   5.465
  172POPC   C4A 2433   0.688   4.047   5.734
  172POPC   C1B 2434   1.185   4.494   4.533
  172POPC   C2B 2435   1.189   4.514   4.983
  172POPC   C3B 2436   1.227   4.645   5.428
  172POPC   C4B 2437   1.470   4.509   5.775
  173POPC   NC3 2438   2.160   7.337   3.846
  173POPC   PO4 2439   2.420   6.678   3.801
  173POPC   GL1 2440   2.198   6.606   4.303
  173POPC   GL2 2441   1.781   6.648   4.375
  173POPC   C1A 2442   2.055   6.717   4.773
  173POPC   D2A 2443   1.950   7.005   5.118
  173POPC   C3A 2444   2.238   7.111   5.440
  173POPC   C4A 2445   2.340   6.817   5.730
  173POPC   C1B 2446   1.642   6.384   4.728
  173POPC   C2B 2447   1.771   6.424   5.159
  173POPC   C3B 2448   1.965   6.440   5.575
  173POPC   C4B 2449   1.848   6.249   5.963
  174POPC   NC3 2450   7.120   4.597   3.974
  174POPC   PO4 2451   7.492   4.058   3.950
  174POPC   GL1 2452   7.420   4.188   4.350
  174POPC   GL2 2453   7.589   3.933   4.456
  174POPC   C1A 2454   7.342   4.203   4.828
  174POPC   D2A 2455   7.450   4.288   5.282
  174POPC   C3A 2456   7.143   4.159   5.625
  174POPC   C4A 2457   6.968   4.156   6.044
  174POPC   C1B 2458   7.842   4.232   4.665
  174POPC   C2B 2459   7.962   4.363   5.097
  174POPC   C3B 2460   7.841   4.549   5.500
  174POPC   C4B 2461   7.621   4.280   5.809
  175POPC   NC3 2462   4.163   7.348   4.119
  175POPC   PO4 2463   3.967   6.765   4.134
  175POPC   GL1 2464   3.931   7.023   4.523
  175POPC   GL2 2465   3.943   7.396   4.581
  175POPC   C1A 2466   4.186   7.114   4.911
  175POPC   D2A 2467   4.339   7.333   5.291
  175POPC   C3A 2468   4.119   7.199   5.688
  175POPC   C4A 2469   4.211   6.927   6.029
  175POPC   C1B 2470   4.012   7.618   4.950
  175POPC   C2B 2471   3.957   7.636   5.385
  175POPC   C3B 2472   4.276   7.675   5.723
  175POPC   C4B 2473   4.242   7.463   6.130
  176POPC   NC3 2474   8.632   4.926   4.127
  176POPC   PO4 2475   8.229   5.382   3.711
  176POPC   GL1 2476   8.201   5.209   4.115
  176POPC   GL2 2477   8.066   4.858   4.061
  176POPC   C1A 2478   8.338   5.323   4.540
  176POPC   D2A 2479   8.370   5.228   4.981
  176POPC   C3A 2480   8.306   5.400   5.397
  176POPC   C4A 2481   8.517   5.392   5.772
  176POPC   C1B 2482   8.028   4.887   4.530
  176POPC   C2B 2483   8.024   4.859   5.006
  176POPC   C3B 2484   8.235   4.889   5.398
  176POPC   C4B 2485   8.276   4.708   5.824
  177POPC   NC3 2486   0.341   4.749   3.708
  177POPC   PO4 2487   0.281   4.123   3.990
  177POPC   GL1 2488   0.430   4.336   4.395
  177POPC   GL2 2489   0.764   4.212   4.362
  177POPC   C1A 2490   0.376   4.426   4.893
  177POPC   D2A 2491   0.728   4.535   5.191
  177POPC   C3A 2492   0.709   4.546   5.594
  177POPC   C4A 2493   0.508   4.434   6.003
  177POPC   C1B 2494   0.815   4.210   4.782
  177POPC   C2B 2495   0.628   4.041   5.179
  177POPC   C3B 2496   0.313   4.259   5.460
  177POPC   C4B 2497   0.102   4.143   5.866
  178POPC   NC3 2498   8.670   9.755   4.080
  178POPC   PO4 2499   9.269   9.431   3.860
  178POPC   GL1 2500   9.103   9.600   4.258
  178POPC   GL2 2501   9.098   9.963   4.330
  178POPC   C1A 2502   8.991   9.551   4.678
  178POPC   D2A 2503   9.151   9.380   5.044
  178POPC   C3A 2504   8.976   9.498   5.463
  178POPC   C4A 2505   9.045   9.210   5.816
  178POPC   C1B 2506   8.861   0.044   4.740
  178POPC   C2B 2507   8.956   9.961   5.212
  178POPC   C3B 2508   8.882   9.969   5.699
  178POPC   C4B 2509   8.717   9.980   6.182
  179POPC   NC3 2510   3.486   7.438   3.701
  179POPC   PO4 2511   4.093   7.678   3.770
  179POPC   GL1 2512   3.697   7.629   4.118
  179POPC   GL2 2513   3.625   7.324   4.211
  179POPC   C1A 2514   3.544   7.709   4.578
  179POPC   D2A 2515   3.340   7.609   4.966
  179POPC   C3A 2516   3.447   7.653   5.407
  179POPC   C4A 2517   3.238   7.400   5.752
  179POPC   C1B 2518   3.460   7.194   4.630
  179POPC   C2B 2519   3.691   7.229   5.043
  179POPC   C3B 2520   3.658   7.193   5.490
  179POPC   C4B 2521   3.745   7.491   5.847
  180POPC   NC3 2522   9.954   2.676   3.892
  180POPC   PO4 2523   0.108   3.278   4.246
  180POPC   GL1 2524   9.767   3.044   4.248
  180POPC   GL2 2525   9.450   2.899   4.322
  180POPC   C1A 2526   9.743   2.979   4.710
  180POPC   D2A 2527   9.555   3.038   5.073
  180POPC   C3A 2528   9.819   2.878   5.401
  180POPC   C4A 2529   9.643   3.046   5.774
  180POPC   C1B 2530   9.453   2.550   4.675
  180POPC   C2B 2531   9.459   2.517   5.112
  180POPC   C3B 2532   9.331   2.774   5.462
  180POPC   C4B 2533   9.406   2.547   5.827
  181POPC   NC3 2534   1.002   1.229   3.961
  181POPC   PO4 2535   0.893   0.634   3.665
  181POPC   GL1 2536   1.167   0.770   4.115
  181POPC   GL2 2537   1.428   1.012   4.273
  181POPC   C1A 2538   1.040   0.966   4.585
  181POPC   D2A 2539   1.218   1.222   4.933
  181POPC   C3A 2540   1.208   1.141   5.375
  181POPC   C4A 2541   1.159   1.082   5.820
  181POPC   C1B 2542   1.622   1.297   4.651
  181POPC   C2B 2543   1.649   1.473   5.126
  181POPC   C3B 2544   1.623   1.362   5.603
  181POPC   C4B 2545   1.521   1.365   6.082
  182POPC   NC3 2546   2.142   1.662   3.518
  182POPC   PO4 2547   1.918   1.788   4.136
  182POPC   GL1 2548   1.827   2.004   4.484
  182POPC   GL2 2549   1.760   2.315   4.335
  182POPC   C1A 2550   1.928   1.862   4.902
  182POPC   D2A 2551   2.335   1.901   5.115
  182POPC   C3A 2552   2.442   2.111   5.469
  182POPC   C4A 2553   2.163   2.029   5.779
  182POPC   C1B 2554   1.787   2.533   4.736
  182POPC   C2B 2555   1.974   2.328   5.120
  182POPC   C3B 2556   1.833   2.009   5.401
  182POPC   C4B 2557   1.685   2.255   5.745
  183POPC   NC3 2558   7.778   1.254   3.918
  183POPC   PO4 2559   8.386   1.551   3.687
  183POPC   GL1 2560   8.188   1.465   4.168
  183POPC   GL2 2561   8.403   1.239   4.334
  183POPC   C1A 2562   8.140   1.418   4.699
  183POPC   D2A 2563   8.277   1.431   5.172
  183POPC   C3A 2564   7.992   1.380   5.600
  183POPC   C4A 2565   7.819   1.528   6.062
  183POPC   C1B 2566   8.524   1.069   4.778
  183POPC   C2B 2567   8.522   0.997   5.241
  183POPC   C3B 2568   8.478   1.169   5.694
  183POPC   C4B 2569   8.435   0.893   6.110
  184POPC   NC3 2570   8.239   8.970   3.890
  184POPC   PO4 2571   7.576   9.097   3.832
  184POPC   GL1 2572   7.871   9.205   4.156
  184POPC   GL2 2573   7.952   8.893   4.287
  184POPC   C1A 2574   8.040   9.296   4.602
  184POPC   D2A 2575   7.853   9.350   5.016
  184POPC   C3A 2576   8.043   9.209   5.409
  184POPC   C4A 2577   7.835   8.937   5.709
  184POPC   C1B 2578   8.216   8.805   4.630
  184POPC   C2B 2579   8.230   8.901   5.043
  184POPC   C3B 2580   8.438   8.766   5.394
  184POPC   C4B 2581   8.314   8.797   5.781
  185POPC   NC3 2582   8.124   9.511   3.706
  185POPC   PO4 2583   8.375   0.127   3.946
  185POPC   GL1 2584   8.228   9.857   4.276
  185POPC   GL2 2585   7.938   9.699   4.225
  185POPC   C1A 2586   8.444   9.687   4.679
  185POPC   D2A 2587   8.637   9.598   5.062
  185POPC   C3A 2588   8.501   9.764   5.441
  185POPC   C4A 2589   8.524   9.639   5.874
  185POPC   C1B 2590   7.961   9.807   4.698
  185POPC   C2B 2591   8.068   9.779   5.164
  185POPC   C3B 2592   8.020   9.818   5.626
  185POPC   C4B 2593   7.839   0.140   5.894
  186POPC   NC3 2594   5.007   2.251   3.948
  186POPC   PO4 2595   5.189   1.496   4.088
  186POPC   GL1 2596   5.006   1.606   4.443
  186POPC   GL2 2597   5.122   1.896   4.428
  186POPC   C1A 2598   4.959   1.749   4.882
  186POPC   D2A 2599   5.230   1.773   5.235
  186POPC   C3A 2600   4.990   1.958   5.591
  186POPC   C4A 2601   4.828   1.912   6.026
  186POPC   C1B 2602   5.005   2.232   4.758
  186POPC   C2B 2603   4.895   2.317   5.192
  186POPC   C3B 2604   5.145   2.457   5.554
  186POPC   C4B 2605   5.201   2.270   5.958
  187POPC   NC3 2606   3.386   2.876   3.851
  187POPC   PO4 2607   4.034   3.150   3.945
  187POPC   GL1 2608   3.805   2.918   4.274
  187POPC   GL2 2609   3.517   2.678   4.320
  187POPC   C1A 2610   3.634   2.999   4.717
  187POPC   D2A 2611   3.294   2.884   5.016
  187POPC   C3A 2612   3.397   2.901   5.447
  187POPC   C4A 2613   3.200   2.930   5.846
  187POPC   C1B 2614   3.513   2.470   4.771
  187POPC   C2B 2615   3.389   2.420   5.262
  187POPC   C3B 2616   3.375   2.462   5.755
  187POPC   C4B 2617   3.443   2.636   6.219
  188POPC   NC3 2618   2.856   8.076   3.742
  188POPC   PO4 2619   2.253   7.823   3.837
  188POPC   GL1 2620   2.508   8.057   4.198
  188POPC   GL2 2621   2.892   8.142   4.233
  188POPC   C1A 2622   2.410   8.185   4.641
  188POPC   D2A 2623   2.214   8.032   5.032
  188POPC   C3A 2624   2.463   8.117   5.392
  188POPC   C4A 2625   2.506   8.425   5.725
  188POPC   C1B 2626   2.892   8.011   4.656
  188POPC   C2B 2627   2.781   8.302   4.999
  188POPC   C3B 2628   2.921   8.362   5.425
  188POPC   C4B 2629   2.984   8.245   5.846
  189POPC   NC3 2630   9.354   5.102   3.925
  189POPC   PO4 2631   0.013   5.304   4.151
  189POPC   GL1 2632   9.664   5.046   4.342
  189POPC   GL2 2633   9.517   4.729   4.258
  189POPC   C1A 2634   9.469   4.998   4.765
  189POPC   D2A 2635   9.651   5.133   5.124
  189POPC   C3A 2636   9.518   4.925   5.512
  189POPC   C4A 2637   9.396   5.120   5.910
  189POPC   C1B 2638   9.815   4.667   4.652
  189POPC   C2B 2639   9.985   4.727   5.086
  189POPC   C3B 2640   0.042   5.024   5.422
  189POPC   C4B 2641   9.890   5.024   5.859
  190POPC   NC3 2642   8.759   1.258   3.721
  190POPC   PO4 2643   9.350   1.428   3.922
  190POPC   GL1 2644   8.922   1.317   4.190
  190POPC   GL2 2645   8.767   0.941   4.183
  190POPC   C1A 2646   8.820   1.456   4.609
  190POPC   D2A 2647   9.053   1.518   5.000
  190POPC   C3A 2648   8.916   1.349   5.388
  190POPC   C4A 2649   9.160   1.364   5.784
  190POPC   C1B 2650   8.975   0.937   4.558
  190POPC   C2B 2651   9.036   0.995   4.994
  190POPC   C3B 2652   8.975   0.852   5.420
  190POPC   C4B 2653   8.895   0.922   5.874
  191POPC   NC3 2654   0.774   2.674   4.180
  191POPC   PO4 2655   1.377   2.418   4.014
  191POPC   GL1 2656   1.271   2.850   4.228
  191POPC   GL2 2657   1.455   3.112   4.057
  191POPC   C1A 2658   1.094   3.069   4.655
  191POPC   D2A 2659   0.946   2.962   5.107
  191POPC   C3A 2660   1.220   2.708   5.368
  191POPC   C4A 2661   1.513   2.744   5.719
  191POPC   C1B 2662   1.590   3.172   4.479
  191POPC   C2B 2663   1.560   3.065   4.927
  191POPC   C3B 2664   1.466   3.167   5.360
  191POPC   C4B 2665   1.186   3.151   5.730
  192POPC   NC3 2666   1.909   9.669   3.780
  192POPC   PO4 2667   1.344   9.713   4.062
  192POPC   GL1 2668   1.727   9.588   4.246
  192POPC   GL2 2669   2.057   9.776   4.254
  192POPC   C1A 2670   1.822   9.463   4.649
  192POPC   D2A 2671   1.985   9.491   5.067
  192POPC   C3A 2672   1.873   9.543   5.516
  192POPC   C4A 2673   1.640   9.332   5.843
  192POPC   C1B 2674   2.221   9.764   4.665
  192POPC   C2B 2675   2.381   9.990   4.978
  192POPC   C3B 2676   2.235   0.136   5.358
  192POPC   C4B 2677   2.116   9.972   5.725
  193POPC   NC3 2678   7.907   6.231   4.057
  193POPC   PO4 2679   8.315   6.611   3.749
  193POPC   GL1 2680   8.261   6.714   4.221
  193POPC   GL2 2681   7.937   6.886   4.356
  193POPC   C1A 2682   8.279   6.592   4.682
  193POPC   D2A 2683   8.432   6.506   5.134
  193POPC   C3A 2684   8.419   6.686   5.580
  193POPC   C4A 2685   8.302   6.414   5.932
  193POPC   C1B 2686   7.896   6.911   4.810
  193POPC   C2B 2687   7.919   6.525   5.078
  193POPC   C3B 2688   7.982   6.430   5.522
  193POPC   C4B 2689   7.823   6.554   5.951
  194POPC   NC3 2690   7.781   5.365   3.839
  194POPC   PO4 2691   7.528   4.772   3.903
  194POPC   GL1 2692   7.596   4.666   4.338
  194POPC   GL2 2693   7.241   4.665   4.471
  194POPC   C1A 2694   7.606   4.648   4.809
  194POPC   D2A 2695   7.466   4.804   5.192
  194POPC   C3A 2696   7.757   5.064   5.445
  194POPC   C4A 2697   8.056   5.162   5.796
  194POPC   C1B 2698   7.042   4.623   4.899
  194POPC   C2B 2699   7.000   4.564   5.348
  194POPC   C3B 2700   7.327   4.663   5.656
  194POPC   C4B 2701   7.596   4.968   5.925
  195POPC   NC3 2702   3.563   1.858   3.956
  195POPC   PO4 2703   3.673   2.504   3.819
  195POPC   GL1 2704   3.749   2.229   4.249
  195POPC   GL2 2705   3.373   2.163   4.323
  195POPC   C1A 2706   3.918   1.826   4.525
  195POPC   D2A 2707   4.085   1.705   4.961
  195POPC   C3A 2708   3.850   1.619   5.375
  195POPC   C4A 2709   4.011   1.550   5.811
  195POPC   C1B 2710   3.470   1.964   4.711
  195POPC   C2B 2711   3.611   1.986   5.130
  195POPC   C3B 2712   3.497   1.976   5.589
  195POPC   C4B 2713   3.619   1.810   6.023
  196POPC   NC3 2714   4.742   1.419   4.017
  196POPC   PO4 2715   4.004   1.563   3.888
  196POPC   GL1 2716   4.006   1.355   4.277
  196POPC   GL2 2717   4.288   1.168   4.147
  196POPC   C1A 2718   4.013   1.263   4.720
  196POPC   D2A 2719   4.078   1.170   5.165
  196POPC   C3A 2720   4.331   1.474   5.377
  196POPC   C4A 2721   4.584   1.450   5.723
  196POPC   C1B 2722   4.452   1.055   4.559
  196POPC   C2B 2723   4.534   0.955   4.997
  196POPC   C3B 2724   4.538   0.986   5.445
  196POPC   C4B 2725   4.185   1.098   5.703
  197POPC   NC3 2726   7.396   7.726   3.725
  197POPC   PO4 2727   6.889   7.974   4.107
  197POPC   GL1 2728   7.087   8.150   4.438
  197POPC   GL2 2729   7.333   8.410   4.363
  197POPC   C1A 2730   7.006   8.384   4.787
  197POPC   D2A 2731   7.234   8.562   5.119
  197POPC   C3A 2732   7.115   8.291   5.442
  197POPC   C4A 2733   7.312   8.031   5.711
  197POPC   C1B 2734   7.477   8.214   4.789
  197POPC   C2B 2735   7.586   8.150   5.236
  197POPC   C3B 2736   7.795   8.066   5.641
  197POPC   C4B 2737   7.624   8.167   6.092
  198POPC   NC3 2738   8.917   3.496   3.620
  198POPC   PO4 2739   9.341   3.877   4.024
  198POPC   GL1 2740   9.133   3.723   4.336
  198POPC   GL2 2741   8.863   3.569   4.139
  198POPC   C1A 2742   9.098   3.602   4.766
  198POPC   D2A 2743   9.079   3.277   5.050
  198POPC   C3A 2744   9.137   3.411   5.465
  198POPC   C4A 2745   9.223   3.344   5.903
  198POPC   C1B 2746   8.656   3.675   4.515
  198POPC   C2B 2747   8.603   3.572   4.939
  198POPC   C3B 2748   8.574   3.476   5.362
  198POPC   C4B 2749   8.738   3.526   5.768
  199POPC   NC3 2750   1.905   9.035   3.840
  199POPC   PO4 2751   2.349   9.480   3.938
  199POPC   GL1 2752   2.150   9.269   4.272
  199POPC   GL2 2753   2.183   8.904   4.265
  199POPC   C1A 2754   2.278   9.223   4.701
  199POPC   D2A 2755   2.099   8.951   5.012
  199POPC   C3A 2756   1.907   9.052   5.363
  199POPC   C4A 2757   2.098   9.068   5.728
  199POPC   C1B 2758   1.841   8.940   4.581
  199POPC   C2B 2759   1.584   8.829   4.983
  199POPC   C3B 2760   1.528   8.712   5.433
  199POPC   C4B 2761   1.669   8.825   5.830
  200POPC   NC3 2762   7.942   0.385   4.123
  200POPC   PO4 2763   7.693   0.832   3.748
  200POPC   GL1 2764   8.033   0.888   4.153
  200POPC   GL2 2765   8.337   0.649   4.294
  200POPC   C1A 2766   8.057   0.910   4.623
  200POPC   D2A 2767   7.944   1.057   5.045
  200POPC   C3A 2768   7.946   0.706   5.363
  200POPC   C4A 2769   8.032   0.595   5.791
  200POPC   C1B 2770   8.330   0.229   4.605
  200POPC   C2B 2771   8.431   0.117   5.024
  200POPC   C3B 2772   8.225   0.234   5.408
  200POPC   C4B 2773   8.395   0.152   5.799
  201POPC   NC3 2774   8.916   9.238   3.621
  201POPC   PO4 2775   8.393   9.382   4.056
  201POPC   GL1 2776   8.685   9.286   4.342
  201POPC   GL2 2777   8.965   9.119   4.152
  201POPC   C1A 2778   8.599   9.177   4.773
  201POPC   D2A 2779   8.748   9.112   5.205
  201POPC   C3A 2780   8.548   9.220   5.604
  201POPC   C4A 2781   8.520   9.162   6.079
  201POPC   C1B 2782   9.086   9.042   4.609
  201POPC   C2B 2783   9.107   8.804   5.016
  201POPC   C3B 2784   9.091   8.812   5.477
  201POPC   C4B 2785   8.814   8.759   5.819
  202POPC   NC3 2786   7.353   3.624   3.991
  202POPC   PO4 2787   7.602   3.086   3.743
  202POPC   GL1 2788   7.463   3.149   4.204
  202POPC   GL2 2789   7.429   3.434   4.439
  202POPC   C1A 2790   7.264   3.016   4.639
  202POPC   D2A 2791   7.132   3.001   5.049
  202POPC   C3A 2792   7.263   3.217   5.411
  202POPC   C4A 2793   7.221   3.204   5.852
  202POPC   C1B 2794   7.271   3.671   4.794
  202POPC   C2B 2795   7.191   3.839   5.205
  202POPC   C3B 2796   7.380   3.702   5.583
  202POPC   C4B 2797   7.671   3.782   5.891
  203POPC   NC3 2798   5.687   0.088   3.512
  203POPC   PO4 2799   5.482   0.539   4.025
  203POPC   GL1 2800   5.827   0.383   4.260
  203POPC   GL2 2801   6.025   0.634   4.303
  203POPC   C1A 2802   6.127   0.277   4.642
  203POPC   D2A 2803   6.051   0.041   5.045
  203POPC   C3A 2804   6.120   0.256   5.429
  203POPC   C4A 2805   5.935   0.232   5.814
  203POPC   C1B 2806   5.782   0.698   4.678
  203POPC   C2B 2807   5.712   0.880   5.072
  203POPC   C3B 2808   5.784   0.651   5.456
  203POPC   C4B 2809   5.475   0.658   5.771
  204POPC   NC3 2810   4.443   7.951   3.676
  204POPC   PO4 2811   4.144   7.765   4.288
  204POPC   GL1 2812   3.894   8.051   4.514
  204POPC   GL2 2813   4.095   8.309   4.413
  204POPC   C1A 2814   3.741   8.042   4.940
  204POPC   D2A 2815   4.003   8.148   5.271
  204POPC   C3A 2816   3.909   8.024   5.703
  204POPC   C4A 2817   3.954   7.876   6.117
  204POPC   C1B 2818   4.490   8.272   4.643
  204POPC   C2B 2819   4.529   8.318   5.098
  204POPC   C3B 2820   4.431   8.182   5.538
  204POPC   C4B 2821   4.325   8.402   5.892
  205POPC   NC3 2822   5.738   8.321   4.000
  205POPC   PO4 2823   6.140   7.794   3.948
  205POPC   GL1 2824   5.916   7.961   4.352
  205POPC   GL2 2825   5.785   8.320   4.479
  205POPC   C1A 2826   6.042   8.101   4.806
  205POPC   D2A 2827   5.840   8.385   5.123
  205POPC   C3A 2828   5.961   8.317   5.585
  205POPC   C4A 2829   5.996   8.034   5.969
  205POPC   C1B 2830   5.542   8.041   4.762
  205POPC   C2B 2831   5.417   8.118   5.206
  205POPC   C3B 2832   5.536   8.032   5.645
  205POPC   C4B 2833   5.508   7.914   6.097
  206POPC   NC3 2834   9.613   9.164   4.003
  206POPC   PO4 2835   9.993   8.659   3.878
  206POPC   GL1 2836   9.989   8.956   4.246
  206POPC   GL2 2837   9.688   8.806   4.365
  206POPC   C1A 2838   9.983   9.118   4.676
  206POPC   D2A 2839   0.199   9.199   5.063
  206POPC   C3A 2840   0.050   9.328   5.457
  206POPC   C4A 2841   9.798   9.268   5.821
  206POPC   C1B 2842   9.569   8.832   4.795
  206POPC   C2B 2843   9.572   8.801   5.247
  206POPC   C3B 2844   9.582   8.820   5.694
  206POPC   C4B 2845   9.306   8.664   6.018
  207POPC   NC3 2846   2.875   1.351   4.024
  207POPC   PO4 2847   2.322   0.988   3.948
  207POPC   GL1 2848   2.639   0.976   4.298
  207POPC   GL2 2849   2.760   1.262   4.503
  207POPC   C1A 2850   2.592   0.874   4.776
  207POPC   D2A 2851   2.691   1.137   5.115
  207POPC   C3A 2852   2.546   1.106   5.551
  207POPC   C4A 2853   2.474   0.920   5.972
  207POPC   C1B 2854   3.097   1.285   4.785
  207POPC   C2B 2855   3.198   1.122   5.159
  207POPC   C3B 2856   3.045   1.218   5.565
  207POPC   C4B 2857   2.861   1.251   5.962
  208POPC   NC3 2858   6.378   9.019   4.139
  208POPC   PO4 2859   6.913   8.907   3.746
  208POPC   GL1 2860   6.799   8.795   4.288
  208POPC   GL2 2861   6.707   9.143   4.541
  208POPC   C1A 2862   6.638   8.728   4.765
  208POPC   D2A 2863   6.722   8.520   5.200
  208POPC   C3A 2864   6.786   8.660   5.620
  208POPC   C4A 2865   6.814   8.663   6.062
  208POPC   C1B 2866   6.323   9.148   4.804
  208POPC   C2B 2867   6.387   9.167   5.223
  208POPC   C3B 2868   6.661   9.157   5.525
  208POPC   C4B 2869   6.503   9.007   5.886
  209POPC   NC3 2870   2.972   5.806   4.070
  209POPC   PO4 2871   2.327   5.777   3.936
  209POPC   GL1 2872   2.376   5.898   4.318
  209POPC   GL2 2873   2.614   6.127   4.309
  209POPC   C1A 2874   2.420   5.801   4.739
  209POPC   D2A 2875   2.520   6.067   5.089
  209POPC   C3A 2876   2.603   5.852   5.447
  209POPC   C4A 2877   2.775   5.464   5.595
  209POPC   C1B 2878   2.871   6.039   4.690
  209POPC   C2B 2879   3.019   5.933   5.136
  209POPC   C3B 2880   3.108   5.903   5.596
  209POPC   C4B 2881   3.453   5.878   5.923
  210POPC   NC3 2882   1.217   7.467   3.894
  210POPC   PO4 2883   0.917   6.886   3.984
  210POPC   GL1 2884   1.060   7.143   4.290
  210POPC   GL2 2885   0.878   7.462   4.295
  210POPC   C1A 2886   1.178   7.224   4.716
  210POPC   D2A 2887   1.158   7.326   5.146
  210POPC   C3A 2888   1.254   7.123   5.546
  210POPC   C4A 2889   1.420   6.977   5.971
  210POPC   C1B 2890   0.951   7.688   4.675
  210POPC   C2B 2891   1.230   7.819   5.027
  210POPC   C3B 2892   1.275   7.697   5.468
  210POPC   C4B 2893   1.418   7.486   5.860
  211POPC   NC3 2894   2.086   7.707   4.262
  211POPC   PO4 2895   1.666   7.328   3.890
  211POPC   GL1 2896   1.798   7.180   4.267
  211POPC   GL2 2897   2.128   7.115   4.305
  211POPC   C1A 2898   1.669   7.075   4.651
  211POPC   D2A 2899   1.611   7.419   4.936
  211POPC   C3A 2900   1.675   7.369   5.372
  211POPC   C4A 2901   1.846   7.219   5.738
  211POPC   C1B 2902   2.122   7.263   4.717
  211POPC   C2B 2903   2.098   7.515   5.068
  211POPC   C3B 2904   2.186   7.647   5.458
  211POPC   C4B 2905   2.518   7.742   5.725
  212POPC   NC3 2906   9.505   1.865   3.936
  212POPC   PO4 2907   9.553   2.489   4.059
  212POPC   GL1 2908   9.686   2.159   4.366
  212POPC   GL2 2909   9.902   1.859   4.287
  212POPC   C1A 2910   9.713   2.095   4.816
  212POPC   D2A 2911   9.841   2.115   5.238
  212POPC   C3A 2912   9.524   2.137   5.542
  212POPC   C4A 2913   9.336   2.029   5.948
  212POPC   C1B 2914   9.730   1.610   4.657
  212POPC   C2B 2915   9.539   1.677   5.107
  212POPC   C3B 2916   9.573   1.618   5.552
  212POPC   C4B 2917   9.808   1.764   5.901
  213POPC   NC3 2918   2.059   5.383   3.968
  213POPC   PO4 2919   2.437   4.835   4.013
  213POPC   GL1 2920   2.136   5.028   4.339
  213POPC   GL2 2921   1.777   4.990   4.253
  213POPC   C1A 2922   1.868   5.334   4.644
  213POPC   D2A 2923   1.689   5.499   5.075
  213POPC   C3A 2924   1.899   5.507   5.512
  213POPC   C4A 2925   2.288   5.509   5.798
  213POPC   C1B 2926   1.655   4.702   4.595
  213POPC   C2B 2927   1.670   4.657   5.061
  213POPC   C3B 2928   1.831   4.735   5.489
  213POPC   C4B 2929   2.167   4.969   5.742
  214POPC   NC3 2930   1.297   8.462   3.934
  214POPC   PO4 2931   0.910   7.857   3.949
  214POPC   GL1 2932   1.083   8.119   4.310
  214POPC   GL2 2933   1.455   8.155   4.313
  214POPC   C1A 2934   0.978   8.190   4.769
  214POPC   D2A 2935   0.755   7.981   5.160
  214POPC   C3A 2936   0.883   8.056   5.590
  214POPC   C4A 2937   1.207   7.949   5.901
  214POPC   C1B 2938   1.448   8.420   4.677
  214POPC   C2B 2939   1.319   8.364   5.105
  214POPC   C3B 2940   1.414   8.210   5.507
  214POPC   C4B 2941   1.670   8.307   5.877
  215POPC   NC3 2942   5.183   8.724   3.554
  215POPC   PO4 2943   4.781   9.002   4.002
  215POPC   GL1 2944   4.894   8.846   4.396
  215POPC   GL2 2945   5.188   8.825   4.400
  215POPC   C1A 2946   4.828   8.657   4.775
  215POPC   D2A 2947   4.679   8.827   5.128
  215POPC   C3A 2948   4.682   8.633   5.506
  215POPC   C4A 2949   4.846   8.627   5.904
  215POPC   C1B 2950   5.140   9.095   4.768
  215POPC   C2B 2951   5.034   9.209   5.178
  215POPC   C3B 2952   5.072   9.003   5.570
  215POPC   C4B 2953   5.055   9.079   6.011
  216POPC   NC3 2954   2.875   6.640   3.798
  216POPC   PO4 2955   3.333   7.066   3.927
  216POPC   GL1 2956   3.086   6.862   4.278
  216POPC   GL2 2957   2.799   6.597   4.350
  216POPC   C1A 2958   2.980   6.912   4.717
  216POPC   D2A 2959   2.755   6.728   5.085
  216POPC   C3A 2960   2.797   6.853   5.521
  216POPC   C4A 2961   3.076   6.898   5.891
  216POPC   C1B 2962   2.534   6.436   4.722
  216POPC   C2B 2963   2.301   6.509   5.162
  216POPC   C3B 2964   2.482   6.355   5.557
  216POPC   C4B 2965   2.792   6.457   5.879
  217POPC   NC3 2966   2.848   3.765   3.427
  217POPC   PO4 2967   2.877   4.103   4.023
  217POPC   GL1 2968   2.804   4.344   4.395
  217POPC   GL2 2969   2.496   4.570   4.448
  217POPC   C1A 2970   3.004   4.301   4.817
  217POPC   D2A 2971   2.930   4.333   5.278
  217POPC   C3A 2972   3.019   4.061   5.656
  217POPC   C4A 2973   2.820   4.176   6.084
  217POPC   C1B 2974   2.497   4.293   4.815
  217POPC   C2B 2975   2.457   4.109   5.219
  217POPC   C3B 2976   2.557   4.257   5.645
  217POPC   C4B 2977   2.508   4.625   5.924
  218POPC   NC3 2978   3.081   7.547   4.167
  218POPC   PO4 2979   2.481   7.520   4.185
  218POPC   GL1 2980   2.736   7.263   4.392
  218POPC   GL2 2981   2.602   7.006   4.156
  218POPC   C1A 2982   2.883   7.434   4.808
  218POPC   D2A 2983   2.778   7.794   5.114
  218POPC   C3A 2984   2.984   7.836   5.523
  218POPC   C4A 2985   2.956   7.758   5.986
  218POPC   C1B 2986   2.485   6.919   4.618
  218POPC   C2B 2987   2.509   7.158   5.015
  218POPC   C3B 2988   2.701   7.360   5.383
  218POPC   C4B 2989   2.695   7.271   5.823
  219POPC   NC3 2990   2.490   4.377   3.978
  219POPC   PO4 2991   1.886   4.049   4.140
  219POPC   GL1 2992   2.185   4.129   4.415
  219POPC   GL2 2993   2.035   4.370   4.614
  219POPC   C1A 2994   2.164   3.909   4.818
  219POPC   D2A 2995   1.966   3.925   5.197
  219POPC   C3A 2996   2.207   3.880   5.609
  219POPC   C4A 2997   2.222   3.920   6.086
  219POPC   C1B 2998   1.665   4.181   4.824
  219POPC   C2B 2999   1.520   4.197   5.258
  219POPC   C3B 3000   1.753   4.136   5.604
  219POPC   C4B 3001   2.087   4.389   5.768
  220POPC   NC3 3002   5.558   9.982   4.060
  220POPC   PO4 3003   6.230   0.094   3.908
  220POPC   GL1 3004   5.998   9.904   4.326
  220POPC   GL2 3005   5.721   9.663   4.398
  220POPC   C1A 3006   5.665   0.083   4.684
  220POPC   D2A 3007   5.518   9.967   5.104
  220POPC   C3A 3008   5.787   9.853   5.462
  220POPC   C4A 3009   5.800   9.726   5.886
  220POPC   C1B 3010   5.884   9.627   4.798
  220POPC   C2B 3011   6.014   9.500   5.190
  220POPC   C3B 3012   5.749   9.305   5.529
  220POPC   C4B 3013   5.440   9.361   5.845
  221POPC   NC3 3014   9.809   4.009   3.967
  221POPC   PO4 3015   9.910   4.689   3.894
  221POPC   GL1 3016   9.938   4.411   4.243
  221POPC   GL2 3017   9.618   4.238   4.354
  221POPC   C1A 3018   9.992   4.200   4.659
  221POPC   D2A 3019   9.729   4.282   5.001
  221POPC   C3A 3020   9.800   4.189   5.419
  221POPC   C4A 3021   9.910   4.559   5.638
  221POPC   C1B 3022   9.427   3.999   4.713
  221POPC   C2B 3023   9.326   4.056   5.197
  221POPC   C3B 3024   9.355   4.263   5.651
  221POPC   C4B 3025   9.607   4.144   6.035
  222POPC   NC3 3026   9.329   3.322   4.052
  222POPC   PO4 3027   9.918   3.375   3.771
  222POPC   GL1 3028   9.725   3.578   4.198
  222POPC   GL2 3029   9.957   3.768   4.415
  222POPC   C1A 3030   9.591   3.486   4.642
  222POPC   D2A 3031   9.675   3.680   5.045
  222POPC   C3A 3032   9.652   3.454   5.410
  222POPC   C4A 3033   9.501   3.760   5.692
  222POPC   C1B 3034   0.092   3.530   4.806
  222POPC   C2B 3035   0.045   3.239   5.107
  222POPC   C3B 3036   0.127   3.272   5.542
  222POPC   C4B 3037   9.891   3.482   5.874
  223POPC   NC3 3038   1.200   0.157   4.076
  223POPC   PO4 3039   0.704   0.607   4.172
  223POPC   GL1 3040   1.088   0.431   4.492
  223POPC   GL2 3041   1.461   0.448   4.399
  223POPC   C1A 3042   1.383   0.261   4.859
  223POPC   D2A 3043   1.165   0.202   5.228
  223POPC   C3A 3044   1.254   0.125   5.644
  223POPC   C4A 3045   0.902   0.208   5.901
  223POPC   C1B 3046   1.473   0.749   4.712
  223POPC   C2B 3047   1.227   0.710   5.084
  223POPC   C3B 3048   1.282   0.640   5.530
  223POPC   C4B 3049   1.251   0.568   5.974
  224POPC   NC3 3050   8.022   3.055   3.550
  224POPC   PO4 3051   8.491   3.521   3.776
  224POPC   GL1 3052   8.269   3.555   4.222
  224POPC   GL2 3053   7.916   3.560   4.329
  224POPC   C1A 3054   8.245   3.339   4.651
  224POPC   D2A 3055   8.129   3.444   5.093
  224POPC   C3A 3056   8.148   3.150   5.423
  224POPC   C4A 3057   7.971   3.188   5.855
  224POPC   C1B 3058   7.791   3.593   4.753
  224POPC   C2B 3059   7.706   3.897   5.042
  224POPC   C3B 3060   7.853   3.954   5.437
  224POPC   C4B 3061   8.112   3.631   5.657
  225POPC   NC3 3062   6.533   9.681   3.956
  225POPC   PO4 3063   6.052   9.342   4.221
  225POPC   GL1 3064   6.389   9.541   4.423
  225POPC   GL2 3065   6.523   9.910   4.392
  225POPC   C1A 3066   6.402   9.683   4.827
  225POPC   D2A 3067   6.603   9.666   5.192
  225POPC   C3A 3068   6.336   9.788   5.486
  225POPC   C4A 3069   6.210   9.413   5.702
  225POPC   C1B 3070   6.894   9.893   4.695
  225POPC   C2B 3071   7.074   9.853   5.139
  225POPC   C3B 3072   6.885   9.901   5.558
  225POPC   C4B 3073   6.690   9.581   5.803
  226POPC   NC3 3074   9.963   5.798   4.005
  226POPC   PO4 3075   9.396   5.535   3.747
  226POPC   GL1 3076   9.553   5.515   4.181
  226POPC   GL2 3077   9.481   5.796   4.315
  226POPC   C1A 3078   9.689   5.471   4.678
  226POPC   D2A 3079   9.662   5.648   5.133
  226POPC   C3A 3080   9.726   5.416   5.566
  226POPC   C4A 3081   9.927   5.494   6.008
  226POPC   C1B 3082   9.564   5.966   4.721
  226POPC   C2B 3083   9.931   6.090   4.932
  226POPC   C3B 3084   9.964   6.002   5.356
  226POPC   C4B 3085   9.625   5.907   5.604
  227POPC   NC3 3086   8.998   5.745   3.890
  227POPC   PO4 3087   9.257   6.383   3.847
  227POPC   GL1 3088   9.118   6.136   4.243
  227POPC   GL2 3089   8.913   5.853   4.369
  227POPC   C1A 3090   9.093   6.161   4.717
  227POPC   D2A 3091   9.179   5.871   5.080
  227POPC   C3A 3092   9.131   6.057   5.492
  227POPC   C4A 3093   9.250   6.086   5.909
  227POPC   C1B 3094   8.736   5.610   4.707
  227POPC   C2B 3095   8.771   5.505   5.132
  227POPC   C3B 3096   8.745   5.733   5.488
  227POPC   C4B 3097   8.914   5.711   5.912
  228POPC   NC3 3098   8.452   3.132   4.023
  228POPC   PO4 3099   8.030   2.652   3.789
  228POPC   GL1 3100   7.971   2.735   4.221
  228POPC   GL2 3101   7.966   3.076   4.179
  228POPC   C1A 3102   8.150   2.765   4.662
  228POPC   D2A 3103   8.084   2.721   5.121
  228POPC   C3A 3104   8.436   2.656   5.392
  228POPC   C4A 3105   8.433   2.511   5.825
  228POPC   C1B 3106   7.778   3.099   4.605
  228POPC   C2B 3107   7.655   3.173   5.044
  228POPC   C3B 3108   7.683   2.915   5.428
  228POPC   C4B 3109   7.987   2.705   5.678
  229POPC   NC3 3110   5.948   2.806   3.975
  229POPC   PO4 3111   5.279   2.632   3.964
  229POPC   GL1 3112   5.579   2.776   4.323
  229POPC   GL2 3113   5.809   2.530   4.437
  229POPC   C1A 3114   5.826   2.951   4.704
  229POPC   D2A 3115   6.062   2.837   5.098
  229POPC   C3A 3116   5.798   2.920   5.473
  229POPC   C4A 3117   5.718   3.041   5.894
  229POPC   C1B 3118   5.932   2.376   4.876
  229POPC   C2B 3119   5.902   2.402   5.360
  229POPC   C3B 3120   5.630   2.522   5.729
  229POPC   C4B 3121   5.757   2.596   6.157
  230POPC   NC3 3122   1.319   6.060   3.885
  230POPC   PO4 3123   1.000   5.584   3.794
  230POPC   GL1 3124   1.008   5.854   4.222
  230POPC   GL2 3125   1.366   5.833   4.328
  230POPC   C1A 3126   1.048   6.061   4.662
  230POPC   D2A 3127   0.883   5.921   5.066
  230POPC   C3A 3128   1.059   6.079   5.436
  230POPC   C4A 3129   0.974   6.264   5.824
  230POPC   C1B 3130   1.271   5.600   4.707
  230POPC   C2B 3131   1.173   5.481   5.117
  230POPC   C3B 3132   1.365   5.557   5.497
  230POPC   C4B 3133   1.183   5.755   5.816
  231POPC   NC3 3134   4.937   8.536   4.015
  231POPC   PO4 3135   5.429   7.971   4.033
  231POPC   GL1 3136   5.303   8.307   4.331
  231POPC   GL2 3137   4.977   8.296   4.455
  231POPC   C1A 3138   5.357   8.513   4.761
  231POPC   D2A 3139   5.163   8.644   5.171
  231POPC   C3A 3140   5.285   8.497   5.586
  231POPC   C4A 3141   5.156   8.242   5.928
  231POPC   C1B 3142   4.992   8.187   4.911
  231POPC   C2B 3143   4.934   8.180   5.384
  231POPC   C3B 3144   4.823   7.902   5.740
  231POPC   C4B 3145   4.997   7.812   6.161
  232POPC   NC3 3146   7.198   1.874   3.614
  232POPC   PO4 3147   7.627   2.143   4.039
  232POPC   GL1 3148   7.612   2.073   4.410
  232POPC   GL2 3149   7.687   1.721   4.312
  232POPC   C1A 3150   7.502   2.176   4.838
  232POPC   D2A 3151   7.406   1.957   5.213
  232POPC   C3A 3152   7.140   2.139   5.514
  232POPC   C4A 3153   7.062   2.062   5.956
  232POPC   C1B 3154   7.818   1.782   4.754
  232POPC   C2B 3155   7.807   1.618   5.146
  232POPC   C3B 3156   7.818   1.854   5.505
  232POPC   C4B 3157   7.494   1.849   5.747
  233POPC   NC3 3158   0.459   0.876   3.892
  233POPC   PO4 3159   0.674   1.563   3.883
  233POPC   GL1 3160   0.544   1.254   4.245
  233POPC   GL2 3161   0.194   1.142   4.248
  233POPC   C1A 3162   0.522   1.003   4.676
  233POPC   D2A 3163   0.787   0.988   5.078
  233POPC   C3A 3164   0.731   0.915   5.541
  233POPC   C4A 3165   0.624   1.178   5.918
  233POPC   C1B 3166   0.207   1.392   4.632
  233POPC   C2B 3167   0.485   1.404   5.009
  233POPC   C3B 3168   0.454   1.371   5.466
  233POPC   C4B 3169   0.191   1.432   5.869
  234POPC   NC3 3170   3.036   3.676   3.930
  234POPC   PO4 3171   2.439   3.925   3.598
  234POPC   GL1 3172   2.422   3.821   4.070
  234POPC   GL2 3173   2.579   3.493   4.127
  234POPC   C1A 3174   2.592   3.861   4.547
  234POPC   D2A 3175   2.829   3.838   4.972
  234POPC   C3A 3176   2.680   3.684   5.404
  234POPC   C4A 3177   2.646   3.729   5.865
  234POPC   C1B 3178   2.796   3.401   4.554
  234POPC   C2B 3179   2.916   3.289   5.009
  234POPC   C3B 3180   3.061   3.320   5.458
  234POPC   C4B 3181   2.799   3.238   5.828
  235POPC   NC3 3182   0.427   3.211   3.929
  235POPC   PO4 3183   0.441   2.527   3.862
  235POPC   GL1 3184   0.267   2.810   4.260
  235POPC   GL2 3185   9.968   2.604   4.424
  235POPC   C1A 3186   0.256   2.907   4.746
  235POPC   D2A 3187   0.439   2.908   5.182
  235POPC   C3A 3188   0.310   2.792   5.606
  235POPC   C4A 3189   0.125   2.999   5.967
  235POPC   C1B 3190   9.954   2.534   4.909
  235POPC   C2B 3191   0.287   2.389   5.219
  235POPC   C3B 3192   0.702   2.494   5.400
  235POPC   C4B 3193   0.828   2.795   5.700
  236POPC   NC3 3194   1.876   1.323   4.046
  236POPC   PO4 3195   1.682   0.653   4.008
  236POPC   GL1 3196   1.905   0.851   4.347
  236POPC   GL2 3197   2.217   0.738   4.425
  236POPC   C1A 3198   1.937   0.936   4.812
  236POPC   D2A 3199   1.664   0.967   5.145
  236POPC   C3A 3200   1.783   0.769   5.495
  236POPC   C4A 3201   1.635   0.894   5.868
  236POPC   C1B 3202   2.263   1.214   4.571
  236POPC   C2B 3203   2.225   1.402   5.007
  236POPC   C3B 3204   2.147   1.504   5.449
  236POPC   C4B 3205   2.074   1.145   5.728
  237POPC   NC3 3206   2.717   9.810   3.935
  237POPC   PO4 3207   3.099   9.207   4.092
  237POPC   GL1 3208   2.892   9.418   4.479
  237POPC   GL2 3209   2.591   9.589   4.386
  237POPC   C1A 3210   2.686   9.537   4.900
  237POPC   D2A 3211   2.433   9.310   5.194
  237POPC   C3A 3212   2.523   9.326   5.612
  237POPC   C4A 3213   2.839   9.321   5.878
  237POPC   C1B 3214   2.853   9.915   4.604
  237POPC   C2B 3215   2.890   0.013   5.051
  237POPC   C3B 3216   2.641   9.791   5.387
  237POPC   C4B 3217   2.597   9.794   5.836
  238POPC   NC3 3218   7.807   4.392   3.943
  238POPC   PO4 3219   8.493   4.509   3.928
  238POPC   GL1 3220   8.212   4.394   4.269
  238POPC   GL2 3221   8.064   4.047   4.233
  238POPC   C1A 3222   8.292   4.472   4.701
  238POPC   D2A 3223   8.574   4.399   5.027
  238POPC   C3A 3224   8.383   4.409   5.421
  238POPC   C4A 3225   8.135   4.224   5.757
  238POPC   C1B 3226   8.212   3.884   4.670
  238POPC   C2B 3227   8.287   3.950   5.128
  238POPC   C3B 3228   8.489   3.936   5.543
  238POPC   C4B 3229   8.418   3.868   6.001
  239POPC   NC3 3230   9.588   6.678   3.947
  239POPC   PO4 3231   9.961   6.187   4.253
  239POPC   GL1 3232   9.726   6.525   4.420
  239POPC   GL2 3233   9.902   6.858   4.316
  239POPC   C1A 3234   9.549   6.476   4.835
  239POPC   D2A 3235   9.521   6.240   5.212
  239POPC   C3A 3236   9.542   6.416   5.643
  239POPC   C4A 3237   9.506   6.427   6.145
  239POPC   C1B 3238   9.710   6.957   4.708
  239POPC   C2B 3239   9.687   6.869   5.137
  239POPC   C3B 3240   9.800   7.015   5.527
  239POPC   C4B 3241   9.723   6.823   5.901
  240POPC   NC3 3242   5.636   0.979   4.094
  240POPC   PO4 3243   5.842   1.500   3.705
  240POPC   GL1 3244   5.858   1.473   4.236
  240POPC   GL2 3245   5.563   1.409   4.382
  240POPC   C1A 3246   5.919   1.235   4.686
  240POPC   D2A 3247   6.168   1.143   5.069
  240POPC   C3A 3248   5.956   1.140   5.466
  240POPC   C4A 3249   5.875   0.958   5.864
  240POPC   C1B 3250   5.453   1.560   4.767
  240POPC   C2B 3251   5.711   1.452   5.128
  240POPC   C3B 3252   5.614   1.521   5.564
  240POPC   C4B 3253   5.465   1.264   5.910
  241POPC   NC3 3254   2.133   0.565   3.936
  241POPC   PO4 3255   1.698   0.173   3.541
  241POPC   GL1 3256   1.712   0.115   4.051
  241POPC   GL2 3257   1.949   0.295   4.294
  241POPC   C1A 3258   1.688   9.986   4.549
  241POPC   D2A 3259   1.841   9.981   4.993
  241POPC   C3A 3260   1.683   0.273   5.324
  241POPC   C4A 3261   1.692   0.333   5.792
  241POPC   C1B 3262   1.886   0.430   4.727
  241POPC   C2B 3263   2.097   0.562   5.115
  241POPC   C3B 3264   2.298   0.639   5.525
  241POPC   C4B 3265   2.071   0.644   5.920
  242POPC   NC3 3266   6.330   3.267   3.414
  242POPC   PO4 3267   6.050   3.264   4.046
  242POPC   GL1 3268   6.400   3.226   4.382
  242POPC   GL2 3269   6.784   3.144   4.301
  242POPC   C1A 3270   6.275   3.225   4.814
  242POPC   D2A 3271   5.889   3.313   5.073
  242POPC   C3A 3272   6.124   3.277   5.404
  242POPC   C4A 3273   6.501   3.214   5.586
  242POPC   C1B 3274   6.851   3.339   4.738
  242POPC   C2B 3275   6.849   3.444   5.196
  242POPC   C3B 3276   6.881   3.553   5.649
  242POPC   C4B 3277   6.742   3.324   6.039
  243POPC   NC3 3278   3.493   0.419   3.772
  243POPC   PO4 3279   3.190   1.021   3.899
  243POPC   GL1 3280   3.445   0.732   4.211
  243POPC   GL2 3281   3.661   0.400   4.236
  243POPC   C1A 3282   3.460   0.552   4.666
  243POPC   D2A 3283   3.381   0.163   4.945
  243POPC   C3A 3284   3.231   0.245   5.390
  243POPC   C4A 3285   3.359   0.470   5.777
  243POPC   C1B 3286   3.877   0.286   4.635
  243POPC   C2B 3287   3.784   0.458   5.057
  243POPC   C3B 3288   3.747   0.312   5.460
  243POPC   C4B 3289   3.889   0.317   5.881
  244POPC   NC3 3290   8.739   1.746   3.935
  244POPC   PO4 3291   9.209   2.118   3.707
  244POPC   GL1 3292   9.186   2.102   4.257
  244POPC   GL2 3293   9.101   1.779   4.297
  244POPC   C1A 3294   8.956   2.263   4.706
  244POPC   D2A 3295   8.579   2.256   5.057
  244POPC   C3A 3296   8.685   2.176   5.537
  244POPC   C4A 3297   8.582   2.066   6.003
  244POPC   C1B 3298   9.275   1.863   4.696
  244POPC   C2B 3299   9.193   2.051   5.119
  244POPC   C3B 3300   9.098   1.837   5.507
  244POPC   C4B 3301   8.763   1.668   5.748
  245POPC   NC3 3302   0.334   9.833   3.990
  245POPC   PO4 3303   0.741   9.321   3.835
  245POPC   GL1 3304   0.632   9.445   4.250
  245POPC   GL2 3305   0.323   9.357   4.368
  245POPC   C1A 3306   0.673   9.517   4.715
  245POPC   D2A 3307   0.528   9.572   5.135
  245POPC   C3A 3308   0.775   9.374   5.469
  245POPC   C4A 3309   0.466   9.304   5.792
  245POPC   C1B 3310   0.161   9.602   4.736
  245POPC   C2B 3311   0.068   9.797   5.130
  245POPC   C3B 3312   0.284   9.790   5.539
  245POPC   C4B 3313   0.129   9.658   5.928
  246POPC   NC3 3314   7.295   8.710   3.888
  246POPC   PO4 3315   6.772   9.280   4.083
  246POPC   GL1 3316   7.168   9.121   4.308
  246POPC   GL2 3317   7.451   8.934   4.322
  246POPC   C1A 3318   7.138   8.901   4.720
  246POPC   D2A 3319   6.923   8.988   5.110
  246POPC   C3A 3320   7.177   8.951   5.491
  246POPC   C4A 3321   7.021   9.110   5.904
  246POPC   C1B 3322   7.658   8.952   4.752
  246POPC   C2B 3323   7.643   8.893   5.220
  246POPC   C3B 3324   7.543   8.563   5.542
  246POPC   C4B 3325   7.250   8.562   5.846
  247POPC   NC3 3326   5.692   7.596   3.994
  247POPC   PO4 3327   6.123   7.076   3.972
  247POPC   GL1 3328   6.074   7.422   4.313
  247POPC   GL2 3329   5.770   7.288   4.412
  247POPC   C1A 3330   5.925   7.624   4.761
  247POPC   D2A 3331   5.888   7.853   5.220
  247POPC   C3A 3332   5.880   7.637   5.643
  247POPC   C4A 3333   5.860   7.542   6.099
  247POPC   C1B 3334   6.068   7.143   4.756
  247POPC   C2B 3335   6.155   7.313   5.202
  247POPC   C3B 3336   6.079   7.154   5.643
  247POPC   C4B 3337   5.745   7.054   5.950
  248POPC   NC3 3338   2.745   0.911   3.786
  248POPC   PO4 3339   2.593   0.255   3.900
  248POPC   GL1 3340   2.927   0.558   4.135
  248POPC   GL2 3341   3.133   0.316   4.342
  248POPC   C1A 3342   3.051   0.816   4.543
  248POPC   D2A 3343   3.092   0.633   4.995
  248POPC   C3A 3344   2.917   0.745   5.395
  248POPC   C4A 3345   2.885   0.665   5.835
  248POPC   C1B 3346   2.758   0.408   4.640
  248POPC   C2B 3347   2.610   0.445   5.091
  248POPC   C3B 3348   2.708   0.285   5.514
  248POPC   C4B 3349   2.482   0.320   5.904
  249POPC   NC3 3350   8.795   6.698   3.870
  249POPC   PO4 3351   8.643   6.080   3.987
  249POPC   GL1 3352   8.725   6.451   4.311
  249POPC   GL2 3353   9.090   6.637   4.292
  249POPC   C1A 3354   8.786   6.583   4.748
  249POPC   D2A 3355   9.087   6.522   5.095
  249POPC   C3A 3356   8.885   6.502   5.477
  249POPC   C4A 3357   8.797   6.279   5.873
  249POPC   C1B 3358   9.219   6.834   4.681
  249POPC   C2B 3359   9.206   7.024   5.123
  249POPC   C3B 3360   9.312   6.866   5.538
  249POPC   C4B 3361   9.144   6.649   5.890
  250POPC   NC3 3362   4.800   9.570   3.924
  250POPC   PO4 3363   5.481   9.592   3.803
  250POPC   GL1 3364   5.252   9.540   4.240
  250POPC   GL2 3365   4.966   9.346   4.350
  250POPC   C1A 3366   5.303   9.619   4.701
  250POPC   D2A 3367   5.486   9.449   5.095
  250POPC   C3A 3368   5.292   9.659   5.466
  250POPC   C4A 3369   5.270   9.820   5.915
  250POPC   C1B 3370   4.761   9.439   4.755
  250POPC   C2B 3371   4.899   9.712   5.077
  250POPC   C3B 3372   4.778   9.754   5.494
  250POPC   C4B 3373   4.852   9.530   5.867
  251POPC   NC3 3374   7.205   1.902   4.135
  251POPC   PO4 3375   6.549   1.808   3.862
  251POPC   GL1 3376   6.604   1.907   4.260
  251POPC   GL2 3377   6.322   1.734   4.388
  251POPC   C1A 3378   6.788   1.758   4.662
  251POPC   D2A 3379   6.850   2.018   5.045
  251POPC   C3A 3380   6.749   1.812   5.430
  251POPC   C4A 3381   6.790   1.627   5.840
  251POPC   C1B 3382   6.357   2.038   4.750
  251POPC   C2B 3383   6.335   2.095   5.224
  251POPC   C3B 3384   6.439   2.148   5.681
  251POPC   C4B 3385   6.357   1.868   6.043
  252POPC   NC3 3386   1.558   2.009   3.937
  252POPC   PO4 3387   1.421   1.420   3.986
  252POPC   GL1 3388   1.422   1.688   4.363
  252POPC   GL2 3389   1.314   2.035   4.379
  252POPC   C1A 3390   1.277   1.732   4.830
  252POPC   D2A 3391   0.976   1.597   5.210
  252POPC   C3A 3392   1.143   1.593   5.650
  252POPC   C4A 3393   1.510   1.810   5.861
  252POPC   C1B 3394   1.069   2.210   4.687
  252POPC   C2B 3395   1.003   2.108   5.105
  252POPC   C3B 3396   1.279   2.057   5.446
  252POPC   C4B 3397   1.165   2.354   5.737
  253POPC   NC3 3398   0.230   3.650   4.003
  253POPC   PO4 3399   0.868   3.256   4.061
  253POPC   GL1 3400   0.621   3.257   4.409
  253POPC   GL2 3401   0.464   3.578   4.433
  253POPC   C1A 3402   0.559   3.298   4.846
  253POPC   D2A 3403   0.467   3.532   5.197
  253POPC   C3A 3404   0.645   3.258   5.504
  253POPC   C4A 3405   0.568   3.216   5.912
  253POPC   C1B 3406   0.404   3.915   4.711
  253POPC   C2B 3407   0.133   3.954   5.084
  253POPC   C3B 3408   0.101   3.776   5.493
  253POPC   C4B 3409   0.362   3.673   5.867
  254POPC   NC3 3410   3.891   9.739   3.543
  254POPC   PO4 3411   4.337   9.437   3.826
  254POPC   GL1 3412   4.440   9.366   4.259
  254POPC   GL2 3413   4.563   9.704   4.370
  254POPC   C1A 3414   4.223   9.454   4.673
  254POPC   D2A 3415   4.339   9.626   5.115
  254POPC   C3A 3416   4.071   9.410   5.468
  254POPC   C4A 3417   3.830   9.597   5.836
  254POPC   C1B 3418   4.266   9.954   4.665
  254POPC   C2B 3419   4.027   0.020   5.075
  254POPC   C3B 3420   4.084   9.933   5.529
  254POPC   C4B 3421   4.359   9.685   5.806
  255POPC   NC3 3422   2.643   9.152   4.127
  255POPC   PO4 3423   2.704   8.518   3.870
  255POPC   GL1 3424   2.660   8.637   4.301
  255POPC   GL2 3425   2.937   8.848   4.434
  255POPC   C1A 3426   2.418   8.695   4.688
  255POPC   D2A 3427   2.344   8.535   5.125
  255POPC   C3A 3428   2.468   8.838   5.430
  255POPC   C4A 3429   2.839   8.835   5.712
  255POPC   C1B 3430   2.771   9.046   4.807
  255POPC   C2B 3431   2.895   9.070   5.220
  255POPC   C3B 3432   3.211   8.765   5.323
  255POPC   C4B 3433   3.320   8.640   5.719
  256POPC   NC3 3434   0.314   9.053   3.853
  256POPC   PO4 3435   0.904   8.678   4.064
  256POPC   GL1 3436   0.610   8.912   4.241
  256POPC   GL2 3437   0.384   8.656   4.211
  256POPC   C1A 3438   0.492   8.977   4.653
  256POPC   D2A 3439   0.694   9.088   5.015
  256POPC   C3A 3440   0.544   8.933   5.394
  256POPC   C4A 3441   0.727   8.854   5.793
  256POPC   C1B 3442   0.108   8.624   4.596
  256POPC   C2B 3443   0.230   8.701   5.020
  256POPC   C3B 3444   0.053   8.789   5.418
  256POPC   C4B 3445   0.183   8.907   5.825
  257POPC   NC3 3446   6.378   1.345   3.832
  257POPC   PO4 3447   6.801   0.775   3.880
  257POPC   GL1 3448   6.901   1.114   4.207
  257POPC   GL2 3449   6.667   1.383   4.253
  257POPC   C1A 3450   6.950   1.235   4.661
  257POPC   D2A 3451   6.973   1.075   5.106
  257POPC   C3A 3452   6.792   1.234   5.480
  257POPC   C4A 3453   6.527   1.091   5.804
  257POPC   C1B 3454   6.450   1.326   4.654
  257POPC   C2B 3455   6.572   1.478   5.067
  257POPC   C3B 3456   6.348   1.493   5.475
  257POPC   C4B 3457   6.144   1.403   5.871
  258POPC   NC3 3458   5.241   1.465   3.636
  258POPC   PO4 3459   4.797   0.955   3.880
  258POPC   GL1 3460   5.148   1.018   4.218
  258POPC   GL2 3461   4.919   1.099   4.389
  258POPC   C1A 3462   5.351   1.052   4.673
  258POPC   D2A 3463   5.280   1.202   5.098
  258POPC   C3A 3464   5.062   0.951   5.362
  258POPC   C4A 3465   5.048   0.955   5.795
  258POPC   C1B 3466   4.875   1.260   4.791
  258POPC   C2B 3467   4.818   1.397   5.230
  258POPC   C3B 3468   5.079   1.436   5.597
  258POPC   C4B 3469   4.971   1.423   6.045
  259POPC   NC3 3470   6.421   7.429   3.929
  259POPC   PO4 3471   7.065   7.412   3.971
  259POPC   GL1 3472   7.042   7.414   4.412
  259POPC   GL2 3473   6.731   7.535   4.346
  259POPC   C1A 3474   6.967   7.358   4.856
  259POPC   D2A 3475   6.765   7.517   5.219
  259POPC   C3A 3476   6.756   7.328   5.612
  259POPC   C4A 3477   6.957   6.935   5.684
  259POPC   C1B 3478   6.446   7.485   4.673
  259POPC   C2B 3479   6.358   7.743   5.018
  259POPC   C3B 3480   6.362   7.734   5.491
  259POPC   C4B 3481   6.332   7.499   5.905
  260POPC   NC3 3482   6.073   1.815   3.937
  260POPC   PO4 3483   6.154   2.370   4.089
  260POPC   GL1 3484   5.935   2.049   4.371
  260POPC   GL2 3485   5.621   1.921   4.316
  260POPC   C1A 3486   5.926   1.764   4.736
  260POPC   D2A 3487   5.828   1.931   5.155
  260POPC   C3A 3488   6.004   1.869   5.565
  260POPC   C4A 3489   5.960   2.173   5.876
  260POPC   C1B 3490   5.512   2.076   4.750
  260POPC   C2B 3491   5.431   2.247   5.174
  260POPC   C3B 3492   5.510   2.045   5.594
  260POPC   C4B 3493   5.327   1.770   5.927
  261POPC   NC3 3494   0.663   8.255   4.043
  261POPC   PO4 3495   0.158   7.806   3.938
  261POPC   GL1 3496   0.412   7.869   4.288
  261POPC   GL2 3497   0.257   8.188   4.368
  261POPC   C1A 3498   0.492   7.935   4.733
  261POPC   D2A 3499   0.271   8.187   5.059
  261POPC   C3A 3500   0.220   8.013   5.484
  261POPC   C4A 3501   0.425   8.066   5.904
  261POPC   C1B 3502   0.563   8.448   4.670
  261POPC   C2B 3503   0.695   8.500   5.112
  261POPC   C3B 3504   0.493   8.448   5.542
  261POPC   C4B 3505   0.083   8.418   5.784
  262POPC   NC3 3506   9.907   8.211   3.930
  262POPC   PO4 3507   9.385   7.806   3.796
  262POPC   GL1 3508   9.532   7.977   4.196
  262POPC   GL2 3509   9.842   7.853   4.319
  262POPC   C1A 3510   9.429   7.840   4.653
  262POPC   D2A 3511   9.649   7.921   5.057
  262POPC   C3A 3512   9.473   7.894   5.491
  262POPC   C4A 3513   9.737   7.830   5.884
  262POPC   C1B 3514   9.774   8.223   4.591
  262POPC   C2B 3515   9.813   8.418   4.978
  262POPC   C3B 3516   9.796   8.316   5.383
  262POPC   C4B 3517   9.591   8.313   5.780
  263POPC   NC3 3518   9.610   0.599   4.054
  263POPC   PO4 3519   0.044   0.108   3.726
  263POPC   GL1 3520   9.890   0.177   4.189
  263POPC   GL2 3521   9.577   0.154   4.373
  263POPC   C1A 3522   9.995   0.126   4.658
  263POPC   D2A 3523   9.818   0.251   5.099
  263POPC   C3A 3524   9.991   0.233   5.545
  263POPC   C4A 3525   0.046   0.416   6.005
  263POPC   C1B 3526   9.668   0.513   4.677
  263POPC   C2B 3527   9.474   0.688   5.038
  263POPC   C3B 3528   9.702   0.679   5.424
  263POPC   C4B 3529   9.590   0.443   5.800
  264POPC   NC3 3530   4.288   8.985   3.917
  264POPC   PO4 3531   4.540   8.369   3.828
  264POPC   GL1 3532   4.452   8.649   4.262
  264POPC   GL2 3533   4.103   8.812   4.372
  264POPC   C1A 3534   4.488   9.012   4.629
  264POPC   D2A 3535   4.297   9.131   5.050
  264POPC   C3A 3536   4.568   9.258   5.403
  264POPC   C4A 3537   4.606   9.081   5.793
  264POPC   C1B 3538   4.203   8.648   4.818
  264POPC   C2B 3539   4.189   8.659   5.267
  264POPC   C3B 3540   4.178   8.862   5.649
  264POPC   C4B 3541   3.994   8.765   6.051
  265POPC   NC3 3542   8.347   5.816   3.771
  265POPC   PO4 3543   7.752   5.808   3.950
  265POPC   GL1 3544   8.053   5.690   4.273
  265POPC   GL2 3545   8.396   5.800   4.318
  265POPC   C1A 3546   8.148   5.741   4.752
  265POPC   D2A 3547   8.327   5.838   5.154
  265POPC   C3A 3548   8.044   5.893   5.555
  265POPC   C4A 3549   7.639   6.098   5.731
  265POPC   C1B 3550   8.557   6.096   4.680
  265POPC   C2B 3551   8.742   6.120   5.113
  265POPC   C3B 3552   8.482   6.165   5.508
  265POPC   C4B 3553   8.442   5.907   5.893
  266POPC   NC3 3554   8.765   0.437   3.752
  266POPC   PO4 3555   9.328   0.263   3.942
  266POPC   GL1 3556   9.074   0.502   4.192
  266POPC   GL2 3557   8.750   0.348   4.274
  266POPC   C1A 3558   9.173   0.459   4.610
  266POPC   D2A 3559   9.343   0.167   4.900
  266POPC   C3A 3560   9.354   0.268   5.352
  266POPC   C4A 3561   9.106   0.454   5.676
  266POPC   C1B 3562   8.689   0.556   4.694
  266POPC   C2B 3563   8.928   0.468   5.064
  266POPC   C3B 3564   8.707   0.365   5.405
  266POPC   C4B 3565   8.505   0.655   5.641
  267POPC   NC3 3566   6.570   2.326   3.873
  267POPC   PO4 3567   6.268   2.859   3.628
  267POPC   GL1 3568   6.432   2.803   4.104
  267POPC   GL2 3569   6.688   2.601   4.297
  267POPC   C1A 3570   6.281   2.756   4.583
  267POPC   D2A 3571   6.438   2.513   4.948
  267POPC   C3A 3572   6.410   2.606   5.415
  267POPC   C4A 3573   6.128   2.675   5.781
  267POPC   C1B 3574   6.760   2.841   4.703
  267POPC   C2B 3575   6.626   2.979   5.123
  267POPC   C3B 3576   6.859   2.879   5.520
  267POPC   C4B 3577   6.845   2.486   5.765
  268POPC   NC3 3578   1.069   9.166   4.114
  268POPC   PO4 3579   1.578   9.333   3.722
  268POPC   GL1 3580   1.561   9.113   4.194
  268POPC   GL2 3581   1.378   8.792   4.324
  268POPC   C1A 3582   1.407   9.191   4.645
  268POPC   D2A 3583   1.173   9.280   4.986
  268POPC   C3A 3584   1.405   9.232   5.358
  268POPC   C4A 3585   1.210   9.039   5.697
  268POPC   C1B 3586   1.082   8.789   4.725
  268POPC   C2B 3587   1.086   8.822   5.188
  268POPC   C3B 3588   1.023   8.555   5.514
  268POPC   C4B 3589   1.235   8.558   5.881
  269POPC   NC3 3590   1.757   2.687   3.986
  269POPC   PO4 3591   2.363   2.465   3.852
  269POPC   GL1 3592   2.244   2.510   4.297
  269POPC   GL2 3593   2.192   2.854   4.271
  269POPC   C1A 3594   2.287   2.569   4.791
  269POPC   D2A 3595   2.379   2.600   5.273
  269POPC   C3A 3596   2.126   2.523   5.665
  269POPC   C4A 3597   2.274   2.398   6.109
  269POPC   C1B 3598   2.040   3.015   4.667
  269POPC   C2B 3599   2.027   2.924   5.105
  269POPC   C3B 3600   1.932   2.996   5.533
  269POPC   C4B 3601   1.714   3.225   5.836
  270POPC   NC3 3602   0.546   6.606   3.927
  270POPC   PO4 3603   0.230   6.086   3.736
  270POPC   GL1 3604   0.461   6.175   4.177
  270POPC   GL2 3605   0.331   6.519   4.376
  270POPC   C1A 3606   0.544   6.134   4.631
  270POPC   D2A 3607   0.503   6.375   5.025
  270POPC   C3A 3608   0.644   6.450   5.458
  270POPC   C4A 3609   0.467   6.343   5.872
  270POPC   C1B 3610   0.082   6.575   4.785
  270POPC   C2B 3611   0.028   6.501   5.245
  270POPC   C3B 3612   0.197   6.702   5.617
  270POPC   C4B 3613   0.211   6.800   6.068
  271POPC   NC3 3614   9.799   7.460   3.894
  271POPC   PO4 3615   9.252   7.024   3.953
  271POPC   GL1 3616   9.406   7.144   4.317
  271POPC   GL2 3617   9.423   7.485   4.244
  271POPC   C1A 3618   9.290   7.339   4.730
  271POPC   D2A 3619   9.237   7.592   5.112
  271POPC   C3A 3620   9.293   7.384   5.512
  271POPC   C4A 3621   9.541   7.297   5.901
  271POPC   C1B 3622   9.756   7.441   4.580
  271POPC   C2B 3623   9.708   7.386   5.045
  271POPC   C3B 3624   9.817   7.521   5.472
  271POPC   C4B 3625   0.050   7.361   5.860
  272POPC   NC3 3626   7.028   0.371   3.973
  272POPC   PO4 3627   7.563   0.642   4.224
  272POPC   GL1 3628   7.183   0.701   4.378
  272POPC   GL2 3629   7.120   0.328   4.466
  272POPC   C1A 3630   6.967   0.712   4.757
  272POPC   D2A 3631   7.007   0.339   4.992
  272POPC   C3A 3632   7.142   0.337   5.415
  272POPC   C4A 3633   7.041   0.333   5.867
  272POPC   C1B 3634   7.478   0.269   4.754
  272POPC   C2B 3635   7.862   0.225   4.994
  272POPC   C3B 3636   7.719   0.210   5.406
  272POPC   C4B 3637   7.523   0.500   5.714
  273POPC   NC3 3638   9.612   9.915   3.860
  273POPC   PO4 3639   0.012   9.405   3.984
  273POPC   GL1 3640   9.896   9.683   4.321
  273POPC   GL2 3641   9.591   9.628   4.282
  273POPC   C1A 3642   9.665   9.778   4.769
  273POPC   D2A 3643   9.475   9.763   5.193
  273POPC   C3A 3644   9.750   9.753   5.546
  273POPC   C4A 3645   9.731   9.976   5.931
  273POPC   C1B 3646   9.511   9.328   4.629
  273POPC   C2B 3647   9.670   9.290   5.066
  273POPC   C3B 3648   9.449   9.305   5.471
  273POPC   C4B 3649   9.341   9.623   5.840
  274POPC   NC3 3650   0.560   2.034   3.875
  274POPC   PO4 3651   0.488   2.397   4.404
  274POPC   GL1 3652   0.710   2.002   4.376
  274POPC   GL2 3653   0.441   1.768   4.328
  274POPC   C1A 3654   0.739   1.788   4.776
  274POPC   D2A 3655   0.524   1.883   5.199
  274POPC   C3A 3656   0.777   2.020   5.568
  274POPC   C4A 3657   0.697   2.309   5.950
  274POPC   C1B 3658   0.206   1.884   4.730
  274POPC   C2B 3659   0.042   1.640   5.078
  274POPC   C3B 3660   0.100   1.748   5.485
  274POPC   C4B 3661   0.271   2.117   5.686
  275POPC   NC3 3662   9.560   1.059   3.739
  275POPC   PO4 3663   8.973   0.856   3.745
  275POPC   GL1 3664   9.286   0.977   4.163
  275POPC   GL2 3665   9.658   1.084   4.237
  275POPC   C1A 3666   9.337   1.276   4.578
  275POPC   D2A 3667   9.589   1.198   4.960
  275POPC   C3A 3668   9.405   1.153   5.363
  275POPC   C4A 3669   9.381   0.903   5.745
  275POPC   C1B 3670   9.904   0.968   4.621
  275POPC   C2B 3671   0.090   1.059   5.048
  275POPC   C3B 3672   9.926   1.229   5.461
  275POPC   C4B 3673   9.717   1.246   5.900
  276POPC   NC3 3674   3.656   1.169   3.949
  276POPC   PO4 3675   3.166   1.688   4.088
  276POPC   GL1 3676   3.476   1.537   4.389
  276POPC   GL2 3677   3.295   1.239   4.332
  276POPC   C1A 3678   3.568   1.492   4.880
  276POPC   D2A 3679   3.318   1.592   5.287
  276POPC   C3A 3680   3.480   1.434   5.698
  276POPC   C4A 3681   3.307   1.419   6.170
  276POPC   C1B 3682   3.570   1.050   4.591
  276POPC   C2B 3683   3.641   0.942   4.987
  276POPC   C3B 3684   3.481   0.752   5.364
  276POPC   C4B 3685   3.748   0.791   5.719
  277POPC   NC3 3686   2.389   2.928   3.784
  277POPC   PO4 3687   3.035   3.192   3.927
  277POPC   GL1 3688   2.707   2.995   4.175
  277POPC   GL2 3689   2.724   2.646   4.162
  277POPC   C1A 3690   2.564   2.954   4.605
  277POPC   D2A 3691   2.774   2.780   4.969
  277POPC   C3A 3692   2.728   2.949   5.389
  277POPC   C4A 3693   2.404   2.952   5.703
  277POPC   C1B 3694   2.721   2.441   4.558
  277POPC   C2B 3695   2.671   2.272   4.980
  277POPC   C3B 3696   2.865   2.439   5.355
  277POPC   C4B 3697   2.651   2.526   5.729
  278POPC   NC3 3698   0.509   0.372   3.815
  278POPC   PO4 3699   9.965   0.858   3.872
  278POPC   GL1 3700   0.166   0.610   4.255
  278POPC   GL2 3701   0.370   0.255   4.300
  278POPC   C1A 3702   0.220   0.575   4.729
  278POPC   D2A 3703   0.409   0.633   5.157
  278POPC   C3A 3704   0.240   0.714   5.585
  278POPC   C4A 3705   0.528   0.604   5.954
  278POPC   C1B 3706   0.479   0.014   4.678
  278POPC   C2B 3707   0.514   0.096   5.133
  278POPC   C3B 3708   0.499   0.255   5.580
  278POPC   C4B 3709   0.425   0.087   6.032
  279POPC   NC3 3710   4.084   2.706   3.866
  279POPC   PO4 3711   4.545   2.291   3.895
  279POPC   GL1 3712   4.623   2.627   4.189
  279POPC   GL2 3713   4.305   2.708   4.302
  279POPC   C1A 3714   4.587   2.570   4.690
  279POPC   D2A 3715   4.313   2.546   5.075
  279POPC   C3A 3716   4.427   2.421   5.489
  279POPC   C4A 3717   4.714   2.388   5.824
  279POPC   C1B 3718   4.020   2.677   4.672
  279POPC   C2B 3719   3.818   2.689   5.120
  279POPC   C3B 3720   3.848   2.497   5.542
  279POPC   C4B 3721   3.841   2.404   6.023
  280POPC   NC3 3722   4.268   1.942   3.782
  280POPC   PO4 3723   4.874   1.751   3.721
  280POPC   GL1 3724   4.667   1.881   4.152
  280POPC   GL2 3725   4.694   2.164   4.368
  280POPC   C1A 3726   4.474   1.759   4.561
  280POPC   D2A 3727   4.495   2.071   4.893
  280POPC   C3A 3728   4.598   1.898   5.266
  280POPC   C4A 3729   4.466   1.937   5.676
  280POPC   C1B 3730   4.237   2.233   4.477
  280POPC   C2B 3731   3.980   2.211   4.861
  280POPC   C3B 3732   4.092   2.097   5.289
  280POPC   C4B 3733   3.983   2.038   5.717
  281POPC   NC3 3734   3.565   9.353   4.070
  281POPC   PO4 3735   3.529   9.954   3.717
  281POPC   GL1 3736   3.569   9.881   4.189
  281POPC   GL2 3737   3.278   9.736   4.349
  281POPC   C1A 3738   3.750   9.749   4.627
  281POPC   D2A 3739   3.795   9.540   5.042
  281POPC   C3A 3740   3.580   9.786   5.385
  281POPC   C4A 3741   3.503   9.990   5.800
  281POPC   C1B 3742   3.252   9.652   4.822
  281POPC   C2B 3743   3.090   9.586   5.251
  281POPC   C3B 3744   3.089   9.725   5.682
  281POPC   C4B 3745   3.020   9.705   6.151
  282POPC   NC3 3746   8.615   4.868   3.599
  282POPC   PO4 3747   8.886   5.319   4.044
  282POPC   GL1 3748   9.118   5.382   4.394
  282POPC   GL2 3749   9.133   5.054   4.412
  282POPC   C1A 3750   9.206   5.423   4.839
  282POPC   D2A 3751   9.148   5.131   5.189
  282POPC   C3A 3752   9.025   5.298   5.591
  282POPC   C4A 3753   8.897   5.178   6.016
  282POPC   C1B 3754   8.825   5.082   4.767
  282POPC   C2B 3755   8.706   4.878   5.180
  282POPC   C3B 3756   8.691   4.895   5.643
  282POPC   C4B 3757   8.735   4.698   6.118
  283POPC   NC3 3758   3.532   6.657   4.094
  283POPC   PO4 3759   3.032   6.257   4.014
  283POPC   GL1 3760   3.229   6.371   4.460
  283POPC   GL2 3761   3.445   6.657   4.594
  283POPC   C1A 3762   3.114   6.413   4.927
  283POPC   D2A 3763   2.974   6.375   5.389
  283POPC   C3A 3764   3.282   6.368   5.744
  283POPC   C4A 3765   3.323   6.527   6.169
  283POPC   C1B 3766   3.376   6.834   5.016
  283POPC   C2B 3767   3.300   6.801   5.445
  283POPC   C3B 3768   3.597   6.780   5.795
  283POPC   C4B 3769   3.775   6.741   6.223
  284POPC   NC3 3770   1.145   9.529   3.685
  284POPC   PO4 3771   0.783   0.023   3.930
  284POPC   GL1 3772   0.879   9.882   4.359
  284POPC   GL2 3773   1.108   9.581   4.479
  284POPC   C1A 3774   0.967   9.977   4.781
  284POPC   D2A 3775   0.992   9.730   5.128
  284POPC   C3A 3776   0.830   9.882   5.479
  284POPC   C4A 3777   0.720   9.727   5.846
  284POPC   C1B 3778   1.406   9.703   4.839
  284POPC   C2B 3779   1.461   9.763   5.303
  284POPC   C3B 3780   1.229   9.608   5.697
  284POPC   C4B 3781   1.290   9.583   6.171
  285POPC   NC3 3782   4.382   0.955   3.674
  285POPC   PO4 3783   3.821   0.746   3.828
  285POPC   GL1 3784   4.068   0.721   4.263
  285POPC   GL2 3785   4.469   0.675   4.228
  285POPC   C1A 3786   4.084   0.749   4.750
  285POPC   D2A 3787   4.284   0.532   5.131
  285POPC   C3A 3788   4.192   0.592   5.566
  285POPC   C4A 3789   4.198   0.719   6.021
  285POPC   C1B 3790   4.511   0.448   4.666
  285POPC   C2B 3791   4.570   0.122   5.038
  285POPC   C3B 3792   4.521   0.197   5.493
  285POPC   C4B 3793   4.372   0.208   5.945
  286POPC   NC3 3794   2.272   8.283   3.799
  286POPC   PO4 3795   1.714   8.637   3.944
  286POPC   GL1 3796   1.847   8.501   4.335
  286POPC   GL2 3797   1.987   8.191   4.368
  286POPC   C1A 3798   1.957   8.483   4.789
  286POPC   D2A 3799   1.837   8.363   5.205
  286POPC   C3A 3800   2.030   8.570   5.558
  286POPC   C4A 3801   2.122   8.619   6.018
  286POPC   C1B 3802   1.754   8.010   4.764
  286POPC   C2B 3803   1.708   7.860   5.199
  286POPC   C3B 3804   1.749   7.846   5.634
  286POPC   C4B 3805   2.106   8.094   5.762
  287W        W 3806   8.788   1.883   0.246
  288W        W 3807   4.535   0.972  10.741
  289W        W 3808   8.988   1.363   2.268
  290W        W 3809   0.039   7.990   1.666
  291W        W 3810   8.847   3.432   9.149
  292W        W 3811   7.145   7.390   9.523
  293W        W 3812   0.713   0.165   0.943
  294W        W 3813   3.490   7.654  11.154
  295W        W 3814   1.672   8.377   1.942
  296W        W 3815   8.622   1.675   3.251
  297W        W 3816   6.925   2.027  11.720
  298W        W 3817   2.184   0.757   8.943
  299W        W 3818   7.924   3.951   3.670
  300W        W 3819   4.592   3.660   8.921
  301W        W 3820   1.237   0.992   9.534
  302W        W 3821   5.755   6.389   2.433
  303W        W 3822   6.738   9.068  11.822
  304W        W 3823   8.686   2.642   2.473
  305W        W 3824   6.191   8.220   9.216
  306W        W 3825   4.528   6.757   9.559
  307W        W 3826   4.211   6.780   3.648
  308W        W 3827   5.110   4.671   0.956
  309W        W 3828   0.431   8.545   2.596
  310W        W 3829   7.294   6.005   1.926
  311W        W 3830   8.102   6.346  10.499
  312W        W 3831   4.493   1.864   0.440
  313W        W 3832   6.139   2.713  10.908
  314W        W 3833   2.733   3.270   3.538
  315W        W 3834   6.470   3.009  11.853
  316W        W 3835   7.019   6.913   2.768
  317W        W 3836   8.262   2.014   3.503
  318W        W 3837   5.502   0.549   1.674
  319W        W 3838   4.916   5.195  10.487
  320W        W 3839   2.768   4.719   9.479
  321W        W 3840   5.448   2.276  11.418
  322W        W 3841   2.273   9.338  10.390
  323W        W 3842   9.266   8.876   3.741
  324W        W 3843   3.663   0.537   3.286
  325W        W 3844   6.373   8.400   1.254
  326W        W 3845   8.739   4.501  11.070
  327W        W 3846   4.587   4.166  11.814
  328W        W 3847   9.562   0.722   9.543
  329W        W 3848   5.227   6.617  11.817
  330W        W 3849   8.746   2.171   3.337
  331W        W 3850   6.967   9.242   9.999
  332W        W 3851   3.358   4.588   0.959
  333W        W 3852   9.270   5.195   9.631
  334W        W 3853   5.775   7.948   3.628
  335W        W 3854   2.660   6.940   3.343
  336W        W 3855   2.652   6.657   9.577
  337W        W 3856   5.233   1.183   2.301
  338W        W 3857   1.404   2.091  10.601
  339W        W 3858   4.590   5.086   9.489
  340W        W 3859   0.462   5.926   1.673
  341W        W 3860   8.333   8.546   8.766
  342W        W 3861   6.903   2.791   0.114
  343W        W 3862   3.563   9.096   0.316
  344W        W 3863   4.082   1.858   9.458
  345W        W 3864   1.622   5.173   3.493
  346W        W 3865   0.375   3.436   2.048
  347W        W 3866   9.461   6.273   0.272
  348W        W 3867   3.104   4.742   8.648
  349W        W 3868   3.339   4.224   2.826
  350W        W 3869   2.913   0.411  11.519
  351W        W 3870   5.375   9.888   9.680
  352W        W 3871   8.029   2.396   0.484
  353W        W 3872   4.693   7.731   8.520
  354W        W 3873   4.720   0.913   0.693
  355W        W 3874   9.919   3.314  10.459
  356W        W 3875   9.395   0.649  10.032
  357W        W 3876   5.072   3.304   9.547
  358W        W 3877   7.276   3.653   9.723
  359W        W 3878   0.876   7.474   0.190
  360W        W 3879   3.069   4.163   1.774
  361W        W 3880   8.966   7.366  10.007
  362W        W 3881   0.372   0.874   8.850
  363W        W 3882   3.544   2.387  10.912
  364W        W 3883   4.670   5.120   3.051
  365W        W 3884   9.401   8.523   1.290
  366W        W 3885   1.420   3.573  11.545
  367W        W 3886   4.881   7.115   9.138
  368W        W 3887   0.131   1.048   8.428
  369W        W 3888   4.741   7.825   1.840
  370W        W 3889   9.489   9.642  11.215
  371W        W 3890   6.013   3.242   2.427
  372W        W 3891   5.503   1.745  10.794
  373W        W 3892   5.486   9.854   1.464
  374W        W 3893   2.252   3.987  11.456
  375W        W 3894   4.530   5.066   0.060
  376W        W 3895   2.680   2.204   9.288
  377W        W 3896   2.600   1.051   2.394
  378W        W 3897   5.965   8.198   1.013
  379W        W 3898   2.199   7.930  11.577
  380W        W 3899   4.606   6.138   0.297
  381W        W 3900   8.436   0.208   0.221
  382W        W 3901   3.674   3.411   2.684
  383W        W 3902   2.357   8.079   1.308
  384W        W 3903   3.941   6.367   1.327
  385W        W 3904   7.135   4.715  11.051
  386W        W 3905   9.648   2.395   9.686
  387W        W 3906   4.148   9.848   8.694
  388W        W 3907   6.885   1.515   2.721
  389W        W 3908   4.885   2.684   8.452
  390W        W 3909   3.567   8.125   9.819
  391W        W 3910   9.327   7.591   1.288
  392W        W 3911   1.177   7.311   1.495
  393W        W 3912   4.011   2.801   8.525
  394W        W 3913   2.427   1.563  11.305
  395W        W 3914   8.729   4.836   0.471
  396W        W 3915   2.538   2.461   8.640
  397W        W 3916   0.602   9.602  11.549
  398W        W 3917   7.926   9.866  11.386
  399W        W 3918   1.862   2.986   9.914
  400W        W 3919   5.240   2.688  11.206
  401W        W 3920   0.398   8.654  11.159
  402W        W 3921   4.873   5.391   9.004
  403W        W 3922   2.744   8.098   2.990
  404W        W 3923   0.385   3.230   1.089
  405W        W 3924   3.847   4.623  11.080
  406W        W 3925   1.669   0.477  10.596
  407W        W 3926   6.683   4.701   8.745
  408W        W 3927   4.816   2.423   1.108
  409W        W 3928   7.935   5.178   2.516
  410W        W 3929   4.113   6.140   0.187
  411W        W 3930   8.494   2.099   9.255
  412W        W 3931   5.989   7.437   3.592
  413W        W 3932   5.553   7.344  10.217
  414W        W 3933   2.745   6.639   8.994
  415W        W 3934   8.022   2.393  11.958
  416W        W 3935   3.206   3.142   9.543
  417W        W 3936   5.071   4.510   0.362
  418W        W 3937   8.797   1.634   1.235
  419W        W 3938   0.339   4.575   3.191
  420W        W 3939   1.913   5.375   2.699
  421W        W 3940   2.886   2.567   0.732
  422W        W 3941   3.685   3.965   9.044
  423W        W 3942   0.387   5.501   9.462
  424W        W 3943   4.231   2.825   2.610
  425W        W 3944   1.793   2.534   0.153
  426W        W 3945   5.452   0.135   9.223
  427W        W 3946   1.914   4.242   8.837
  428W        W 3947   2.891   7.658   3.242
  429W        W 3948   3.221   8.616   9.182
  430W        W 3949   6.363   5.084   8.593
  431W        W 3950   9.349   2.867   3.773
  432W        W 3951   9.791   7.780   0.671
  433W        W 3952   3.025   2.226   2.035
  434W        W 3953   0.469   7.485  11.862
  435W        W 3954   8.323   0.697   8.969
  436W        W 3955   4.956   3.569   0.291
  437W        W 3956   8.821   8.982  11.173
  438W        W 3957   4.198   9.948   3.180
  439W        W 3958   6.268   7.524   2.590
  440W        W 3959   3.580   3.635   1.232
  441W        W 3960   2.103   7.415   1.968
  442W        W 3961   6.160   1.475   1.873
  443W        W 3962   8.163   7.371   9.705
  444W        W 3963   9.727   2.965   0.961
  445W        W 3964   2.883   0.950   2.793
  446W        W 3965   8.058   5.602  11.461
  447W        W 3966   7.154   6.747   0.831
  448W        W 3967   9.202   7.395  11.504
  449W        W 3968   7.969   1.647   0.848
  450W        W 3969   6.883   9.535   0.175
  451W        W 3970   0.695   6.639   0.003
  452W        W 3971   4.233   2.055   0.907
  453W        W 3972   8.465   1.297   2.920
  454W        W 3973   2.236   8.086   2.292
  455W        W 3974   1.779   4.914   8.270
  456W        W 3975   9.834   3.513   3.239
  457W        W 3976   6.480   8.347  10.758
  458W        W 3977   4.008   6.181   0.841
  459W        W 3978   4.064   5.200   1.515
  460W        W 3979   8.511   4.647  10.096
  461W        W 3980   8.344   3.617   9.107
  462W        W 3981   3.299   1.988   0.888
  463W        W 3982   5.457   7.492  11.620
  464W        W 3983   0.849   4.509   9.190
  465W        W 3984   6.952   1.278  11.895
  466W        W 3985   0.530   4.393   0.908
  467W        W 3986   9.536   1.895   9.547
  468W        W 3987   8.925   7.046  10.438
  469W        W 3988   0.025   1.240   8.890
  470W        W 3989   5.198   3.497  11.858
  471W        W 3990   9.053   9.101   8.941
  472W        W 3991   3.207   7.387  11.494
  473W        W 3992   1.387   1.381  11.414
  474W        W 3993   1.766   6.050   3.319
  475W        W 3994   4.470   4.525   2.761
  476W        W 3995   9.401   7.707   9.950
  477W        W 3996   9.852   6.078   8.920
  478W        W 3997   6.610   2.130  10.391
  479W        W 3998   7.102   7.938  11.249
  480W        W 3999   7.541   2.585  11.870
  481W        W 4000   6.653   4.331   3.697
  482W        W 4001   7.236   5.633   2.577
  483W        W 4002   4.142   5.680   1.021
  484W        W 4003   0.531   2.720  10.754
  485W        W 4004   6.127   3.187   0.736
  486W        W 4005   8.600   1.093   0.084
  487W        W 4006   6.506   6.856   2.018
  488W        W 4007   6.656   9.751   0.924
  489W        W 4008   8.587   0.592  10.501
  490W        W 4009   0.767   8.421   8.939
  491W        W 4010   1.660   1.483   1.785
  492W        W 4011   5.458   6.632  11.326
  493W        W 4012   5.261   2.971   1.691
  494W        W 4013   6.668   0.003   9.937
  495W        W 4014   3.984   7.960   0.213
  496W        W 4015   4.142   1.687  11.639
  497W        W 4016   7.274   0.368   9.182
  498W        W 4017   6.967   4.091   9.347
  499W        W 4018   3.881   1.777   1.429
  500W        W 4019   2.330   4.570   8.708
  501W        W 4020   2.914   4.139  10.574
  502W        W 4021   5.458   5.196  11.790
  503W        W 4022   2.907   1.151   0.014
  504W        W 4023   9.532   5.127   9.196
  505W        W 4024   4.900   4.193  10.513
  506W        W 4025   4.143   1.531  10.765
  507W        W 4026   2.600   3.905   0.882
  508W        W 4027   3.751   8.812  11.939
  509W        W 4028   6.350   6.235   9.812
  510W        W 4029   9.711   4.551   3.123
  511W        W 4030   4.744   4.912   2.582
  512W        W 4031   2.982   0.781   0.419
  513W        W 4032   4.951   3.579   3.530
  514W        W 4033   8.317   3.958   1.832
  515W        W 4034   1.577   5.106   2.975
  516W        W 4035   2.960   1.397   2.281
  517W        W 4036   9.145   0.835   1.566
  518W        W 4037   2.460   5.298   0.698
  519W        W 4038   3.113   7.541   8.843
  520W        W 4039   3.321   2.092  11.926
  521W        W 4040   8.901   6.379   1.576
  522W        W 4041   0.431   5.430   1.653
  523W        W 4042   8.441   9.811  11.134
  524W        W 4043   3.211   0.983  10.874
  525W        W 4044   6.883   2.543   3.069
  526W        W 4045   4.532   5.560  10.556
  527W        W 4046   3.828   5.388   8.951
  528W        W 4047   1.337   1.774   3.546
  529W        W 4048   0.327   9.704   0.005
  530W        W 4049   5.061   2.963  10.211
  531W        W 4050   5.977   2.450   3.604
  532W        W 4051   9.531   9.799   8.867
  533W        W 4052   9.208   3.781   9.320
  534W        W 4053   7.344   7.224  11.926
  535W        W 4054   2.344   7.415   3.366
  536W        W 4055   1.231   6.445  11.401
  537W        W 4056   0.532   0.286   9.914
  538W        W 4057   1.249   5.364  11.689
  539W        W 4058   5.591   8.639   0.182
  540W        W 4059   4.133   3.923   8.361
  541W        W 4060   1.370   3.625   1.413
  542W        W 4061   1.447   8.713   3.505
  543W        W 4062   2.581   5.346   4.072
  544W        W 4063   2.690   2.666  10.800
  545W        W 4064   8.420   2.665   1.646
  546W        W 4065   6.138   6.350   1.340
  547W        W 4066   6.722   5.733   1.358
  548W        W 4067   4.965   9.593   1.733
  549W        W 4068   8.057   0.185  11.869
  550W        W 4069   7.966   9.675   0.986
  551W        W 4070   1.464   3.524  11.008
  552W        W 4071   1.763   3.264   1.984
  553W        W 4072   7.613   2.317   1.291
  554W        W 4073   7.082   5.558   2.098
  555W        W 4074   9.658   5.329   1.932
  556W        W 4075   1.682   2.758  11.701
  557W        W 4076   8.503   1.487  10.013
  558W        W 4077   3.670   8.840   2.125
  559W        W 4078   5.053   8.055   0.117
  560W        W 4079   7.625   4.655   1.299
  561W        W 4080   2.418   7.002   2.064
  562W        W 4081   7.051   0.643   0.788
  563W        W 4082   5.940   9.960  10.430
  564W        W 4083   8.128   5.134   9.080
  565W        W 4084   5.828   7.556   9.835
  566W        W 4085   0.960   9.522   1.888
  567W        W 4086   1.990   3.058   2.843
  568W        W 4087   9.496   3.412   9.730
  569W        W 4088   6.584   8.854   1.190
  570W        W 4089   7.782   6.210   2.036
  571W        W 4090   5.064   6.958   1.448
  572W        W 4091   0.464   0.787   9.839
  573W        W 4092   4.478   3.434   3.692
  574W        W 4093   1.370   6.075   2.538
  575W        W 4094   6.988   4.495   1.786
  576W        W 4095   9.580   2.968  11.048
  577W        W 4096   1.130   4.619   9.620
  578W        W 4097   0.340   9.594  11.090
  579W        W 4098   6.518   4.344   9.095
  580W        W 4099   4.334   1.131   2.440
  581W        W 4100   9.470   2.931   1.470
  582W        W 4101   9.737   9.390   1.279
  583W        W 4102   9.632   6.093  11.043
  584W        W 4103   0.267   0.507  11.750
  585W        W 4104   6.908   5.116  11.244
  586W        W 4105   4.937   2.333   2.121
  587W        W 4106   1.377   6.438   1.452
  588W        W 4107   5.764   0.181   9.947
  589W        W 4108   6.080   0.896   2.831
  590W        W 4109   5.106   3.149  11.480
  591W        W 4110   8.200   7.209  11.512
  592W        W 4111   1.687   4.537   2.714
  593W        W 4112   3.733   6.395   2.234
  594W        W 4113   2.262   2.426  11.068
  595W        W 4114   8.992   4.702   0.899
  596W        W 4115   6.549   5.182   4.306
  597W        W 4116   1.330   5.324   8.586
  598W        W 4117   3.592   7.290  10.371
  599W        W 4118   2.850   0.879   1.751
  600W        W 4119   8.405   2.186   2.486
  601W        W 4120   2.248   8.823   0.723
  602W        W 4121   9.939   6.186   1.920
  603W        W 4122   5.778   5.926   1.285
  604W        W 4123   7.088   3.719   3.250
  605W        W 4124   4.768   3.161   3.306
  606W        W 4125   4.258   2.727   1.906
  607W        W 4126   9.992   4.641  10.479
  608W        W 4127   3.261   5.539   0.829
  609W        W 4128   4.147   0.574   8.649
  610W        W 4129   0.300   4.134   2.924
  611W        W 4130   0.829   4.271  11.725
  612W        W 4131   1.667   2.261  11.445
  613W        W 4132   1.203   8.028  11.231
  614W        W 4133   3.963   0.331  10.947
  615W        W 4134   5.626   7.874   2.798
  616W        W 4135   0.206   0.056   2.189
  617W        W 4136   1.284   1.274   2.038
  618W        W 4137   2.133   3.749  10.403
  619W        W 4138   8.434   2.916   2.103
  620W        W 4139   5.487   5.706   3.106
  621W        W 4140   8.299   8.476  10.610
  622W        W 4141   6.447   2.496   3.334
  623W        W 4142   9.919   5.734   1.009
  624W        W 4143   6.757   1.849  11.057
  625W        W 4144   5.315   2.031   1.973
  626W        W 4145   5.932   6.022   9.961
  627W        W 4146   7.591   8.261   9.376
  628W        W 4147   2.241   5.936   9.252
  629W        W 4148   7.276   0.753  11.792
  630W        W 4149   4.932   4.033   1.996
  631W        W 4150   3.816   5.522   0.126
  632W        W 4151   7.848   4.953   2.959
  633W        W 4152   7.169  10.000  10.983
  634W        W 4153   6.095   6.984   3.094
  635W        W 4154   5.022   7.449  10.258
  636W        W 4155   0.771   7.397   0.689
  637W        W 4156   9.425   9.966  10.806
  638W        W 4157   8.035   1.158  10.135
  639W        W 4158   5.226   6.734   3.671
  640W        W 4159   4.741   3.836   9.882
  641W        W 4160   5.268   5.493   0.695
  642W        W 4161   7.447   1.229  11.019
  643W        W 4162   2.097   7.984   0.461
  644W        W 4163   9.875   1.510  10.531
  645W        W 4164   5.341   1.005   1.839
  646W        W 4165   2.918   8.302  10.910
  647W        W 4166   6.115   8.536  10.415
  648W        W 4167   0.006   9.429   9.553
  649W        W 4168   9.346   6.082   0.737
  650W        W 4169   7.028   0.895   1.230
  651W        W 4170   4.658   4.606   1.211
  652W        W 4171   8.350   2.031   2.988
  653W        W 4172   9.471   8.487   9.739
  654W        W 4173   1.745   3.655   0.270
  655W        W 4174   7.195   3.524  11.983
  656W        W 4175   6.960   0.449   0.329
  657W        W 4176   4.233   3.501  11.972
  658W        W 4177   9.317   3.563   0.306
  659W        W 4178   8.760   6.632   9.179
  660W        W 4179   3.655   5.424   1.239
  661W        W 4180   2.926   9.389   3.271
  662W        W 4181   9.721   1.899   9.035
  663W        W 4182   2.323   7.663  11.047
  664W        W 4183   6.976   5.166   4.008
  665W        W 4184   5.540   9.455   1.149
  666W        W 4185   9.236   3.297   1.810
  667W        W 4186   4.611   6.014   3.214
  668W        W 4187   0.345   7.086   9.755
  669W        W 4188   2.000   6.360   1.728
  670W        W 4189   2.045   0.399  10.966
  671W        W 4190   2.685   0.386   1.172
  672W        W 4191   3.850   2.931  11.253
  673W        W 4192   5.679   9.108   9.230
  674W        W 4193   5.499   7.210   0.431
  675W        W 4194   8.056   6.650  11.864
  676W        W 4195   6.049   7.567  10.323
  677W        W 4196   7.635   6.104   0.274
  678W        W 4197   2.952   1.336   3.532
  679W        W 4198   6.593   1.499   0.903
  680W        W 4199   3.599   3.329   3.745
  681W        W 4200   9.481   5.326   1.407
  682W        W 4201   3.612   0.761   1.289
  683W        W 4202   4.992   2.334   1.597
  684W        W 4203   5.633   7.158   3.138
  685W        W 4204   9.887   0.850  11.772
  686W        W 4205   5.191   7.513   0.074
  687W        W 4206   6.562   5.606   9.272
  688W        W 4207   2.324   9.098   0.273
  689W        W 4208   2.165   5.528  11.668
  690W        W 4209   8.807   9.058   2.801
  691W        W 4210   6.779   4.508  10.104
  692W        W 4211   4.025   9.234   2.795
  693W        W 4212   8.369   8.486   3.292
  694W        W 4213   2.316   7.586   2.397
  695W        W 4214   6.402   2.192  10.941
  696W        W 4215   4.262   1.432  10.249
  697W        W 4216   6.401   1.543   2.880
  698W        W 4217   4.620   0.744   1.173
  699W        W 4218   4.163   9.802   1.409
  700W        W 4219   5.423   7.066  11.926
  701W        W 4220   5.155   2.798  10.692
  702W        W 4221   0.097   9.557  11.557
  703W        W 4222   7.957   5.080   0.019
  704W        W 4223   4.291   5.129   2.694
  705W        W 4224   4.432   6.699   3.175
  706W        W 4225   3.905   3.928  10.370
  707W        W 4226   4.005   4.585   4.054
  708W        W 4227   0.876   9.896   9.745
  709W        W 4228   9.429   1.339   0.314
  710W        W 4229   9.794   3.805   0.666
  711W        W 4230   2.763   0.047  10.505
  712W        W 4231   3.175   4.926   8.167
  713W        W 4232   9.978   6.992   9.017
  714W        W 4233   2.434   8.328   9.023
  715W        W 4234   8.803   7.893   3.399
  716W        W 4235   4.249   3.843  11.598
  717W        W 4236   9.377   6.998  10.683
  718W        W 4237   5.693   6.458   1.098
  719W        W 4238   3.388   5.384   0.365
  720W        W 4239   5.615   7.830  10.393
  721W        W 4240   8.959   7.435   2.366
  722W        W 4241   8.618   4.803   3.083
  723W        W 4242   9.881   1.531   3.088
  724W        W 4243   2.825   1.463  11.624
  725W        W 4244   7.688   3.129   3.170
  726W        W 4245   5.049   5.464   3.077
  727W        W 4246   4.459   0.071   2.421
  728W        W 4247   9.459   0.248   9.722
  729W        W 4248   9.755   2.379  10.870
  730W        W 4249   7.629   5.307  11.674
  731W        W 4250   3.137   6.934   1.198
  732W        W 4251   8.861   6.249   0.827
  733W        W 4252   5.114   2.033   1.188
  734W        W 4253   4.205   5.762   3.435
  735W        W 4254   6.703   1.172   3.094
  736W        W 4255   3.827   4.605   0.056
  737W        W 4256   8.387   3.851   2.341
  738W        W 4257   8.145   5.900   1.165
  739W        W 4258   4.471   2.600   1.441
  740W        W 4259   7.175   7.256   0.773
  741W        W 4260   3.864   3.640   9.847
  742W        W 4261   8.954   4.613   0.041
  743W        W 4262   3.592   7.882  10.295
  744W        W 4263   4.038   8.248   1.524
  745W        W 4264   9.049   8.325   2.120
  746W        W 4265   7.528   8.934  10.495
  747W        W 4266   9.060   4.186   0.878
  748W        W 4267   0.288   2.905   3.542
  749W        W 4268   4.777   2.748  11.420
  750W        W 4269   1.763   0.673   2.282
  751W        W 4270   7.815   1.247  10.619
  752W        W 4271   2.840   3.345   3.038
  753W        W 4272   4.106   0.854  11.041
  754W        W 4273   2.794   8.028   1.638
  755W        W 4274   3.685   4.492   9.357
  756W        W 4275   7.538   4.447   3.084
  757W        W 4276   7.883   4.649   0.314
  758W        W 4277   9.806   7.673   1.998
  759W        W 4278   8.381   4.576  11.467
  760W        W 4279   1.515   0.558   9.395
  761W        W 4280   5.122   2.736   2.692
  762W        W 4281   8.714   6.121  11.960
  763W        W 4282   0.090   5.630   9.050
  764W        W 4283   8.957   7.037   9.463
  765W        W 4284   3.295   9.229   1.399
  766W        W 4285   0.444   6.619   9.921
  767W        W 4286   4.560   5.775   2.257
  768W        W 4287   7.884   1.865   1.332
  769W        W 4288   3.219   3.550  11.926
  770W        W 4289   7.040   6.426   8.261
  771W        W 4290   2.340   2.122  10.116
  772W        W 4291   6.994   6.382   8.765
  773W        W 4292   5.021   9.872   9.186
  774W        W 4293   2.322   1.912  10.912
  775W        W 4294   8.800   6.221  10.571
  776W        W 4295   7.363   3.195   2.734
  777W        W 4296   5.187   3.927  10.146
  778W        W 4297   2.625   7.993  11.278
  779W        W 4298   5.896   2.269  11.030
  780W        W 4299   9.176   9.307  11.515
  781W        W 4300   7.125   6.552   3.938
  782W        W 4301   8.496   7.938  11.043
  783W        W 4302   9.979   1.325  10.077
  784W        W 4303   1.587   3.775   0.812
  785W        W 4304   0.943   8.856   3.592
  786W        W 4305   1.996   3.332   3.285
  787W        W 4306   9.532   8.133   2.003
  788W        W 4307   9.406   4.846  11.826
  789W        W 4308   3.102   3.733   0.939
  790W        W 4309   2.186   3.777   1.676
  791W        W 4310   8.337   8.788   0.208
  792W        W 4311   5.143   8.708  10.934
  793W        W 4312   6.204   9.879   0.283
  794W        W 4313   5.886   1.643   8.479
  795W        W 4314   2.757   4.386   2.131
  796W        W 4315   2.770   2.077   0.910
  797W        W 4316   0.355   6.177   3.240
  798W        W 4317   6.653   9.280   2.351
  799W        W 4318   9.609   7.525  11.780
  800W        W 4319   4.114   8.925   8.883
  801W        W 4320   2.927   0.413   9.372
  802W        W 4321   8.726   6.417  11.219
  803W        W 4322   2.720   3.672  10.647
  804W        W 4323   5.418   0.846  11.070
  805W        W 4324   5.629   1.718   2.283
  806W        W 4325   5.163   8.861  10.442
  807W        W 4326   1.408   0.269   8.953
  808W        W 4327   5.938   8.082   3.162
  809W        W 4328   6.984   2.525   9.797
  810W        W 4329   3.553   4.685   3.820
  811W        W 4330   3.801   1.414   8.675
  812W        W 4331   9.902   6.837   9.972
  813W        W 4332   3.869   8.042   9.059
  814W        W 4333   6.805   2.811  10.164
  815W        W 4334   1.867   5.669   9.560
  816W        W 4335   8.843   0.816   8.940
  817W        W 4336   0.484   1.648   9.829
  818W        W 4337   3.304   8.459  10.599
  819W        W 4338   4.754   7.533   2.317
  820W        W 4339   3.839   9.794  11.833
  821W        W 4340   2.688   3.618   0.043
  822W        W 4341   5.067   6.362   0.222
  823W        W 4342   3.517   0.605   2.210
  824W        W 4343   5.218   5.694   1.200
  825W        W 4344   8.254   4.344   2.350
  826W        W 4345   6.676   8.519   1.807
  827W        W 4346   3.373   9.293   8.578
  828W        W 4347   7.225   1.980   1.452
  829W        W 4348   3.749   9.006   1.625
  830W        W 4349   8.945   9.918  10.956
  831W        W 4350   3.181   8.247   3.210
  832W        W 4351   0.043   1.795   2.669
  833W        W 4352   6.816   5.929   8.944
  834W        W 4353   0.326   0.030  11.601
  835W        W 4354   4.857   1.848   1.809
  836W        W 4355   6.576   8.757  10.447
  837W        W 4356   1.168   0.378  10.719
  838W        W 4357   6.445   2.733  10.505
  839W        W 4358   2.753   9.217  10.629
  840W        W 4359   6.249   3.681   0.809
  841W        W 4360   0.458   1.348  11.279
  842W        W 4361   4.529   9.209   2.765
  843W        W 4362   6.405   9.309   2.787
  844W        W 4363   5.849   4.644  10.424
  845W        W 4364   9.645   1.757   0.118
  846W        W 4365   6.093   9.066  11.158
  847W        W 4366   2.217   3.852   9.005
  848W        W 4367   7.624   2.563  11.358
  849W        W 4368   2.708   6.903   2.804
  850W        W 4369   1.361   3.842   9.294
  851W        W 4370   0.859   2.894  11.502
  852W        W 4371   2.127   0.985   0.824
  853W        W 4372   6.278   5.890   1.663
  854W        W 4373   0.631   2.820   9.543
  855W        W 4374   4.228   2.803   9.538
  856W        W 4375   9.635   0.566   3.561
  857W        W 4376   7.952   7.394   0.404
  858W        W 4377   9.444   8.626  10.248
  859W        W 4378   5.270   5.536   0.159
  860W        W 4379   2.764   3.362   9.692
  861W        W 4380   8.653   3.421   3.201
  862W        W 4381   8.291   1.961   1.680
  863W        W 4382   4.053   8.533   3.908
  864W        W 4383   8.301   3.222  11.450
  865W        W 4384   9.549   3.046   0.259
  866W        W 4385   3.948   2.407  11.270
  867W        W 4386   8.029   5.991   9.553
  868W        W 4387   3.357   4.311   4.133
  869W        W 4388   7.401   4.790   0.412
  870W        W 4389   5.199   2.278   0.177
  871W        W 4390   4.033   7.934   9.559
  872W        W 4391   7.827   1.695  10.301
  873W        W 4392   0.964   9.247   9.552
  874W        W 4393   5.131   6.017   8.172
  875W        W 4394   9.483   1.549   9.946
  876W        W 4395   6.580   2.423   0.930
  877W        W 4396   7.099   6.580   1.321
  878W        W 4397   7.593   3.779   1.948
  879W        W 4398   9.090   9.761  10.443
  880W        W 4399   9.910   4.763   0.896
  881W        W 4400   2.148   9.645   2.147
  882W        W 4401   0.367   4.580   1.777
  883W        W 4402   7.256   2.177   3.195
  884W        W 4403   2.181   3.021  11.449
  885W        W 4404   7.769   3.685   9.513
  886W        W 4405   1.359   9.501   2.650
  887W        W 4406   6.310   6.107   4.072
  888W        W 4407   8.667   5.073  10.398
  889W        W 4408   9.028   4.305  10.640
  890W        W 4409   4.495   7.674  11.362
  891W        W 4410   6.494   1.121   2.629
  892W        W 4411   7.960   0.198   0.978
  893W        W 4412   8.365   3.653  10.209
  894W        W 4413   8.991   4.705  10.282
  895W        W 4414   3.170   6.698  10.877
  896W        W 4415   6.400   7.118   3.486
  897W        W 4416   9.290   2.566  10.826
  898W        W 4417   9.949   9.845   9.242
  899W        W 4418   0.685   4.655  10.882
  900W        W 4419   4.211   4.300  10.610
  901W        W 4420   4.734   2.314   9.004
  902W        W 4421   0.242   3.955   2.159
  903W        W 4422   7.047   2.816  10.646
  904W        W 4423   1.789   6.172   1.252
  905W        W 4424   0.103   5.345   8.321
  906W        W 4425   2.479   3.170   0.211
  907W        W 4426   4.792   6.676   1.987
  908W        W 4427   1.504   8.600   2.814
  909W        W 4428   5.140   0.955   3.335
  910W        W 4429   0.772   7.958   0.022
  911W        W 4430   9.300   7.570   2.736
  912W        W 4431   6.563   7.135   2.935
  913W        W 4432   5.063   4.003  11.966
  914W        W 4433   3.020   7.377   2.839
  915W        W 4434   6.895   3.033   2.868
  916W        W 4435   7.569   1.203   0.513
  917W        W 4436   7.704   9.975   0.359
  918W        W 4437   3.219   7.844   2.863
  919W        W 4438   4.198   6.796   1.424
  920W        W 4439   6.040   3.335   9.169
  921W        W 4440   2.580   8.717   2.394
  922W        W 4441   0.942   7.601  11.679
  923W        W 4442   5.147   8.869   9.122
  924W        W 4443   1.025   5.673  10.866
  925W        W 4444   4.408   4.095   1.956
  926W        W 4445   5.976   4.990   9.374
  927W        W 4446   3.827   9.857   1.013
  928W        W 4447   5.608   0.625   0.779
  929W        W 4448   0.598   7.442  10.896
  930W        W 4449   6.680   9.949   0.460
  931W        W 4450   6.699   0.266   3.615
  932W        W 4451   6.197   4.186   8.243
  933W        W 4452   6.461   4.597   0.475
  934W        W 4453   0.538   3.522  11.761
  935W        W 4454   2.593   0.714   0.778
  936W        W 4455   1.990   2.662   9.553
  937W        W 4456   0.177   0.565  10.738
  938W        W 4457   3.377   2.116   3.548
  939W        W 4458   5.708   2.090  10.463
  940W        W 4459   9.993   2.156  11.484
  941W        W 4460   9.645   1.431   8.612
  942W        W 4461   3.301   3.679  11.047
  943W        W 4462   1.223   3.796   1.986
  944W        W 4463   4.755   2.829   0.814
  945W        W 4464   5.013   9.828   1.264
  946W        W 4465   3.994   3.414  10.417
  947W        W 4466   2.597   3.348  11.576
  948W        W 4467   0.114   6.524   8.865
  949W        W 4468   3.323   1.394  10.039
  950W        W 4469   5.298   6.444   0.745
  951W        W 4470   9.397   2.588  11.341
  952W        W 4471   9.665   6.981   3.544
  953W        W 4472   1.679   2.165   2.411
  954W        W 4473   3.334   3.079   2.394
  955W        W 4474   5.730   1.857   2.760
  956W        W 4475   0.317   0.967   3.384
  957W        W 4476   4.676   5.503   2.700
  958W        W 4477   4.363   7.683   1.099
  959W        W 4478   6.178   7.219  11.405
  960W        W 4479   8.649   2.400   9.648
  961W        W 4480   1.410   9.331   9.804
  962W        W 4481   4.947   9.371  10.491
  963W        W 4482   5.861   0.922   1.776
  964W        W 4483   6.616   3.828   3.461
  965W        W 4484   2.744   0.851  10.631
  966W        W 4485   1.880   6.974   0.862
  967W        W 4486   3.201   7.046   2.524
  968W        W 4487   9.792   4.399   1.296
  969W        W 4488   8.503   4.690   1.411
  970W        W 4489   2.237   1.291  10.927
  971W        W 4490   5.799   5.032   1.351
  972W        W 4491   7.540   6.300   1.592
  973W        W 4492   0.652   5.783   3.133
  974W        W 4493   2.892   0.641  11.069
  975W        W 4494   4.126   1.372   1.629
  976W        W 4495   7.348   6.201   9.539
  977W        W 4496   9.038   6.243   2.658
  978W        W 4497   0.536   7.672   3.159
  979W        W 4498   9.796   0.345   2.200
  980W        W 4499   1.952   9.901  11.987
  981W        W 4500   2.207   5.044   1.851
  982W        W 4501   9.283   7.318   3.531
  983W        W 4502   5.732   6.745   2.799
  984W        W 4503   1.735   2.324   1.448
  985W        W 4504   1.659   5.201   1.072
  986W        W 4505   7.429   2.995  11.551
  987W        W 4506   9.419   5.763   1.131
  988W        W 4507   0.810   7.884   8.836
  989W        W 4508   1.763   5.243  11.775
  990W        W 4509   3.255   8.248   0.438
  991W        W 4510   3.032   7.817  11.015
  992W        W 4511   9.579   5.030  10.439
  993W        W 4512   1.846   8.195   2.934
  994W        W 4513   6.084   1.454   2.387
  995W        W 4514   3.368   3.844  11.525
  996W        W 4515   8.844   3.312  10.491
  997W        W 4516   2.906   2.844   3.192
  998W        W 4517   3.092   9.463   2.327
  999W        W 4518   2.766   1.240  10.993
 1000W        W 4519   1.301   3.321   9.313
 1001W        W 4520   7.008   7.987   0.198
 1002W        W 4521   2.398   8.950  11.340
 1003W        W 4522   3.092   6.569   9.845
 1004W        W 4523   6.635   1.320   1.725
 1005W        W 4524   6.957   4.213   2.220
 1006W        W 4525   9.892   8.268   0.831
 1007W        W 4526   5.068   3.705   8.668
 1008W        W 4527   2.079   1.781   0.390
 1009W        W 4528   4.225   8.430   8.933
 1010W        W 4529   7.897   1.751   3.795
 1011W        W 4530   0.630   0.763   1.180
 1012W        W 4531   6.054   8.530   8.834
 1013W        W 4532   3.126   8.549   2.596
 1014W        W 4533   2.998   1.856   0.489
 1015W        W 4534   9.343   7.915   0.018
 1016W        W 4535   9.940   8.433  11.538
 1017W        W 4536   5.720   8.061   1.813
 1018W        W 4537   1.278   4.055  11.484
 1019W        W 4538   9.129   5.203  10.279
 1020W        W 4539   1.189   0.217   2.629
 1021W        W 4540   2.402   6.679   1.686
 1022W        W 4541   4.109   1.864  11.172
 1023W        W 4542   3.994   8.014   3.405
 1024W        W 4543   8.400   1.204   0.539
 1025W        W 4544   9.841   4.569  11.782
 1026W        W 4545   5.675   0.769  11.914
 1027W        W 4546   3.971   4.892   8.816
 1028W        W 4547   6.498   4.690   2.891
 1029W        W 4548   6.221   5.155   3.910
 1030W        W 4549   8.948   6.465   9.632
 1031W        W 4550   9.066   8.569  10.965
 1032W        W 4551   2.751   2.710   0.222
 1033W        W 4552   9.401   4.730   2.776
 1034W        W 4553   8.627   6.079   1.260
 1035W        W 4554   3.037   6.884  11.428
 1036W        W 4555   7.943   2.752   2.940
 1037W        W 4556   2.165   4.535   1.308
 1038W        W 4557   5.548   3.205   0.074
 1039W        W 4558   5.547   2.267   0.544
 1040W        W 4559   9.809   5.256   0.962
 1041W        W 4560   1.152   5.565   3.187
 1042W        W 4561   6.053   3.506  11.391
 1043W        W 4562   2.243   2.840   9.129
 1044W        W 4563   5.507   4.370  10.750
 1045W        W 4564   4.617   8.221   8.662
 1046W        W 4565   0.774   8.582   1.820
 1047W        W 4566   8.727   9.950   2.026
 1048W        W 4567   1.249   9.996   0.826
 1049W        W 4568   3.562   2.039  11.306
 1050W        W 4569   5.592   5.198   3.102
 1051W        W 4570   4.148   8.623  11.151
 1052W        W 4571   6.798   9.383   1.885
 1053W        W 4572   3.450   2.604   0.623
 1054W        W 4573   0.212   4.301  11.487
 1055W        W 4574   5.158   7.969   2.086
 1056W        W 4575   7.514   7.561   2.283
 1057W        W 4576   7.848   0.637   0.752
 1058W        W 4577   4.221   4.263   2.410
 1059W        W 4578   4.283   3.665   1.676
 1060W        W 4579   4.134   9.916  10.645
 1061W        W 4580   7.870   2.977  10.236
 1062W        W 4581   3.166   9.080   9.758
 1063W        W 4582   6.907   6.944   3.282
 1064W        W 4583   8.268   6.405  10.992
 1065W        W 4584   9.399   4.098   0.518
 1066W        W 4585   5.313   4.401  10.291
 1067W        W 4586   7.063   9.542   0.649
 1068W        W 4587   3.816   9.269   2.345
 1069W        W 4588   3.569   1.870   8.672
 1070W        W 4589   9.835   3.890  11.090
 1071W        W 4590   4.887   5.373  11.858
 1072W        W 4591   6.969   8.605  10.778
 1073W        W 4592   9.695   3.884   0.149
 1074W        W 4593   4.217   2.691  10.901
 1075W        W 4594   1.231   6.680  10.611
 1076W        W 4595   0.969   3.262   0.430
 1077W        W 4596   1.714   8.474  11.797
 1078W        W 4597   1.298   9.725   9.525
 1079W        W 4598   5.609   8.970   0.964
 1080W        W 4599   0.181   7.277  11.168
 1081W        W 4600   0.226   5.920  11.744
 1082W        W 4601   7.581   4.691   1.821
 1083W        W 4602   9.779   5.626  11.787
 1084W        W 4603   4.505   2.259  11.640
 1085W        W 4604   8.234   4.658  11.006
 1086W        W 4605   3.530   6.014   2.900
 1087W        W 4606   4.032   6.852   9.634
 1088W        W 4607   5.179   0.572  11.452
 1089W        W 4608   1.019   1.575   1.737
 1090W        W 4609   5.346   1.197   9.249
 1091W        W 4610   6.789   8.328  11.167
 1092W        W 4611   1.889   2.271   9.908
 1093W        W 4612   8.874   5.695  10.431
 1094W        W 4613   7.117   3.546   0.883
 1095W        W 4614   9.464   8.388  10.704
 1096W        W 4615   8.030   4.995  11.505
 1097W        W 4616   5.603   0.675  10.077
 1098W        W 4617   2.416   3.612   3.194
 1099W        W 4618   7.633   3.899  10.803
 1100W        W 4619   6.245   4.586   9.492
 1101W        W 4620   9.318   9.508   0.894
 1102W        W 4621   4.710   8.638  10.470
 1103W        W 4622   7.008   8.054   2.713
 1104W        W 4623   9.784   7.358   1.042
 1105W        W 4624   6.961   5.313   0.246
 1106W        W 4625   0.670   6.564   2.139
 1107W        W 4626   3.685   2.500   2.753
 1108W        W 4627   7.514   1.568   1.510
 1109W        W 4628   1.980   9.655   3.269
 1110W        W 4629   3.645   8.491   1.742
 1111W        W 4630   3.777   4.175  10.833
 1112W        W 4631   3.575   8.913   2.643
 1113W        W 4632   6.481   6.674   3.152
 1114W        W 4633   8.897   6.487  11.696
 1115W        W 4634   0.401   8.500   9.328
 1116W        W 4635   3.202   9.876   2.661
 1117W        W 4636   0.526   0.492   3.329
 1118W        W 4637   1.147   8.854   0.354
 1119W        W 4638   8.498   5.439  10.750
 1120W        W 4639   5.968   5.537   3.255
 1121W        W 4640   3.712   9.672   8.967
 1122W        W 4641   0.833   8.786  11.463
 1123W        W 4642   4.188   0.612  10.564
 1124W        W 4643   2.060   6.499  11.403
 1125W        W 4644   1.040   4.985  10.498
 1126W        W 4645   6.435   8.182  11.491
 1127W        W 4646   3.774   5.972  10.766
 1128W        W 4647   9.801   4.058  11.668
 1129W        W 4648   0.599   7.584   2.673
 1130W        W 4649   3.187   7.346   0.886
 1131W        W 4650   0.063   5.396   2.914
 1132W        W 4651   1.462   2.957   0.185
 1133W        W 4652   3.706   5.968   0.457
 1134W        W 4653   8.552   8.923   9.028
 1135W        W 4654   9.755   6.493   9.229
 1136W        W 4655   9.117   5.742   2.820
 1137W        W 4656   8.478   2.745  11.467
 1138W        W 4657   6.813   5.002  10.231
 1139W        W 4658   1.641   3.492  10.534
 1140W        W 4659   8.623   3.933   0.935
 1141W        W 4660   7.405   9.452  11.727
 1142W        W 4661   0.364   2.598   9.955
 1143W        W 4662   5.495   7.060   1.165
 1144W        W 4663   8.915   1.259   3.249
 1145W        W 4664   9.921   0.123   8.800
 1146W        W 4665   4.894   3.423   1.538
 1147W        W 4666   4.759   3.103   3.961
 1148W        W 4667   3.051   6.278   2.240
 1149W        W 4668   7.955   3.938   1.422
 1150W        W 4669   3.148   3.418   2.049
 1151W        W 4670   0.622   9.767   2.205
 1152W        W 4671   1.379   9.321   2.178
 1153W        W 4672   1.179   4.593  10.825
 1154W        W 4673   2.206   9.258   3.499
 1155W        W 4674   4.772   3.719  10.387
 1156W        W 4675   2.152   7.100  10.406
 1157W        W 4676   6.251   6.498   2.291
 1158W        W 4677   1.123   7.127  10.365
 1159W        W 4678   6.886   9.520  11.666
 1160W        W 4679   8.577   7.640   9.840
 1161W        W 4680   2.756   7.893   2.137
 1162W        W 4681   6.203   3.223   1.367
 1163W        W 4682   3.012   9.306   1.849
 1164W        W 4683   4.917   2.181  10.773
 1165W        W 4684   8.941   6.684   1.138
 1166W        W 4685   1.195   6.171  10.970
 1167W        W 4686   6.497   2.722   9.611
 1168W        W 4687   1.756   5.263   9.241
 1169W        W 4688   3.202   5.169   2.406
 1170W        W 4689   6.844   7.193  11.867
 1171W        W 4690   7.414   9.861  11.407
 1172W        W 4691   0.596   6.188  10.163
 1173W        W 4692   6.073   0.027   2.641
 1174W        W 4693   9.240   3.663   0.820
 1175W        W 4694   7.547   7.645   0.181
 1176W        W 4695   3.028   2.839   1.390
 1177W        W 4696   0.772   2.627   0.821
 1178W        W 4697   3.866   6.657   8.762
 1179W        W 4698   5.516   4.566   0.598
 1180W        W 4699   3.859   4.039   0.846
 1181W        W 4700   4.626   8.213   0.374
 1182W        W 4701   9.861   9.127   0.299
 1183W        W 4702   1.958   8.714   3.012
 1184W        W 4703   8.864   3.912   3.171
 1185W        W 4704   7.695   1.464   2.874
 1186W        W 4705   4.667   3.983  11.348
 1187W        W 4706   4.883   2.174   2.591
 1188W        W 4707   3.664   3.470   2.175
 1189W        W 4708   3.226   3.143   3.436
 1190W        W 4709   9.793   1.488   3.598
 1191W        W 4710   0.369   9.485   9.174
 1192W        W 4711   2.610   0.567   2.553
 1193W        W 4712   3.114   7.581  11.954
 1194W        W 4713   2.577   6.185   1.657
 1195W        W 4714   7.230   8.965   9.652
 1196W        W 4715   5.634   8.339  10.340
 1197W        W 4716   6.916   4.644  11.507
 1198W        W 4717   8.488   3.482   0.188
 1199W        W 4718   4.486   8.320   2.730
 1200W        W 4719   3.725   8.267  11.894
 1201W        W 4720   7.105   8.680  11.826
 1202W        W 4721   7.752   9.159   8.755
 1203W        W 4722   2.104   6.505  10.033
 1204W        W 4723   3.742   8.105   0.635
 1205W        W 4724   1.648   4.610   1.284
 1206W        W 4725   1.827   1.676   8.579
 1207W        W 4726   5.205   3.181   2.435
 1208W        W 4727   3.630   6.405   7.939
 1209W        W 4728   5.166   7.988  10.157
 1210W        W 4729   9.604   3.338   0.659
 1211W        W 4730   8.163   5.387   1.870
 1212W        W 4731   1.264   0.773  10.378
 1213W        W 4732   8.742   6.540   3.385
 1214W        W 4733   8.769   3.801   9.938
 1215W        W 4734   9.447   8.016   0.989
 1216W        W 4735   6.453   6.027  11.985
 1217W        W 4736   4.133   4.896  11.425
 1218W        W 4737   0.409   6.201   2.714
 1219W        W 4738   3.592   4.059   0.274
 1220W        W 4739   0.805   2.573   9.124
 1221W        W 4740   8.641   7.429  11.917
 1222W        W 4741   8.397   1.375   1.017
 1223W        W 4742   6.024   0.052  11.300
 1224W        W 4743   2.703   9.676  10.839
 1225W        W 4744   9.126   4.253   9.094
 1226W        W 4745   9.260   7.392   8.640
 1227W        W 4746   6.325   1.703   0.310
 1228W        W 4747   6.631   1.660  10.094
 1229W        W 4748   1.046   4.160   0.201
 1230W        W 4749   2.690   0.382   1.683
 1231W        W 4750   1.849   1.293  11.909
 1232W        W 4751   8.544   7.078   2.523
 1233W        W 4752   1.440   1.825   1.506
 1234W        W 4753   8.519   5.007   1.822
 1235W        W 4754   0.400   2.982   2.280
 1236W        W 4755   9.839   8.011  11.287
 1237W        W 4756   3.509   6.301   0.823
 1238W        W 4757   4.981   0.267  11.849
 1239W        W 4758   7.885   4.489  11.386
 1240W        W 4759   4.133   6.997   0.481
 1241W        W 4760   9.044   2.403  10.414
 1242W        W 4761   6.448   9.762   2.404
 1243W        W 4762   7.479   1.929   0.990
 1244W        W 4763   0.151   2.437  10.457
 1245W        W 4764   2.155   2.418   2.478
 1246W        W 4765   5.801   6.515   9.971
 1247W        W 4766   7.336   8.812   1.400
 1248W        W 4767   2.741   1.672  10.709
 1249W        W 4768   0.715   2.573  10.319
 1250W        W 4769   9.079   1.697  10.893
 1251W        W 4770   4.978   7.055   2.355
 1252W        W 4771   5.725   6.473  11.765
 1253W        W 4772   9.068   5.541   0.324
 1254W        W 4773   6.982   7.697   1.632
 1255W        W 4774   4.583   6.875   8.374
 1256W        W 4775   5.509   3.276   9.055
 1257W        W 4776   8.868   4.960   9.387
 1258W        W 4777   7.416   0.281   1.926
 1259W        W 4778   5.619   8.879  11.069
 1260W        W 4779   3.036   6.061   2.717
 1261W        W 4780   1.634   6.750   0.010
 1262W        W 4781   7.594   3.588   2.495
 1263W        W 4782   2.007   7.806   3.255
 1264W        W 4783   9.207   6.758   3.520
 1265W        W 4784   3.188   8.962   2.268
 1266W        W 4785   8.666   8.397   0.262
 1267W        W 4786   2.642   0.885   1.265
 1268W        W 4787   4.779   8.761   2.674
 1269W        W 4788   4.006   8.025  10.946
 1270W        W 4789   2.697   6.228   9.312
 1271W        W 4790   5.425   5.957   9.019
 1272W        W 4791   0.440   9.015   9.459
 1273W        W 4792   9.095   0.872   9.391
 1274W        W 4793   7.588   6.262   3.659
 1275W        W 4794   3.873   3.989   2.130
 1276W        W 4795   0.418   5.117   2.635
 1277W        W 4796   8.977   8.498  10.446
 1278W        W 4797   9.846   0.427  11.486
 1279W        W 4798   2.739   1.309   8.909
 1280W        W 4799   2.720   8.761   9.133
 1281W        W 4800   8.666   9.457  11.418
 1282W        W 4801   8.706   0.340   9.118
 1283W        W 4802   5.584   3.180   0.575
 1284W        W 4803   8.051   7.105  10.968
 1285W        W 4804   6.210   4.549  10.844
 1286W        W 4805   9.723   8.162  10.202
 1287W        W 4806   3.048   9.039   2.756
 1288W        W 4807   1.444   1.758  11.057
 1289W        W 4808   0.406   3.360  11.282
 1290W        W 4809   9.724   1.241   0.923
 1291W        W 4810   6.933   0.406   1.268
 1292W        W 4811   2.040   5.194   3.174
 1293W        W 4812   2.141   2.288   0.445
 1294W        W 4813   4.364   9.381   8.544
 1295W        W 4814   0.297   1.627   3.445
 1296W        W 4815   1.792   5.215   9.775
 1297W        W 4816  10.000   5.108  10.719
 1298W        W 4817   6.966   2.073   1.027
 1299W        W 4818   2.241   6.455   9.141
 1300W        W 4819   3.966   4.269   2.947
 1301W        W 4820   3.823   2.115   9.058
 1302W        W 4821   0.633   7.201  10.432
 1303W        W 4822   7.489   7.153   0.386
 1304W        W 4823   8.133   3.295   9.912
 1305W        W 4824   0.237   2.929  10.361
 1306W        W 4825   5.236   0.693   2.486
 1307W        W 4826   8.969   0.171   0.932
 1308W        W 4827   3.733   8.570   9.080
 1309W        W 4828   7.142   3.996   1.762
 1310W        W 4829   2.827   1.761   1.928
 1311W        W 4830   8.303   7.171   2.965
 1312W        W 4831   7.333   9.847  10.532
 1313W        W 4832   3.796   0.601   2.672
 1314W        W 4833   9.394   0.603  11.697
 1315W        W 4834   3.151   4.904  11.629
 1316W        W 4835   4.750   3.113   8.140
 1317W        W 4836   3.244   4.138   3.672
 1318W        W 4837   6.988   3.704  10.148
 1319W        W 4838   6.442   9.010   9.967
 1320W        W 4839   9.977   6.494  10.906
 1321W        W 4840   5.081   2.694   9.769
 1322W        W 4841   7.888   8.546   3.535
 1323W        W 4842   6.928   3.336   2.436
 1324W        W 4843   3.879   7.139   3.761
 1325W        W 4844   1.798   9.624  10.536
 1326W        W 4845   6.696   1.702   1.380
 1327W        W 4846   2.197   7.418   8.856
 1328W        W 4847   4.945   9.038   0.424
 1329W        W 4848   9.857   0.393   0.588
 1330W        W 4849   8.898   7.663  11.196
 1331W        W 4850   5.627   9.820  11.508
 1332W        W 4851   5.065   3.020  11.982
 1333W        W 4852   7.611   0.680   3.247
 1334W        W 4853   3.998   3.225   1.852
 1335W        W 4854   7.393   3.054   0.059
 1336W        W 4855   0.731   0.551   9.015
 1337W        W 4856   2.558   1.351   9.391
 1338W        W 4857   9.255   1.465   9.479
 1339W        W 4858   0.821   1.813  11.748
 1340W        W 4859   7.050   9.776   9.703
 1341W        W 4860   0.259   9.929   9.651
 1342W        W 4861   6.175   8.112   9.710
 1343W        W 4862   3.219   9.030  10.741
 1344W        W 4863   1.578   0.772   1.380
 1345W        W 4864   8.483   3.580   2.763
 1346W        W 4865   1.386   7.060   9.134
 1347W        W 4866   0.666   7.457   2.180
 1348W        W 4867   8.483   3.632  11.213
 1349W        W 4868   3.507   5.516  11.692
 1350W        W 4869   2.307   3.161  10.088
 1351W        W 4870   0.847   6.361   1.460
 1352W        W 4871   3.465   5.730   9.819
 1353W        W 4872   8.954   1.367   2.769
 1354W        W 4873   2.608   8.489  11.302
 1355W        W 4874   1.839   9.315   2.431
 1356W        W 4875   4.502   2.383  10.101
 1357W        W 4876   7.878   3.180   2.671
 1358W        W 4877   2.254   3.795  10.919
 1359W        W 4878   1.409   9.318  11.876
 1360W        W 4879   7.347   7.995  11.819
 1361W        W 4880   4.714   1.388   0.208
 1362W        W 4881   7.513   8.379   1.618
 1363W        W 4882   4.111   2.908  10.419
 1364W        W 4883   5.633   4.187   1.544
 1365W        W 4884   3.683   0.368   0.733
 1366W        W 4885   1.720   0.020  10.851
 1367W        W 4886   9.025   6.974   8.900
 1368W        W 4887   1.015   4.063   8.999
 1369W        W 4888   9.428   0.404   0.890
 1370W        W 4889   6.555   8.029   2.502
 1371W        W 4890   2.138   0.379  10.452
 1372W        W 4891   5.206   8.973  11.411
 1373W        W 4892   2.899   3.833   8.450
 1374W        W 4893   1.869   5.422  10.801
 1375W        W 4894   2.313   3.532   1.237
 1376W        W 4895   4.352   4.008   0.649
 1377W        W 4896   4.066   6.091   3.079
 1378W        W 4897   9.094   4.995  11.219
 1379W        W 4898   1.930   6.977   9.046
 1380W        W 4899   6.620   5.553   2.362
 1381W        W 4900   8.541   3.772  11.704
 1382W        W 4901   7.016   1.882  10.608
 1383W        W 4902   5.795   2.665  11.336
 1384W        W 4903   7.451   8.153   2.941
 1385W        W 4904   6.298   6.160  10.307
 1386W        W 4905   6.448   5.739  11.081
 1387W        W 4906   3.079   2.168  11.455
 1388W        W 4907   4.311   7.615   3.209
 1389W        W 4908   7.703   4.621   0.794
 1390W        W 4909   6.662   4.118   1.620
 1391W        W 4910   4.008   2.284   1.827
 1392W        W 4911   4.737   9.599   2.469
 1393W        W 4912   0.975   1.223  10.399
 1394W        W 4913   4.447   7.420   1.917
 1395W        W 4914   4.936   8.022   3.890
 1396W        W 4915   9.410   9.696  11.765
 1397W        W 4916   4.688   2.324   0.635
 1398W        W 4917   5.338   3.450   1.839
 1399W        W 4918   1.218   0.962   0.501
 1400W        W 4919   8.267   5.629   2.518
 1401W        W 4920   0.019   0.231   1.721
 1402W        W 4921   3.679   6.871   2.474
 1403W        W 4922   1.344   4.578   0.336
 1404W        W 4923   2.962   4.676  10.534
 1405W        W 4924   8.722   7.243  11.446
 1406W        W 4925   0.732   2.093  11.101
 1407W        W 4926   1.058   3.043   3.082
 1408W        W 4927   1.078   8.408   9.355
 1409W        W 4928   1.869   7.065   2.255
 1410W        W 4929   4.567   4.118   9.168
 1411W        W 4930   5.965   7.184   0.907
 1412W        W 4931   9.230   5.219   2.792
 1413W        W 4932   4.166   6.360   9.558
 1414W        W 4933   2.472   1.690   1.120
 1415W        W 4934   4.298   3.745   9.606
 1416W        W 4935   5.879   9.413   3.029
 1417W        W 4936   8.479   6.579   1.355
 1418W        W 4937   1.379   7.161   9.911
 1419W        W 4938   3.137   9.522  10.007
 1420W        W 4939   4.187   0.431   9.156
 1421W        W 4940   3.257   1.128   1.342
 1422W        W 4941   3.136   6.502   9.319
 1423W        W 4942   8.921   4.647   9.782
 1424W        W 4943   2.187   0.122   0.424
 1425W        W 4944   3.282   1.786   2.723
 1426W        W 4945   0.400   3.997  11.856
 1427W        W 4946   5.452   5.756  10.278
 1428W        W 4947   8.861   7.917   0.210
 1429W        W 4948   2.548   9.938   1.354
 1430W        W 4949   5.586   3.985   3.389
 1431W        W 4950   3.486   0.860   0.766
 1432W        W 4951   0.067   3.080   3.105
 1433W        W 4952   5.534   1.201  10.684
 1434W        W 4953   7.765   7.477   1.268
 1435W        W 4954   4.717   3.919   1.553
 1436W        W 4955   4.025   8.168  10.021
 1437W        W 4956   8.608   5.381   0.639
 1438W        W 4957   5.061   4.642  10.705
 1439W        W 4958   9.760   8.623   2.839
 1440W        W 4959   9.016   5.488  11.355
 1441W        W 4960   9.985   3.081  11.965
 1442W        W 4961   2.284   1.240   1.416
 1443W        W 4962   7.022   6.845  10.193
 1444W        W 4963   7.661   8.851   1.801
 1445W        W 4964   2.061   1.274   0.396
 1446W        W 4965   1.675   2.656   3.107
 1447W        W 4966   5.875   0.512   8.936
 1448W        W 4967   7.860   0.798   1.237
 1449W        W 4968   1.862   5.706   0.408
 1450W        W 4969   1.761   9.871   8.793
 1451W        W 4970   2.212   2.086   1.360
 1452W        W 4971   4.909   2.784   8.947
 1453W        W 4972   2.218   1.686   9.888
 1454W        W 4973   9.406   3.244   3.009
 1455W        W 4974   2.668   9.492   9.783
 1456W        W 4975   6.953   5.992   2.329
 1457W        W 4976   6.377   6.757  11.040
 1458W        W 4977   8.363   2.867  10.077
 1459W        W 4978   0.162   9.139   1.142
 1460W        W 4979   8.188   9.313   9.133
 1461W        W 4980   3.689   1.633   2.452
 1462W        W 4981   3.669   9.045   9.841
 1463W        W 4982   2.010   8.649   3.522
 1464W        W 4983   3.920   9.221   3.580
 1465W        W 4984   6.070   5.981   2.543
 1466W        W 4985   7.462   6.072   2.410
 1467W        W 4986   5.687   7.022   9.824
 1468W        W 4987   1.767   1.791  10.127
 1469W        W 4988   9.778   9.867   2.014
 1470W        W 4989   7.840   1.597  11.861
 1471W        W 4990   8.582   5.579   1.127
 1472W        W 4991   4.910   2.672   0.320
 1473W        W 4992   2.582   1.972   8.831
 1474W        W 4993   6.248   5.906   0.455
 1475W        W 4994   8.450   3.123   9.028
 1476W        W 4995   6.096   5.450   0.253
 1477W        W 4996   9.364   3.765   3.133
 1478W        W 4997   3.019   1.055   0.891
 1479W        W 4998   8.580   8.381   1.916
 1480W        W 4999   8.463   0.043   9.672
 1481W        W 5000   9.443   1.408  11.238
 1482W        W 5001   6.830   0.242   9.507
 1483W        W 5002   6.999   4.882   3.582
 1484W        W 5003   1.423   1.503   1.079
 1485W        W 5004   8.495   0.327  11.670
 1486W        W 5005   2.321   6.012  10.083
 1487W        W 5006   5.790   7.284  10.673
 1488W        W 5007   2.719   8.868   0.540
 1489W        W 5008   6.656   4.133   0.345
 1490W        W 5009   3.795   4.762   1.694
 1491W        W 5010   6.955   3.427   3.658
 1492W        W 5011   3.183   4.168   9.656
 1493W        W 5012   0.910   9.344   2.368
 1494W        W 5013   7.385   6.535   2.071
 1495W        W 5014   9.300   3.191   9.313
 1496W        W 5015   7.106   6.103   3.675
 1497W        W 5016   2.211   4.972  11.531
 1498W        W 5017   6.479   4.829  11.260
 1499W        W 5018   9.444   8.979   0.574
 1500W        W 5019   5.013   6.720   8.660
 1501W        W 5020   1.225   2.879   0.671
 1502W        W 5021   7.116   2.501   1.331
 1503W        W 5022   1.028   7.423   3.028
 1504W        W 5023   8.120   3.801   0.958
 1505W        W 5024   7.553   0.762  10.825
 1506W        W 5025   8.562   9.857   3.016
 1507W        W 5026   7.696   4.714   2.345
 1508W        W 5027   9.408   0.456  10.695
 1509W        W 5028   9.890   3.059   2.210
 1510W        W 5029   8.534   2.313  10.523
 1511W        W 5030   3.077   5.062   3.285
 1512W        W 5031   4.842   6.020   1.445
 1513W        W 5032   4.031   3.913   1.307
 1514W        W 5033   3.616   3.729   8.476
 1515W        W 5034   3.684   0.009   1.498
 1516W        W 5035   8.488   7.031  10.127
 1517W        W 5036   5.100   5.251   1.868
 1518W        W 5037   3.353   0.877   1.782
 1519W        W 5038   9.493   2.439   1.731
 1520W        W 5039   8.270   6.662   9.045
 1521W        W 5040   8.937   3.085   2.674
 1522W        W 5041   1.715   6.319   2.857
 1523W        W 5042   4.953   0.661  10.970
 1524W        W 5043   8.934   7.095   0.797
 1525W        W 5044   4.004   4.332   0.466
 1526W        W 5045   1.578   6.927   3.565
 1527W        W 5046   9.215   6.079   1.857
 1528W        W 5047   1.313   6.668   0.394
 1529W        W 5048   7.453   0.919   0.911
 1530W        W 5049   9.813   3.244   2.709
 1531W        W 5050   4.065   3.212  10.878
 1532W        W 5051   5.405   2.319   9.968
 1533W        W 5052   8.109   8.419   9.424
 1534W        W 5053   7.643   2.334   2.215
 1535W        W 5054   7.537   1.108   8.539
 1536W        W 5055   6.140   6.744   9.664
 1537W        W 5056   7.434   8.540   9.868
 1538W        W 5057   9.244   4.484  11.111
 1539W        W 5058   3.322   7.969   0.878
 1540W        W 5059   4.144   2.619   3.066
 1541W        W 5060   0.218   1.776  10.251
 1542W        W 5061   9.197   3.137   0.820
 1543W        W 5062   3.499   1.206  10.492
 1544W        W 5063   5.937   2.736  10.316
 1545W        W 5064   4.280   4.443   8.563
 1546W        W 5065   7.402   9.564   0.228
 1547W        W 5066   4.995   6.596  10.585
 1548W        W 5067   7.806   6.342   3.136
 1549W        W 5068   1.700   5.783   9.098
 1550W        W 5069   6.397   1.361  11.515
 1551W        W 5070   0.015   5.870   0.181
 1552W        W 5071   1.857   9.204   9.580
 1553W        W 5072   5.383   8.490  11.333
 1554W        W 5073   1.865   4.703  11.249
 1555W        W 5074   4.715   1.424   0.714
 1556W        W 5075   9.735   7.454   3.366
 1557W        W 5076   5.504   2.243   1.555
 1558W        W 5077   6.941   5.590   8.515
 1559W        W 5078   9.628   6.471   8.682
 1560W        W 5079   1.355   8.445   0.130
 1561W        W 5080   6.592   7.818   9.461
 1562W        W 5081   8.484   6.967   1.029
 1563W        W 5082   9.446   4.178   2.808
 1564W        W 5083   5.064   6.416  11.065
 1565W        W 5084   5.869   1.875   1.268
 1566W        W 5085   4.630   3.543   8.431
 1567W        W 5086   8.094   9.425  11.197
 1568W        W 5087   4.032   3.276   9.507
 1569W        W 5088   9.868   1.311  11.477
 1570W        W 5089   0.239   1.048   1.003
 1571W        W 5090   6.362   3.736   0.313
 1572W        W 5091   2.618   1.950  11.579
 1573W        W 5092   7.701   2.106  11.688
 1574W        W 5093   5.195   7.009   9.976
 1575W        W 5094   3.775   1.731   0.921
 1576W        W 5095   4.156   3.198   9.985
 1577W        W 5096   0.311   3.741  10.935
 1578W        W 5097   8.525   6.609   0.083
 1579W        W 5098   1.227   1.588  11.934
 1580W        W 5099   9.411   3.159   2.415
 1581W        W 5100   2.859   0.138  11.043
 1582W        W 5101   7.545   1.176  11.985
 1583W        W 5102   2.896   4.322   0.832
 1584W        W 5103   0.902   0.083   8.916
 1585W        W 5104   7.041   5.444   1.610
 1586W        W 5105   8.881   7.051   3.292
 1587W        W 5106   8.066   0.059  10.892
 1588W        W 5107   7.239   4.699  10.204
 1589W        W 5108   4.753   3.692   9.397
 1590W        W 5109   6.714   5.203   8.955
 1591W        W 5110   5.447   7.611   1.827
 1592W        W 5111   5.748   6.180  10.398
 1593W        W 5112   7.824   6.630  10.874
 1594W        W 5113   7.472   1.857   1.973
 1595W        W 5114   9.134   3.053   9.890
 1596W        W 5115   1.111   5.726   2.217
 1597W        W 5116   2.201   2.582   1.353
 1598W        W 5117   8.777   4.315   0.487
 1599W        W 5118   8.084   2.797   8.874
 1600W        W 5119   3.585   3.638   0.717
 1601W        W 5120   3.388   0.346  11.065
 1602W        W 5121   9.677   8.585   8.574
 1603W        W 5122   0.219   0.013   0.836
 1604W        W 5123   7.028   9.035  10.477
 1605W        W 5124   4.989   4.047   3.273
 1606W        W 5125   7.124   5.971  11.485
 1607W        W 5126   3.279   0.762  11.393
 1608W        W 5127   5.200   0.058  11.341
 1609W        W 5128   3.831   8.327  10.504
 1610W        W 5129   1.801   3.123   9.387
 1611W        W 5130   9.862   8.031  10.700
 1612W        W 5131   7.414   7.500   9.985
 1613W        W 5132   4.910   5.369   1.415
 1614W        W 5133   7.460   5.621  10.233
 1615W        W 5134   4.950   7.527  11.605
 1616W        W 5135   5.167   0.722  11.954
 1617W        W 5136   9.030   3.160   8.726
 1618W        W 5137   3.061   7.875  11.521
 1619W        W 5138   4.012   2.202  10.802
 1620W        W 5139   9.352   9.962   0.658
 1621W        W 5140   9.515   6.482   2.727
 1622W        W 5141   2.314   0.081   1.891
 1623W        W 5142   8.705   1.843  11.725
 1624W        W 5143   3.895   3.568   8.067
 1625W        W 5144   8.498   0.330   0.773
 1626W        W 5145   6.619   3.228  10.460
 1627W        W 5146   7.838   6.092  10.861
 1628W        W 5147   3.201   2.928   0.321
 1629W        W 5148   2.760   6.429  11.040
 1630W        W 5149   3.645   0.985   3.015
 1631W        W 5150   7.735   8.471  11.291
 1632W        W 5151   3.656   8.815  10.584
 1633W        W 5152   9.841   9.984  11.769
 1634W        W 5153   4.591   3.267  10.247
 1635W        W 5154   1.055   9.672   0.477
 1636W        W 5155   6.644   7.521   3.248
 1637W        W 5156   1.060   2.829  10.719
 1638W        W 5157   5.437   2.743   0.288
 1639W        W 5158   3.187   8.280  10.114
 1640W        W 5159   3.558   4.257  11.280
 1641W        W 5160   0.655   4.904   0.921
 1642W        W 5161   3.545   5.905   9.206
 1643W        W 5162   4.132   0.074   1.831
 1644W        W 5163   1.839   5.868   2.678
 1645W        W 5164   0.403   9.313   8.649
 1646W        W 5165   4.169   2.254   2.705
 1647W        W 5166   3.762   6.399  10.461
 1648W        W 5167   3.732   6.136  10.018
 1649W        W 5168   2.059   1.490   0.876
 1650W        W 5169   9.630   1.017   1.394
 1651W        W 5170   4.611   7.205   3.169
 1652W        W 5171   2.671   8.992   9.611
 1653W        W 5172   6.768   9.951   1.373
 1654W        W 5173   5.149   4.999   3.298
 1655W        W 5174   3.367   1.087   0.304
 1656W        W 5175   4.311   9.108  11.232
 1657W        W 5176   3.764   9.190   1.127
 1658W        W 5177   0.471   4.172   9.537
 1659W        W 5178   1.953   2.779   2.159
 1660W        W 5179   2.386   8.848   8.752
 1661W        W 5180   1.345   7.653   9.961
 1662W        W 5181   9.995   8.073   2.230
 1663W        W 5182   8.135   5.405   0.872
 1664W        W 5183   0.944   0.888   9.986
 1665W        W 5184   1.347   4.920  11.956
 1666W        W 5185   4.174   8.524   0.664
 1667W        W 5186   5.217   5.952   0.455
 1668W        W 5187   2.617   6.418  10.043
 1669W        W 5188   0.911   7.229   9.526
 1670W        W 5189   7.848   6.768   2.127
 1671W        W 5190   0.023   2.142   9.407
 1672W        W 5191   1.685   0.002   9.306
 1673W        W 5192   8.868   0.911   2.548
 1674W        W 5193   4.535   5.159   1.750
 1675W        W 5194   7.503   9.415   0.921
 1676W        W 5195   5.590   3.841  11.825
 1677W        W 5196   6.461   6.029   2.221
 1678W        W 5197   7.454   0.306   0.056
 1679W        W 5198   6.322   0.482   9.221
 1680W        W 5199   0.611   9.059   9.967
 1681W        W 5200   7.939   0.206   2.552
 1682W        W 5201   2.815   5.525   3.228
 1683W        W 5202   7.293   1.788   2.852
 1684W        W 5203   6.038   4.634   3.108
 1685W        W 5204   0.904   2.480   9.861
 1686W        W 5205   2.894   9.572   1.429
 1687W        W 5206   5.118   4.962   0.078
 1688W        W 5207   9.586   0.080   3.369
 1689W        W 5208   5.579   2.556   9.563
 1690W        W 5209   7.418   8.856  11.052
 1691W        W 5210   6.289   4.414   4.083
 1692W        W 5211   6.893   8.186  11.711
 1693W        W 5212   6.142   7.627  10.824
 1694W        W 5213   6.383   6.981   8.738
 1695W        W 5214   3.523   7.594   0.576
 1696W        W 5215   8.032   9.541   1.622
 1697W        W 5216   7.217   6.178  10.081
 1698W        W 5217   0.782   3.960   2.947
 1699W        W 5218   4.630   6.526   2.425
 1700W        W 5219   6.678   0.561  10.462
 1701W        W 5220   8.636   9.068   9.838
 1702W        W 5221   4.244   8.763   2.895
 1703W        W 5222   7.882   8.867   0.456
 1704W        W 5223   3.358   9.168   3.149
 1705W        W 5224   9.792   6.691  10.471
 1706W        W 5225   8.654   3.159  11.823
 1707W        W 5226   2.130   1.467   1.922
 1708W        W 5227   7.201   7.085  11.466
 1709W        W 5228   0.103   7.060   3.290
 1710W        W 5229   3.025   6.380   8.613
 1711W        W 5230   0.696   7.934  10.955
 1712W        W 5231   1.223   3.096  11.157
 1713W        W 5232   1.625   1.222   8.751
 1714W        W 5233   9.761   7.475   8.977
 1715W        W 5234   5.934   9.512  11.791
 1716W        W 5235   4.049   7.165  10.605
 1717W        W 5236   3.365   0.445  10.098
 1718W        W 5237   0.847   8.504   1.293
 1719W        W 5238   8.048   0.178   9.980
 1720W        W 5239   9.551   9.236   3.470
 1721W        W 5240   4.886   8.410  11.344
 1722W        W 5241   2.674   8.286  10.359
 1723W        W 5242   5.988   9.249   1.275
 1724W        W 5243   8.135   7.493   2.616
 1725W        W 5244   0.908   4.101   1.158
 1726W        W 5245   2.083   0.765   1.271
 1727W        W 5246   9.815   8.356   3.274
 1728W        W 5247   5.212   8.023   9.582
 1729W        W 5248   8.358   1.755   0.537
 1730W        W 5249   0.473   5.647   0.337
 1731W        W 5250   0.292   7.967   0.738
 1732W        W 5251   6.282   5.893   1.156
 1733W        W 5252   8.686   8.840  10.699
 1734W        W 5253   4.380   9.730   0.590
 1735W        W 5254   5.330   7.493  10.675
 1736W        W 5255   6.555   0.237   2.126
 1737W        W 5256   3.962   5.113  10.973
 1738W        W 5257   1.748   2.653   9.097
 1739W        W 5258   7.579   0.377  10.118
 1740W        W 5259   1.612   8.033  10.467
 1741W        W 5260   4.699   6.068   4.229
 1742W        W 5261   2.132   2.528  11.568
 1743W        W 5262   0.220   7.503   3.526
 1744W        W 5263   1.453   5.355   0.187
 1745W        W 5264   7.070   7.838   3.221
 1746W        W 5265   2.275   7.404  11.562
 1747W        W 5266   5.781   9.627   8.566
 1748W        W 5267   8.667   3.275  10.009
 1749W        W 5268   4.370   7.812   9.980
 1750W        W 5269   4.596   9.524   1.359
 1751W        W 5270   3.008   1.852   9.952
 1752W        W 5271   6.336   5.083   1.506
 1753W        W 5272   4.476   5.095  10.781
 1754W        W 5273   3.404   6.793   0.787
 1755W        W 5274   9.595   1.810  11.535
 1756W        W 5275   5.014   5.772   8.674
 1757W        W 5276   3.152   5.964   1.073
 1758W        W 5277   5.139   0.143   1.701
 1759W        W 5278   1.394   0.190   2.092
 1760W        W 5279   9.101   6.730   2.522
 1761W        W 5280   7.192   0.820   2.164
 1762W        W 5281   7.688   4.576   9.518
 1763W        W 5282   3.773   4.433  10.375
 1764W        W 5283   8.463   2.638   0.509
 1765W        W 5284   1.252   3.316   2.199
 1766W        W 5285   2.786   8.858   1.949
 1767W        W 5286   1.404   9.404  10.861
 1768W        W 5287   3.282   3.140   2.907
 1769W        W 5288   2.862   5.565   8.875
 1770W        W 5289   8.417   4.524   8.336
 1771W        W 5290   1.335   6.152   2.038
 1772W        W 5291   2.003   0.483   9.488
 1773W        W 5292   1.887   9.140  10.653
 1774W        W 5293   0.004   6.518   1.398
 1775W        W 5294   9.110   6.615   3.027
 1776W        W 5295   8.805   3.122  11.329
 1777W        W 5296   5.865   4.158   3.797
 1778W        W 5297   7.245   9.050   8.784
 1779W        W 5298   0.444   5.665   2.654
 1780W        W 5299   7.697   9.876   1.820
 1781W        W 5300   0.661   5.151   2.012
 1782W        W 5301   6.444   9.793   2.918
 1783W        W 5302   7.083   1.409   1.252
 1784W        W 5303   6.846   0.075  10.572
 1785W        W 5304   1.151   3.310  10.656
 1786W        W 5305   5.470   8.919   1.913
 1787W        W 5306   1.437   4.111   1.209
 1788W        W 5307   5.096   1.738   2.350
 1789W        W 5308   7.857   9.784   3.285
 1790W        W 5309   3.251   0.911   9.879
 1791W        W 5310   6.147   0.205   0.670
 1792W        W 5311   9.920   2.701   1.810
 1793W        W 5312   5.952   6.502   3.234
 1794W        W 5313   6.384   9.053   0.181
 1795W        W 5314   4.142   8.011   8.609
 1796W        W 5315   3.158   6.021   9.523
 1797W        W 5316   7.984   1.436   0.345
 1798W        W 5317   7.531   9.848   9.504
 1799W        W 5318   1.720   7.461   0.807
 1800W        W 5319   6.102   3.699  11.862
 1801W        W 5320   5.909   0.629   3.785
 1802W        W 5321   4.651   1.415   9.885
 1803W        W 5322   2.915   1.726  11.199
 1804W        W 5323   8.032   6.995   2.537
 1805W        W 5324   2.989   5.548   9.721
 1806W        W 5325   2.764   3.042   0.610
 1807W        W 5326   4.005   1.859   9.971
 1808W        W 5327   2.710   9.313   8.203
 1809W        W 5328   5.246   6.229   8.614
 1810W        W 5329   8.035   8.879  10.405
 1811W        W 5330   1.336   4.067  10.976
 1812W        W 5331   5.128   4.500   3.456
 1813W        W 5332   8.174   4.382   3.550
 1814W        W 5333   5.725   6.320   8.259
 1815W        W 5334   8.629   0.831  11.660
 1816W        W 5335   1.256   6.518   2.829
 1817W        W 5336   3.576   5.304  10.491
 1818W        W 5337   6.646   8.122   0.529
 1819W        W 5338   6.566   6.538   8.505
 1820W        W 5339   4.486   9.261  10.759
 1821W        W 5340   9.976   8.998   8.628
 1822W        W 5341   8.853   7.395   1.813
 1823W        W 5342   8.442   4.749   9.592
 1824W        W 5343   8.814   5.776  10.956
 1825W        W 5344   3.697   5.548   2.737
 1826W        W 5345   1.234   2.204  11.118
 1827W        W 5346   6.496   2.041   9.158
 1828W        W 5347   1.003   1.733   1.241
 1829W        W 5348   1.469   4.972  11.456
 1830W        W 5349   2.829   3.158   2.493
 1831W        W 5350   9.974   3.920   1.234
 1832W        W 5351   3.410   0.249   1.141
 1833W        W 5352   3.811   1.247   1.244
 1834W        W 5353   9.143   3.675   8.805
 1835W        W 5354   3.731   7.000   1.383
 1836W        W 5355   0.449   1.818   9.359
 1837W        W 5356   4.551   8.720   0.359
 1838W        W 5357   4.711   6.845  10.030
 1839W        W 5358   3.699   0.766  11.843
 1840W        W 5359   0.171   8.044   0.256
 1841W        W 5360   3.990   0.343   2.246
 1842W        W 5361   7.606   9.796   2.760
 1843W        W 5362   4.996   6.068   0.916
 1844W        W 5363   4.786   8.319  10.867
 1845W        W 5364   6.071   1.353  10.770
 1846W        W 5365   6.044   2.269   3.138
 1847W        W 5366   5.983   4.041   8.690
 1848W        W 5367   0.693   3.589  10.621
 1849W        W 5368   4.685   6.906   2.757
 1850W        W 5369   7.607   4.921   9.909
 1851W        W 5370   5.053   6.125  10.251
 1852W        W 5371   7.302   1.149  10.524
 1853W        W 5372   9.798   7.160   1.929
 1854W        W 5373   2.530   5.972  11.684
 1855W        W 5374   6.311   7.870   3.468
 1856W        W 5375   8.650   3.508   8.675
 1857W        W 5376   2.637   4.036   0.383
 1858W        W 5377   8.260   1.472  10.473
 1859W        W 5378   8.885   5.466   9.474
 1860W        W 5379   1.200   3.738   0.450
 1861W        W 5380   8.378   5.221   2.826
 1862W        W 5381   2.742   4.017   8.893
 1863W        W 5382   0.584   0.211   0.050
 1864W        W 5383   6.833   2.808   8.893
 1865W        W 5384   1.284   5.485   9.104
 1866W        W 5385   3.719   4.302   2.506
 1867W        W 5386   0.020   1.979  10.685
 1868W        W 5387   6.067   6.574   8.613
 1869W        W 5388   5.722   8.506   0.666
 1870W        W 5389   9.749   3.250   1.749
 1871W        W 5390   4.023   9.562   1.898
 1872W        W 5391   9.324   5.687  10.997
 1873W        W 5392   2.597   8.547   0.974
 1874W        W 5393   2.437   0.351   9.247
 1875W        W 5394   8.534   6.062   2.446
 1876W        W 5395   6.910   2.110   2.781
 1877W        W 5396   0.619   3.520   0.693
 1878W        W 5397   9.009   5.325  10.788
 1879W        W 5398   5.810   5.155  10.223
 1880W        W 5399   8.910   0.186   0.412
 1881W        W 5400   2.741   3.383   1.006
 1882W        W 5401   1.948   2.605  10.710
 1883W        W 5402   7.543   1.310  10.095
 1884W        W 5403   9.578   3.830   3.571
 1885W        W 5404   6.798   5.644   2.857
 1886W        W 5405   3.301   8.995   0.905
 1887W        W 5406   7.262   5.491  11.337
 1888W        W 5407   3.782   2.510   9.471
 1889W        W 5408   9.880   9.316  11.069
 1890W        W 5409   0.045   3.609  11.857
 1891W        W 5410   6.314   9.689   1.333
 1892W        W 5411   4.699   1.474  10.539
 1893W        W 5412   5.469   4.684   2.976
 1894W        W 5413   1.832   7.833   2.546
 1895W        W 5414   2.362   4.611   2.382
 1896W        W 5415   0.854   6.544  10.956
 1897W        W 5416   9.933   5.222  11.201
 1898W        W 5417   2.228   9.673   9.988
 1899W        W 5418   3.765   2.630   1.048
 1900W        W 5419   2.376   7.027   0.693
 1901W        W 5420   8.532   6.229   0.423
 1902W        W 5421   3.901   6.690   0.920
 1903W        W 5422   0.500   4.092   9.037
 1904W        W 5423   4.223   8.845  10.666
 1905W        W 5424   3.199   0.721   3.177
 1906W        W 5425   0.307   2.034   1.295
 1907W        W 5426   9.459   9.371  10.748
 1908W        W 5427   8.035   1.991   2.181
 1909W        W 5428   6.444   9.305   1.024
 1910W        W 5429   8.506   6.814  11.608
 1911W        W 5430   2.367   8.441   0.421
 1912W        W 5431   6.787   9.796   9.253
 1913W        W 5432   7.453   2.048  10.381
 1914W        W 5433   2.567   6.988  11.305
 1915W        W 5434   4.595   4.724   9.861
 1916W        W 5435   4.626   1.276   2.983
 1917W        W 5436   0.226   0.421   9.108
 1918W        W 5437   9.432   5.852  11.469
 1919W        W 5438   1.356   9.214   1.679
 1920W        W 5439   3.542   9.256  10.296
 1921W        W 5440   4.761   9.500   0.868
 1922W        W 5441   8.571   8.180  11.521
 1923W        W 5442   0.127   3.714   9.805
 1924W        W 5443   8.534   8.560   9.727
 1925W        W 5444   8.791   5.615  11.800
 1926W        W 5445   8.920   2.599   1.998
 1927W        W 5446   4.066   7.573   9.184
 1928W        W 5447   8.489   8.003  10.514
 1929W        W 5448   7.890   5.911   1.626
 1930W        W 5449   3.235   4.198   9.123
 1931W        W 5450   8.176   6.638   8.516
 1932W        W 5451   2.663   5.268   1.165
 1933W        W 5452   5.385   9.757   1.962
 1934W        W 5453   8.038   0.669   2.323
 1935W        W 5454   0.280   5.953   8.632
 1936W        W 5455   4.650   8.496   1.447
 1937W        W 5456   8.581   8.429   9.222
 1938W        W 5457   1.524   6.728   8.766
 1939W        W 5458   2.323   3.277   0.736
 1940W        W 5459   6.665   4.532  11.975
 1941W        W 5460   0.801   2.266   2.524
 1942W        W 5461   5.041   0.884   8.976
 1943W        W 5462   4.631   2.649   3.234
 1944W        W 5463   8.113   7.675   3.098
 1945W        W 5464   8.431   4.179   1.342
 1946W        W 5465   9.986   6.848   0.507
 1947W        W 5466   1.305   6.303   9.543
 1948W        W 5467   6.402   0.994   0.848
 1949W        W 5468   1.570   7.476   2.285
 1950W        W 5469   4.201   3.605   2.186
 1951W        W 5470   1.236   8.510   9.950
 1952W        W 5471   4.777   2.011   9.431
 1953W        W 5472   5.676   9.685  10.060
 1954W        W 5473   1.911   3.929   9.819
 1955W        W 5474   9.111   6.171  10.971
 1956W        W 5475   5.957   4.436   0.367
 1957W        W 5476   8.865   7.780   1.440
 1958W        W 5477   7.384   0.857   9.882
 1959W        W 5478   0.044   9.638   0.466
 1960W        W 5479   5.170   6.584   2.342
 1961W        W 5480   7.078   1.076   1.716
 1962W        W 5481   1.199   7.109   8.633
 1963W        W 5482   4.708   7.975   1.343
 1964W        W 5483   0.689   3.893  11.388
 1965W        W 5484   0.464   2.378  11.442
 1966W        W 5485   5.860   9.405  10.801
 1967W        W 5486   5.562   1.872   0.870
 1968W        W 5487   7.343   7.686   2.751
 1969W        W 5488   4.354   3.123   2.203
 1970W        W 5489   8.888   9.218   0.946
 1971W        W 5490   0.972   5.777   2.739
 1972W        W 5491   1.631   5.010   2.487
 1973W        W 5492   5.321   2.343   4.370
 1974W        W 5493   4.644   6.978   1.179
 1975W        W 5494   2.103   3.512  11.389
 1976W        W 5495   8.349   3.816   3.206
 1977W        W 5496   6.402   8.830   3.632
 1978W        W 5497   1.390   8.112   2.737
 1979W        W 5498   3.525   4.103   8.147
 1980W        W 5499   6.226   5.652   3.708
 1981W        W 5500   8.384   4.516   0.241
 1982W        W 5501   0.046   9.825  10.211
 1983W        W 5502   5.247   3.543   0.762
 1984W        W 5503   5.610   7.882   2.292
 1985W        W 5504   5.765   7.409   0.040
 1986W        W 5505   2.694   8.602   2.888
 1987W        W 5506   2.916   1.835   3.664
 1988W        W 5507   4.469   2.342  10.606
 1989W        W 5508   5.214   9.491   2.990
 1990W        W 5509   6.862   8.966   1.594
 1991W        W 5510   8.463   7.157  10.647
 1992W        W 5511   0.088   4.160   1.695
 1993W        W 5512   9.800   1.018   3.277
 1994W        W 5513   5.035   9.204   2.617
 1995W        W 5514   1.193   8.479  10.471
 1996W        W 5515   9.623   2.402   3.554
 1997W        W 5516   0.891   0.622   0.276
 1998W        W 5517   1.587   9.042   1.262
 1999W        W 5518   5.471   7.299   3.607
 2000W        W 5519   7.474   1.083   1.395
 2001W        W 5520   6.196   0.760   0.028
 2002W        W 5521   7.801   0.374  10.572
 2003W        W 5522   0.502   1.574   1.292
 2004W        W 5523   5.501   5.079  11.293
 2005W        W 5524   2.357   4.372   0.784
 2006W        W 5525   7.651   7.605  10.435
 2007W        W 5526   4.837   9.961   0.619
 2008W        W 5527   7.293   2.107   9.054
 2009W        W 5528   7.214   5.673   3.985
 2010W        W 5529   1.231   2.234   1.295
 2011W        W 5530   4.247   5.261   3.315
 2012W        W 5531   3.376   5.890   7.939
 2013W        W 5532   1.061   7.049   3.525
 2014W        W 5533   0.325   3.409   3.485
 2015W        W 5534   8.912   7.792  11.690
 2016W        W 5535   5.491   4.230  11.493
 2017W        W 5536   2.610   7.933  10.731
 2018W        W 5537   5.608   1.045   3.595
 2019W        W 5538   4.313   4.679   1.797
 2020W        W 5539   4.953   6.826   3.198
 2021W        W 5540   9.417   7.972  11.005
 2022W        W 5541   9.340   8.998  11.141
 2023W        W 5542   6.013   8.819   0.415
 2024W        W 5543   0.404   7.599   0.396
 2025W        W 5544   8.209   2.881   9.599
 2026W        W 5545   6.162   7.939   0.598
 2027W        W 5546   2.744   7.476  11.293
 2028W        W 5547   0.439   2.722   1.843
 2029W        W 5548   6.888   6.274  11.848
 2030W        W 5549   6.821   7.356   9.105
 2031W        W 5550   2.777   9.756   8.959
 2032W        W 5551   6.748   3.554   8.511
 2033W        W 5552   1.773   8.774   9.306
 2034W        W 5553   5.642   3.823   9.907
 2035W        W 5554   5.956   7.584   1.776
 2036W        W 5555   6.336   3.941   3.876
 2037W        W 5556   6.631   7.325   9.577
 2038W        W 5557   2.279   2.780   0.466
 2039W        W 5558   8.026   2.264   9.074
 2040W        W 5559   9.127   8.196   1.643
 2041W        W 5560   0.776   5.170  11.518
 2042W        W 5561   4.971   0.530   2.971
 2043W        W 5562   6.087   7.402   0.439
 2044W        W 5563   6.332   0.848  11.544
 2045W        W 5564   3.033   6.451   0.923
 2046W        W 5565   9.942   2.180   2.149
 2047W        W 5566   8.695   3.833   9.437
 2048W        W 5567   0.836   7.108  11.822
 2049W        W 5568   2.537   3.541   2.305
 2050W        W 5569   0.890   7.015   9.043
 2051W        W 5570   1.373   7.489   9.463
 2052W        W 5571   2.964   7.000   9.293
 2053W        W 5572   2.803   3.851   9.767
 2054W        W 5573   7.192   3.188   3.255
 2055W        W 5574   5.187   7.082  11.452
 2056W        W 5575   7.190   8.704   0.697
 2057W        W 5576   6.694   3.848   2.945
 2058W        W 5577   9.981   9.558   8.812
 2059W        W 5578   0.252   7.207   2.801
 2060W        W 5579   9.725   7.719   2.499
 2061W        W 5580   2.712   3.630   1.834
 2062W        W 5581   9.230   1.802   0.478
 2063W        W 5582   9.350   2.073  10.639
 2064W        W 5583   0.169   6.580   2.136
 2065W        W 5584   3.250   4.218   8.599
 2066W        W 5585   2.877   5.973  11.312
 2067W        W 5586   8.207   5.408   0.325
 2068W        W 5587   4.580   8.532   2.275
 2069W        W 5588   4.183   7.210  11.400
 2070W        W 5589   9.671   9.099   2.991
 2071W        W 5590   5.050   8.337   1.171
 2072W        W 5591   5.288   5.156   8.787
 2073W        W 5592   1.632   8.209   1.033
 2074W        W 5593   2.650   9.054   1.011
 2075W        W 5594   9.353   5.499   2.390
 2076W        W 5595   1.694   1.402   3.554
 2077W        W 5596   0.928   6.781   3.108
 2078W        W 5597   7.112   0.827   3.099
 2079W        W 5598   0.360   2.646   3.067
 2080W        W 5599   7.975   2.147   0.918
 2081W        W 5600   1.558   7.629   1.290
 2082W        W 5601   9.211   0.386   1.352
 2083W        W 5602   6.254   3.695   3.123
 2084W        W 5603   5.173   4.472   2.054
 2085W        W 5604   5.525   3.126   3.215
 2086W        W 5605   4.892   7.399   0.993
 2087W        W 5606   6.441   9.853   3.473
 2088W        W 5607   5.149   7.298   3.215
 2089W        W 5608   3.317   2.977  11.216
 2090W        W 5609   1.064   5.757   8.694
 2091W        W 5610   0.820   1.137   0.827
 2092W        W 5611   5.445   1.373  11.149
 2093W        W 5612   9.276   7.090   1.191
 2094W        W 5613   3.582   3.433   0.259
 2095W        W 5614   2.649   4.371   1.271
 2096W        W 5615   7.746   8.469   2.644
 2097W        W 5616   9.021   2.226  11.522
 2098W        W 5617   0.718   2.644   3.442
 2099W        W 5618   6.452   7.650   1.745
 2100W        W 5619   8.249   1.167   8.550
 2101W        W 5620   0.703   4.205   1.765
 2102W        W 5621   7.368   4.946  11.437
 2103W        W 5622   9.023   1.361  10.131
 2104W        W 5623   3.243   2.468   1.075
 2105W        W 5624   6.016   8.118  10.707
 2106W        W 5625   0.422   1.338   9.191
 2107W        W 5626   2.849   6.429  10.540
 2108W        W 5627   7.114   7.367   3.487
 2109W        W 5628   7.475   1.805   9.937
 2110W        W 5629   4.940   8.405   1.900
 2111W        W 5630   7.916   8.850   2.287
 2112W        W 5631   4.032   3.110   8.965
 2113W        W 5632   9.584   4.840  11.345
 2114W        W 5633   1.809   2.156  10.956
 2115W        W 5634   0.522   1.223  10.090
 2116W        W 5635   0.078   9.328   3.202
 2117W        W 5636   4.101   4.139   0.003
 2118W        W 5637   7.340   2.700   0.414
 2119W        W 5638   9.421   6.921  10.184
 2120W        W 5639   2.162   6.134   2.987
 2121W        W 5640   5.383   7.081   8.571
 2122W        W 5641   7.208   2.103   0.559
 2123W        W 5642   8.249   3.091   0.415
 2124W        W 5643   3.535   4.063   1.532
 2125W        W 5644   9.894   2.190   1.562
 2126W        W 5645   0.906   2.907   1.707
 2127W        W 5646   5.145   3.830  11.492
 2128W        W 5647   2.442   2.834   2.322
 2129W        W 5648   5.079   8.224   0.662
 2130W        W 5649   2.791   1.362   1.387
 2131W        W 5650   6.371   7.518   0.839
 2132W        W 5651   5.722   5.607  11.941
 2133W        W 5652   8.905   2.191  10.872
 2134W        W 5653   1.659   6.567   9.791
 2135W        W 5654   6.466   3.729  10.519
 2136W        W 5655   0.834   5.363   2.441
 2137W        W 5656   0.821   1.268  11.746
 2138W        W 5657   0.375   5.100   3.167
 2139W        W 5658   9.077   5.670   9.053
 2140W        W 5659   5.638   9.856  10.992
 2141W        W 5660   5.220   4.977   0.562
 2142W        W 5661   4.272   7.805   1.604
 2143W        W 5662   2.061   4.856   2.792
 2144W        W 5663   1.789   7.021   2.763
 2145W        W 5664   8.109   8.704   0.888
 2146W        W 5665   8.250   9.091   8.650
 2147W        W 5666   1.870   5.214  11.255
 2148W        W 5667   5.447   8.408   2.107
 2149W        W 5668   3.504   2.383   8.736
 2150W        W 5669   4.774   8.468   9.076
 2151W        W 5670   1.867   9.587  11.082
 2152W        W 5671   8.974   7.148   2.794
 2153W        W 5672   2.791   3.053  10.475
 2154W        W 5673   6.658   4.297   3.190
 2155W        W 5674   9.127   4.896   3.210
 2156W        W 5675   5.831   5.903   4.018
 2157W        W 5676   8.836   7.891   1.931
 2158W        W 5677   0.801   6.091   0.840
 2159W        W 5678   1.239   2.562  10.327
 2160W        W 5679   7.248   9.881   9.012
 2161W        W 5680   0.258   9.269   1.618
 2162W        W 5681   1.557   8.900  10.932
 2163W        W 5682   3.237   5.643   1.487
 2164W        W 5683   3.332   0.430   9.033
 2165W        W 5684   3.305   9.712   3.128
 2166W        W 5685   7.204   1.539   8.626
 2167W        W 5686   2.371   4.855   9.160
 2168W        W 5687   8.537   4.834   9.019
 2169W        W 5688   0.257   8.842   0.174
 2170W        W 5689   9.828   4.131   9.799
 2171W        W 5690   5.904   1.903   0.500
 2172W        W 5691   3.581   0.163   2.476
 2173W        W 5692   4.183   0.217   0.793
 2174W        W 5693   9.377   9.038   1.074
 2175W        W 5694   3.646   9.571   9.901
 2176W        W 5695   1.044   4.729  11.575
 2177W        W 5696   8.003   6.380   1.281
 2178W        W 5697   1.329   4.247  10.497
 2179W        W 5698   9.350   2.676   0.541
 2180W        W 5699   3.855   1.227   0.740
 2181W        W 5700   2.345   5.407   1.543
 2182W        W 5701   0.585   8.150   2.931
 2183W        W 5702   4.130   1.932   8.520
 2184W        W 5703   9.544   0.578   3.067
 2185W        W 5704   0.934   6.422   9.871
 2186W        W 5705   6.158   9.975  11.788
 2187W        W 5706   6.237   6.655  10.182
 2188W        W 5707   9.244   7.101   0.378
 2189W        W 5708   2.237   9.621   0.340
 2190W        W 5709   6.572   3.310   1.711
 2191W        W 5710   8.235   4.786   0.650
 2192W        W 5711   4.500   7.644   9.484
 2193W        W 5712   7.938   1.397   9.233
 2194W        W 5713   7.091   2.609  11.646
 2195W        W 5714   3.403   6.500   3.128
 2196W        W 5715   7.004   5.199   2.731
 2197W        W 5716   7.126   2.627  11.135
 2198W        W 5717   9.848   9.404   8.338
 2199W        W 5718   8.898   4.562   8.733
 2200W        W 5719   6.231   8.260   1.813
 2201W        W 5720   3.539   7.431   2.596
 2202W        W 5721   6.483   3.165   2.235
 2203W        W 5722   6.540   5.016   0.195
 2204W        W 5723   5.952   5.644  10.392
 2205W        W 5724   9.906   0.836   9.919
 2206W        W 5725   2.177   0.632   0.474
 2207W        W 5726   2.595   8.236  11.756
 2208W        W 5727   1.234   6.810   9.574
 2209W        W 5728   2.653   9.098   1.512
 2210W        W 5729   7.570   4.286  10.471
 2211W        W 5730   8.298   1.000   1.383
 2212W        W 5731   6.284   7.402  11.910
 2213W        W 5732   0.937   2.208   0.062
 2214W        W 5733   2.762   5.038   3.684
 2215W        W 5734   5.083   8.511  10.059
 2216W        W 5735   0.271   7.423   8.879
 2217W        W 5736   7.428   2.313   9.947
 2218W        W 5737   9.204   3.807   1.804
 2219W        W 5738   0.078   1.734   1.650
 2220W        W 5739   2.489   7.932   3.403
 2221W        W 5740   9.871   2.137   1.026
 2222W        W 5741   5.509   8.780  10.067
 2223W        W 5742   5.366   4.157   2.921
 2224W        W 5743   1.140   6.938  11.283
 2225W        W 5744   3.750   5.004   0.386
 2226W        W 5745   3.578   3.085  10.347
 2227W        W 5746   8.400   0.900   9.895
 2228W        W 5747   7.621   6.051   1.164
 2229W        W 5748   2.577   6.475  11.508
 2230W        W 5749   8.959   7.952   9.748
 2231W        W 5750   7.199   9.687   1.736
 2232W        W 5751   4.643   9.734  10.777
 2233W        W 5752   4.855   9.882   9.671
 2234W        W 5753   5.462   6.703   3.236
 2235W        W 5754   9.432   7.399   2.201
 2236W        W 5755   9.994   2.980   0.509
 2237W        W 5756   4.577   6.524  10.901
 2238W        W 5757   5.317   6.189  10.675
 2239W        W 5758   3.044   2.288   3.908
 2240W        W 5759   4.505   5.114   1.238
 2241W        W 5760   1.020   5.629   0.894
 2242W        W 5761   9.441   7.042  11.820
 2243W        W 5762   2.253   0.752  11.547
 2244W        W 5763   6.786   7.738   3.675
 2245W        W 5764   4.405   8.206  11.298
 2246W        W 5765   1.642   3.916  10.241
 2247W        W 5766   3.603   9.401  10.783
 2248W        W 5767   0.959   0.874  10.784
 2249W        W 5768   5.872   9.811   9.552
 2250W        W 5769   9.573   8.904   8.965
 2251W        W 5770   7.599   6.742   9.491
 2252W        W 5771   5.531   8.479   1.120
 2253W        W 5772   7.507   2.791   1.114
 2254W        W 5773   7.408   1.867   0.047
 2255W        W 5774   8.862   3.782   0.488
 2256W        W 5775   3.732   5.113   4.054
 2257W        W 5776   0.526   9.486   9.675
 2258W        W 5777   7.369   9.340  10.789
 2259W        W 5778   8.009   3.567   1.779
 2260W        W 5779   8.073   8.219  10.986
 2261W        W 5780   7.854   9.364  10.352
 2262W        W 5781   2.796   0.972  11.445
 2263W        W 5782   0.430   8.854   8.943
 2264W        W 5783   3.611   3.101   0.664
 2265W        W 5784   1.724   5.114   2.009
 2266W        W 5785   6.690   7.139   0.759
 2267W        W 5786   9.849   8.930   1.999
 2268W        W 5787   0.821   9.721   9.278
 2269W        W 5788   2.042   4.237  11.064
 2270W        W 5789   9.450   0.182  10.269
 2271W        W 5790   4.817   4.854   2.068
 2272W        W 5791   5.868   3.188   3.572
 2273W        W 5792   1.082   3.557   8.921
 2274W        W 5793   8.205   8.053   8.616
 2275W        W 5794   2.207   9.144  11.769
 2276W        W 5795   1.193   8.861   2.064
 2277W        W 5796   1.145   8.869   3.093
 2278W        W 5797   9.807   9.273   0.795
 2279W        W 5798   8.632   1.647  11.222
 2280W        W 5799   8.687   5.238   0.153
 2281W        W 5800   5.777   1.554  10.403
 2282W        W 5801   1.027   8.989  10.512
 2283W        W 5802   7.177   4.645   9.697
 2284W        W 5803   1.320   5.306   9.593
 2285W        W 5804   0.993   1.801  10.756
 2286W        W 5805   4.680   4.817   3.463
 2287W        W 5806   2.716   3.775   2.754
 2288W        W 5807   2.328   6.845  11.749
 2289W        W 5808   8.309   8.403   1.324
 2290W        W 5809   4.250   7.693   2.291
 2291W        W 5810   2.828   2.324  11.895
 2292W        W 5811   0.881   3.146   0.923
 2293W        W 5812   6.038   2.304   8.950
 2294W        W 5813   9.282   5.503  11.855
 2295W        W 5814   1.758   0.783  11.750
 2296W        W 5815   0.962   9.286   0.151
 2297W        W 5816   8.924   2.637   3.480
 2298W        W 5817   6.209   1.268   8.642
 2299W        W 5818   5.789   5.407   3.767
 2300W        W 5819   3.538   4.607   8.369
 2301W        W 5820   8.012   9.187   0.837
 2302W        W 5821   2.367   4.440   0.237
 2303W        W 5822   9.081   8.338   2.608
 2304W        W 5823   4.128   6.264  11.136
 2305W        W 5824   5.587   7.967  11.411
 2306W        W 5825   2.695   7.287  10.262
 2307W        W 5826   6.731   0.526   9.936
 2308W        W 5827   7.756   7.855   9.048
 2309W        W 5828   2.503   8.509   9.538
 2310W        W 5829   1.005   5.994   3.455
 2311W        W 5830   7.895   3.729  10.020
 2312W        W 5831   6.790   8.304  10.345
 2313W        W 5832   3.262   7.038  10.047
 2314W        W 5833   0.199   8.977   0.662
 2315W        W 5834   8.277   3.761   9.698
 2316W        W 5835   8.545   4.297   3.180
 2317W        W 5836   8.514   6.655  10.591
 2318W        W 5837   5.320   7.551   9.804
 2319W        W 5838   8.983   7.951   2.901
 2320W        W 5839   4.172   2.515  11.995
 2321W        W 5840   7.846   9.155  10.833
 2322W        W 5841   1.210   4.141   0.755
 2323W        W 5842   3.296   5.954   3.686
 2324W        W 5843   6.053   8.604  10.920
 2325W        W 5844   6.503   2.942   1.047
 2326W        W 5845   8.946   6.728   8.405
 2327W        W 5846   6.678   3.640  11.049
 2328W        W 5847   9.763   3.990   2.389
 2329W        W 5848   8.441   3.152  10.948
 2330W        W 5849   1.394   6.994   2.122
 2331W        W 5850   3.180   3.739   3.027
 2332W        W 5851   2.408   6.195  10.693
 2333W        W 5852   0.279   7.497   0.928
 2334W        W 5853   7.860   6.967   9.872
 2335W        W 5854   9.906   8.568   9.979
 2336W        W 5855   3.208   6.120  10.060
 2337W        W 5856   5.971   8.972  10.166
 2338W        W 5857   3.843   3.844  11.310
 2339W        W 5858   7.426   5.022   9.441
 2340W        W 5859   0.358   0.231   1.330
 2341W        W 5860   3.224   0.389   8.529
 2342W        W 5861   5.505   5.802   8.501
 2343W        W 5862   7.477   1.351   9.013
 2344W        W 5863   5.656   5.497   8.909
 2345W        W 5864   9.443   7.081   2.595
 2346W        W 5865   9.990   3.535   2.338
 2347W        W 5866   7.104   6.924   1.708
 2348W        W 5867   3.707   1.266  10.942
 2349W        W 5868   7.920   6.152  11.861
 2350W        W 5869   4.414   5.334  11.233
 2351W        W 5870   6.944   6.926   9.422
 2352W        W 5871   8.464   7.460   8.808
 2353W        W 5872   4.435   2.278  11.135
 2354W        W 5873   9.538   8.752   0.124
 2355W        W 5874   4.615   9.012   1.397
 2356W        W 5875   2.837   5.257   1.635
 2357W        W 5876   1.539   0.423  11.102
 2358W        W 5877   0.235   4.558   0.530
 2359W        W 5878   3.376   5.820   0.091
 2360W        W 5879   6.007   3.686   2.675
 2361W        W 5880   1.711   8.250   3.425
 2362W        W 5881   1.964   4.891  10.778
 2363W        W 5882   3.268   1.795   2.203
 2364W        W 5883   8.412   9.215  10.449
 2365W        W 5884   4.235   8.477   3.423
 2366W        W 5885   1.890   4.209   0.957
 2367W        W 5886   8.801   1.078   0.873
 2368W        W 5887   1.620   8.885   9.914
 2369W        W 5888   5.878   0.731   3.276
 2370W        W 5889   5.568   5.352  10.632
 2371W        W 5890   7.615   9.718   1.344
 2372W        W 5891   9.428   8.029   9.522
 2373W        W 5892   0.726   5.730  10.429
 2374W        W 5893   2.087   4.187   1.982
 2375W        W 5894   3.793   1.183  10.074
 2376W        W 5895   7.348   5.158  10.395
 2377W        W 5896   7.891   0.703   9.849
 2378W        W 5897   0.611   0.203   9.388
 2379W        W 5898   9.900   8.359   1.328
 2380W        W 5899   9.447   9.890   9.362
 2381W        W 5900   8.115   7.542  11.923
 2382W        W 5901   9.467   4.505   0.912
 2383W        W 5902   0.119   3.489   1.447
 2384W        W 5903   9.886   7.869   9.791
 2385W        W 5904   8.031   5.817   9.075
 2386W        W 5905   0.436   0.167  10.421
 2387W        W 5906   5.701   4.596   9.529
 2388W        W 5907   5.643   3.535  10.797
 2389W        W 5908   9.093   7.540   9.511
 2390W        W 5909   6.604   4.806   3.909
 2391W        W 5910   1.654   1.380   3.052
 2392W        W 5911   2.548   2.363   2.156
 2393W        W 5912   0.095   6.382  10.199
 2394W        W 5913   4.926   3.188   2.011
 2395W        W 5914   8.638   0.742   1.668
 2396W        W 5915   2.061   1.369   9.506
 2397W        W 5916   5.064   4.679   9.659
 2398W        W 5917   7.290   6.584   9.134
 2399W        W 5918   2.990   1.297  10.437
 2400W        W 5919   3.647   4.692  11.573
 2401W        W 5920   3.734   1.539   9.684
 2402W        W 5921   1.967   2.137  11.870
 2403W        W 5922   4.067   4.962   3.689
 2404W        W 5923   8.069   4.080  11.073
 2405W        W 5924   7.567   4.007   2.794
 2406W        W 5925   6.196   2.976  11.397
 2407W        W 5926   9.744   7.525  10.754
 2408W        W 5927   8.758   1.730   1.736
 2409W        W 5928   7.470   5.666   1.456
 2410W        W 5929   3.006   8.278   1.131
 2411W        W 5930   4.513   1.561   8.562
 2412W        W 5931   3.138   9.963   2.163
 2413W        W 5932   0.915   2.866   2.211
 2414W        W 5933   7.048   3.955   3.708
 2415W        W 5934   5.370   1.910   3.860
 2416W        W 5935   6.932   5.599  10.934
 2417W        W 5936   7.237   5.681   3.105
 2418W        W 5937   9.223   4.146   8.606
 2419W        W 5938   7.323   3.715   9.211
 2420W        W 5939   8.575   9.800   9.226
 2421W        W 5940   9.731   5.193   2.575
 2422W        W 5941   5.140   0.996  10.405
 2423W        W 5942   9.003   6.111   3.176
 2424W        W 5943   5.052   9.714   3.487
 2425W        W 5944   1.257   8.350   3.193
 2426W        W 5945   8.575   5.674   9.836
 2427W        W 5946   7.479   7.797   9.554
 2428W        W 5947   9.284   9.339  10.189
 2429W        W 5948   3.697   7.256  11.574
 2430W        W 5949   4.421   3.699   7.995
 2431W        W 5950   4.382   7.971   9.086
 2432W        W 5951   5.934   6.000   3.049
 2433W        W 5952   6.587   9.822   8.750
 2434W        W 5953   1.511   5.790  10.897
 2435W        W 5954   0.883   1.959   9.773
 2436W        W 5955   3.565   5.784  10.337
 2437W        W 5956   2.358   9.334   0.723
 2438W        W 5957   1.117   1.059   2.460
 2439W        W 5958   1.775   3.536   2.806
 2440W        W 5959   1.872   0.825  11.204
 2441W        W 5960   4.638   4.593   9.365
 2442W        W 5961   0.808   9.280   3.340
 2443W        W 5962   6.508   7.129   0.270
 2444W        W 5963   1.416   7.080   0.655
 2445W        W 5964   1.812   7.637  11.768
 2446W        W 5965   2.059   7.002  11.305
 2447W        W 5966   3.754   1.825   1.948
 2448W        W 5967   3.088   7.635   1.841
 2449W        W 5968   2.167   8.397  10.381
 2450W        W 5969   7.476   8.965   8.332
 2451W        W 5970   7.444   9.876  10.027
 2452W        W 5971   1.498   6.659  11.027
 2453W        W 5972   7.680   9.305   2.498
 2454W        W 5973   1.649   9.757   2.268
 2455W        W 5974   8.177   6.616  10.055
 2456W        W 5975   7.628   6.987   0.834
 2457W        W 5976   8.430   5.248   9.517
 2458W        W 5977   6.103   1.018   1.321
 2459W        W 5978   5.894   7.694   0.952
 2460W        W 5979   4.086   4.137   9.366
 2461W        W 5980   7.684   9.390   1.995
 2462W        W 5981   9.366   0.423   0.368
 2463W        W 5982   5.466   3.369   8.556
 2464W        W 5983   1.445   2.207  11.913
 2465W        W 5984   6.921   1.857   0.211
 2466W        W 5985   7.221   4.062   0.712
 2467W        W 5986   7.049   8.013   9.344
 2468W        W 5987   9.410   2.203   1.296
 2469W        W 5988   1.756   3.851  11.241
 2470W        W 5989   3.644   9.759  10.407
 2471W        W 5990   2.236   6.154   2.485
 2472W        W 5991   7.450   8.700   0.224
 2473W        W 5992   1.255   4.620   2.966
 2474W        W 5993   9.349   3.838  11.777
 2475W        W 5994   6.277   0.490   2.485
 2476W        W 5995   4.782   7.641   3.428
 2477W        W 5996   3.695   2.909   0.190
 2478W        W 5997   9.519   1.114  10.278
 2479W        W 5998   7.347   7.088   9.161
 2480W        W 5999   3.556   6.346   9.574
 2481W        W 6000   5.493   6.203   3.224
 2482W        W 6001   1.493   3.911   8.794
 2483W        W 6002   6.501   4.333  11.513
 2484W        W 6003   5.997   0.536   1.498
 2485W        W 6004   6.302   4.383   9.946
 2486W        W 6005   1.897   6.992   9.979
 2487W        W 6006   2.729   5.733   1.435
 2488W        W 6007   3.384   6.891   9.578
 2489W        W 6008   2.695   9.594  10.289
 2490W        W 6009   8.418   8.975   3.123
 2491W        W 6010   9.765   6.961   9.483
 2492W        W 6011   6.215   9.314   3.746
 2493W        W 6012   5.706   8.686   3.544
 2494W        W 6013   4.935   5.891  11.978
 2495W        W 6014   4.563   1.175   1.463
 2496W        W 6015   7.144   4.403   3.472
 2497W        W 6016   3.564   4.202   3.289
 2498W        W 6017   8.819   3.459   1.041
 2499W        W 6018   5.473   8.459   9.672
 2500W        W 6019   2.643   2.237   0.433
 2501W        W 6020   3.168   0.714  11.907
 2502W        W 6021   6.055   6.899   0.427
 2503W        W 6022   8.709   9.119   0.192
 2504W        W 6023   8.480   7.495   2.258
 2505W        W 6024   0.257   6.873  10.346
 2506W        W 6025   1.441   2.846   2.099
 2507W        W 6026   0.090   3.855   3.553
 2508W        W 6027   8.606   1.231   1.900
 2509W        W 6028   9.010   6.051   0.365
 2510W        W 6029   1.120   6.550   9.120
 2511W        W 6030   5.952   3.502   8.669
 2512W        W 6031   4.081   8.927   0.313
 2513W        W 6032   8.359   1.885   1.152
 2514W        W 6033   8.722   8.242  10.087
 2515W        W 6034   7.995   2.324   3.196
 2516W        W 6035   6.949   3.409   9.407
 2517W        W 6036   0.918   6.680   8.659
 2518W        W 6037   7.964   4.995   9.542
 2519W        W 6038   8.146   0.816  11.503
 2520W        W 6039   2.719   3.550   0.537
 2521W        W 6040   0.658   8.842   0.474
 2522W        W 6041   7.362   2.226  10.848
 2523W        W 6042   4.670   3.609   1.981
 2524W        W 6043   7.246   6.013   8.503
 2525W        W 6044   1.184   7.423   0.993
 2526W        W 6045   0.574   0.843  11.973
 2527W        W 6046   1.485   3.385   8.638
 2528W        W 6047   8.992   8.197   1.159
 2529W        W 6048   4.010   3.832   2.603
 2530W        W 6049   7.226   7.536   1.189
 2531W        W 6050   9.466   8.371  11.791
 2532W        W 6051   4.892   7.954   9.010
 2533W        W 6052   4.717   3.671   0.737
 2534W        W 6053   6.334   5.701  10.055
 2535W        W 6054   5.234   1.814  11.364
 2536W        W 6055   0.755   8.094   1.608
 2537W        W 6056   3.467   7.668   9.244
 2538W        W 6057   5.869   2.338   2.691
 2539W        W 6058   8.073   4.405  10.619
 2540W        W 6059   2.687   6.111   0.635
 2541W        W 6060   7.801   9.350   2.999
 2542W        W 6061   4.508   5.259   2.247
 2543W        W 6062   3.110   1.348   1.795
 2544W        W 6063   4.964   0.084   8.632
 2545W        W 6064   7.489   2.937  11.024
 2546W        W 6065   2.322   6.670  10.986
 2547W        W 6066   1.344   7.187  11.680
 2548W        W 6067   9.524   6.963   8.763
 2549W        W 6068   6.458   1.146   2.144
 2550W        W 6069   0.638   7.116  11.324
 2551W        W 6070   2.108   8.762  10.963
 2552W        W 6071   4.416   7.382   2.694
 2553W        W 6072   5.642   4.026  10.388
 2554W        W 6073   8.032   7.320  10.219
 2555W        W 6074   0.613   8.998   0.951
 2556W        W 6075   2.729   3.150   9.238
 2557W        W 6076   5.452   0.674   2.964
 2558W        W 6077   6.029   2.796   1.121
 2559W        W 6078   7.381   3.249   2.196
 2560W        W 6079   9.279   0.906   3.357
 2561W        W 6080   5.481   4.071   9.311
 2562W        W 6081   1.059   4.579   0.993
 2563W        W 6082   6.989   2.078   1.908
 2564W        W 6083   4.217   2.304   0.457
 2565W        W 6084   6.452   5.320   0.590
 2566W        W 6085   6.489   7.985   1.001
 2567W        W 6086   5.990   8.296   0.267
 2568W        W 6087   2.551   1.251   0.870
 2569W        W 6088   6.285   6.621   3.620
 2570W        W 6089   5.771   4.773   8.922
 2571W        W 6090   5.408   0.364   8.752
 2572W        W 6091   8.384   6.328  11.620
 2573W        W 6092   6.468   9.770  10.447
 2574W        W 6093   7.200   5.651   0.535
 2575W        W 6094   0.330   6.973  11.752
 2576W        W 6095   7.065   1.595   1.761
 2577W        W 6096   8.138   1.125   2.119
 2578W        W 6097   5.708   3.067   9.497
 2579W        W 6098   8.868   9.560   2.721
 2580W        W 6099   4.112   3.633   3.090
 2581W        W 6100   9.346   4.015  10.312
 2582W        W 6101   4.141   3.319  11.480
 2583W        W 6102   6.640   7.125   2.438
 2584W        W 6103   1.860   3.094   8.857
 2585W        W 6104   8.174   2.261  10.913
 2586W        W 6105   2.242   7.003   3.033
 2587W        W 6106   7.797   1.204  11.521
 2588W        W 6107   0.410   1.144   2.030
 2589W        W 6108   8.975   1.262  11.150
 2590W        W 6109   3.635   3.191   9.835
 2591W        W 6110   3.521   4.375   1.950
 2592W        W 6111   1.290   6.704  10.112
 2593W        W 6112   2.143   8.926   2.583
 2594W        W 6113   4.340   1.138   0.993
 2595W        W 6114   1.321   2.929   8.985
 2596W        W 6115   6.943   6.479   3.044
 2597W        W 6116   5.482   6.122  11.159
 2598W        W 6117   8.525   6.061   3.363
 2599W        W 6118   7.539   3.419  10.925
 2600W        W 6119   7.078   2.543   0.826
 2601W        W 6120   3.624   2.128   2.372
 2602W        W 6121   5.643   3.598   9.427
 2603W        W 6122   4.310   3.678  10.114
 2604W        W 6123   0.783   7.896   0.530
 2605W        W 6124   6.649   2.115   2.345
 2606W        W 6125   6.541   7.896  11.029
 2607W        W 6126   9.832   4.177  10.305
 2608W        W 6127   9.731   1.232   9.618
 2609W        W 6128   9.422   2.214   0.773
 2610W        W 6129   5.217   9.246   0.804
 2611W        W 6130   1.134   0.192   9.382
 2612W        W 6131   1.184   4.720   1.455
 2613W        W 6132   9.916   8.302   9.494
 2614W        W 6133   9.926   2.623  11.300
 2615W        W 6134   3.888   5.123   2.998
 2616W        W 6135   7.017   5.951   8.047
 2617W        W 6136   9.386   7.917  11.515
 2618W        W 6137   4.745   6.154   3.700
 2619W        W 6138   4.571   2.064   1.381
 2620W        W 6139   7.585   1.742   0.520
 2621W        W 6140   3.013   5.723  11.746
 2622W        W 6141   2.128   7.887   9.112
 2623W        W 6142   6.924   1.480   3.825
 2624W        W 6143   2.551   2.840  11.747
 2625W        W 6144   3.162   3.319   1.265
 2626W        W 6145   1.850   5.951   3.824
 2627W        W 6146   1.574   4.829   9.480
 2628W        W 6147   9.942   1.485   0.461
 2629W        W 6148   1.358   9.786  10.043
 2630W        W 6149   1.390   5.811   9.559
 2631W        W 6150   9.557   3.956   8.987
 2632W        W 6151   0.978   8.477   2.758
 2633W        W 6152   7.845   5.270  10.228
 2634W        W 6153   8.308   6.105   8.390
 2635W        W 6154   7.085   6.569   9.755
 2636W        W 6155   7.466   7.067   3.239
 2637W        W 6156   0.538   7.077   3.688
 2638W        W 6157   9.746   0.636  10.380
 2639W        W 6158   2.624   7.443   1.920
 2640W        W 6159   1.719   6.162   0.197
 2641W        W 6160   2.635   5.526  11.481
 2642W        W 6161   3.226   9.503   9.013
 2643W        W 6162   1.986   5.941  10.880
 2644W        W 6163   9.032   8.375   9.484
 2645W        W 6164   3.034   7.782   0.469
 2646W        W 6165   1.310   8.836   9.526
 2647W        W 6166   9.378   3.966  11.271
 2648W        W 6167   0.270   9.379  10.129
 2649W        W 6168   1.773   3.950  10.731
 2650W        W 6169   0.221   6.630   9.424
 2651W        W 6170   7.657   0.840  10.323
 2652W        W 6171   7.775   5.115   2.038
 2653W        W 6172   5.565   1.137   3.101
 2654W        W 6173   9.941   0.867   9.239
 2655W        W 6174   3.310   2.229   3.026
 2656W        W 6175   7.593   1.654   3.368
 2657W        W 6176   2.718   0.056   2.668
 2658W        W 6177   7.740   5.306   3.335
 2659W        W 6178   8.087   8.062  11.466
 2660W        W 6179   5.315   6.192   1.289
 2661W        W 6180   4.088   7.084   3.261
 2662W        W 6181   0.360   7.681   1.417
 2663W        W 6182   5.166   3.097   3.634
 2664W        W 6183   7.494   3.163   0.734
 2665W        W 6184   2.226   7.390   1.049
 2666W        W 6185   6.760   9.341   9.549
 2667W        W 6186   1.397   1.478   2.509
 2668W        W 6187   3.554   7.798  11.655
 2669W        W 6188   9.879   9.652   3.534
 2670W        W 6189   5.586   8.780   8.833
 2671W        W 6190   5.047   6.465   9.873
 2672W        W 6191   0.534   0.195   1.834
 2673W        W 6192   2.092   8.719   0.047
 2674W        W 6193   9.756   4.969   9.653
 2675W        W 6194   9.869   7.346   9.867
 2676W        W 6195   5.642   2.657   9.075
 2677W        W 6196   7.467   1.620  10.664
 2678W        W 6197   9.261   7.503  10.872
 2679W        W 6198   7.573   5.772   9.359
 2680W        W 6199   7.707   6.502   2.544
 2681W        W 6200   0.850   6.125   1.916
 2682W        W 6201   1.666   1.971   1.063
 2683W        W 6202   2.336   7.554  10.524
 2684W        W 6203   1.003   5.399  10.135
 2685W        W 6204   6.996   7.795  10.309
 2686W        W 6205   0.929   1.758   8.512
 2687W        W 6206   5.895   1.057   0.853
 2688W        W 6207   6.537   9.806   1.798
 2689W        W 6208   2.655   9.805  11.362
 2690W        W 6209   0.943   0.003  10.252
 2691W        W 6210   6.137   6.663   0.892
 2692W        W 6211   9.392   4.386  11.579
 2693W        W 6212   8.083   3.903  10.565
 2694W        W 6213   7.988   3.671   2.819
 2695W        W 6214   0.479   3.765   2.567
 2696W        W 6215   9.269   9.811   9.953
 2697W        W 6216   0.286   1.173  11.714
 2698W        W 6217   6.743   7.001  10.606
 2699W        W 6218   8.928   4.243  10.111
 2700W        W 6219   3.122   2.397  10.583
 2701W        W 6220   4.222   0.647   0.009
 2702W        W 6221   4.400   4.003   2.884
 2703W        W 6222   9.998   9.347  10.557
 2704W        W 6223   2.115   8.590   2.177
 2705W        W 6224   0.532   3.069   9.973
 2706W        W 6225   0.587   4.969   1.533
 2707W        W 6226   5.300   5.262  10.107
 2708W        W 6227   1.224   6.508   3.564
 2709W        W 6228   1.055   5.150   1.673
 2710W        W 6229   3.373   0.321   2.899
 2711W        W 6230   8.865   6.921   1.598
 2712W        W 6231   4.484   9.520  11.778
 2713W        W 6232   0.779   5.329   2.939
 2714W        W 6233   9.632   1.720   0.782
 2715W        W 6234   7.102   7.334   2.487
 2716W        W 6235   8.316   1.915  10.265
 2717W        W 6236   6.080   2.796   2.671
 2718W        W 6237   5.512   9.051   3.096
 2719W        W 6238   6.498   9.442   0.516
 2720W        W 6239   5.667   1.428   1.114
 2721W        W 6240   0.629   2.841   1.269
 2722W        W 6241   2.410   6.977   9.260
 2723W        W 6242   5.469   9.294   8.799
 2724W        W 6243   3.895   1.266  11.822
 2725W        W 6244   7.715   7.130  11.355
 2726W        W 6245   7.290   1.157   9.439
 2727W        W 6246   6.447   5.579  10.566
 2728W        W 6247   6.276   0.797   8.811
 2729W        W 6248   2.759   0.963   3.277
 2730W        W 6249   3.036   8.077  11.989
 2731W        W 6250   2.787   7.432  10.763
 2732W        W 6251   1.123   2.766   1.190
 2733W        W 6252   8.927   4.951   1.345
 2734W        W 6253   2.594   6.012   8.846
 2735W        W 6254   4.035   7.498  10.216
 2736W        W 6255   1.175   8.294   1.899
 2737W        W 6256   6.919   8.489   1.372
 2738W        W 6257   9.579   7.804   8.632
 2739W        W 6258   0.822   0.239   2.276
 2740W        W 6259   6.690   7.225   1.641
 2741W        W 6260   1.049   8.868  11.003
 2742W        W 6261   3.739   0.637   9.269
 2743W        W 6262   5.665   4.460   1.971
 2744W        W 6263   0.082   0.869  11.302
 2745W        W 6264   1.963   3.375  10.915
 2746W        W 6265   0.175   7.752  11.000
 2747W        W 6266   4.459   5.031  10.275
 2748W        W 6267   5.467   9.684  10.520
 2749W        W 6268   9.822   5.454   9.494
 2750W        W 6269   4.687   2.079   8.542
 2751W        W 6270   5.102   0.776   1.437
 2752W        W 6271   3.191   5.560   9.268
 2753W        W 6272   0.608   6.569   0.890
 2754W        W 6273   3.653   1.640   9.174
 2755W        W 6274   9.163   0.403   3.393
 2756W        W 6275   0.792   1.199   0.290
 2757W        W 6276   6.098   5.040  10.654
 2758W        W 6277   0.400   1.458   2.480
 2759W        W 6278   5.518   0.688  10.588
 2760W        W 6279   9.989   6.405   2.960
 2761W        W 6280   9.169   5.573   1.913
 2762W        W 6281   2.822   8.478   0.202
 2763W        W 6282   9.021   6.572   0.205
 2764W        W 6283   0.862   4.124  10.752
 2765W        W 6284   4.956   0.407   0.354
 2766W        W 6285   3.470   5.074   0.799
 2767W        W 6286   4.942   6.923  10.982
 2768W        W 6287   0.252   5.930  10.421
 2769W        W 6288   8.794   2.999   1.711
 2770W        W 6289   7.664   4.261  11.786
 2771W        W 6290   3.079   2.538  11.095
 2772W        W 6291   9.818   8.002  11.823
 2773W        W 6292   6.581   6.542   9.016
 2774W        W 6293   6.135   4.203  10.426
 2775W        W 6294   0.737   8.191  10.489
 2776W        W 6295   2.042   5.517   1.960
 2777W        W 6296   1.517   8.874  10.414
 2778W        W 6297   2.219   7.708   0.048
 2779W        W 6298   9.045   8.754  11.997
 2780W        W 6299   0.776   3.608   3.330
 2781W        W 6300   9.809   7.911   3.541
 2782W        W 6301   1.832   4.193   1.540
 2783W        W 6302   8.343   0.813   0.898
 2784W        W 6303   3.954   5.992   2.604
 2785W        W 6304   4.371   6.011   1.788
 2786W        W 6305   4.563   0.810   8.807
 2787W        W 6306   3.651   5.847   0.974
 2788W        W 6307   0.412   1.369   0.633
 2789W        W 6308   7.561   6.569   1.125
 2790W        W 6309   2.671   6.143   1.138
 2791W        W 6310   0.157   8.966   2.854
 2792W        W 6311   0.597   5.696   8.998
 2793W        W 6312   8.811   1.236   9.674
 2794W        W 6313   2.634   0.197   0.697
 2795W        W 6314   6.697   7.557   1.233
 2796W        W 6315   2.730   6.639   1.303
 2797W        W 6316   6.244   8.766   1.571
 2798W        W 6317   1.825   2.815   1.672
 2799W        W 6318   4.750   2.928   9.429
 2800W        W 6319   0.648   7.549   9.213
 2801W        W 6320   3.408   3.888  10.594
 2802W        W 6321   4.254   5.824  11.391
 2803W        W 6322   6.065   9.364   9.837
 2804W        W 6323   6.229   4.635   1.275
 2805W        W 6324   8.215   5.056   3.302
 2806W        W 6325   7.869   4.399   2.692
 2807W        W 6326   9.289   0.167  11.920
 2808W        W 6327   1.314   6.019   1.085
 2809W        W 6328   4.825   6.145   1.983
 2810W        W 6329   8.882   2.755   0.762
 2811W        W 6330   5.109   6.936   0.854
 2812W        W 6331   8.565   6.932   8.701
 2813W        W 6332   9.927   8.516  10.513
 2814W        W 6333   9.026   6.824  11.339
 2815W        W 6334   6.257   1.982   1.581
 2816W        W 6335   8.139   0.701   1.789
 2817W        W 6336   8.286   0.161  10.434
 2818W        W 6337   8.214   9.262   0.337
 2819W        W 6338   5.763   0.472   2.595
 2820W        W 6339   6.535   6.703   0.559
 2821W        W 6340   4.518   1.874  10.834
 2822W        W 6341   4.495   6.082   0.803
 2823W        W 6342   0.757   4.825   2.910
 2824W        W 6343   2.396   8.857  10.548
 2825W        W 6344   9.790   6.126  10.541
 2826W        W 6345   9.820   4.945   1.369
 2827W        W 6346   9.538   2.799   2.764
 2828W        W 6347   6.913   4.630  10.594
 2829W        W 6348   2.133   2.101   8.629
 2830W        W 6349   1.253   7.704   8.557
 2831W        W 6350   2.194   2.325   9.102
 2832W        W 6351   5.762   6.882  10.345
 2833W        W 6352   9.479   0.547   2.559
 2834W        W 6353   4.151   4.618   9.585
 2835W        W 6354   3.827   1.345   3.443
 2836W        W 6355   2.274   4.871   0.006
 2837W        W 6356   3.744   6.452   2.752
 2838W        W 6357   1.572   4.124   0.420
 2839W        W 6358   2.187   2.617   2.955
 2840W        W 6359   2.283   3.446   3.695
 2841W        W 6360   1.424   8.992   0.768
 2842W        W 6361   2.796   9.267   8.743
 2843W        W 6362   3.368   8.163  11.250
 2844W        W 6363   6.400   9.249   1.575
 2845W        W 6364   2.758   5.896   3.604
 2846W        W 6365   3.791   2.238  11.735
 2847W        W 6366   7.571   2.407   0.771
 2848W        W 6367   5.632   4.541   2.484
 2849W        W 6368   8.588   1.622   9.399
 2850W        W 6369   8.917   2.397   9.206
 2851W        W 6370   8.900   1.287   9.156
 2852W        W 6371   2.181   9.672   1.635
 2853W        W 6372   9.243   1.339   0.781
 2854W        W 6373   5.407   7.436   2.770
 2855W        W 6374   6.685   4.275   2.653
 2856W        W 6375   2.160   0.007   9.561
 2857W        W 6376   2.584   8.011   0.235
 2858W        W 6377   6.478   3.407   2.709
 2859W        W 6378   5.704   5.742   0.439
 2860W        W 6379   3.156   9.511  10.510
 2861W        W 6380   4.647   4.066   8.621
 2862W        W 6381   2.421   4.068   2.376
 2863W        W 6382   0.868   4.499   0.546
 2864W        W 6383   6.459   8.863   2.579
 2865W        W 6384   8.848   8.843   9.433
 2866W        W 6385   0.636   5.599  11.845
 2867W        W 6386   4.032   6.151   8.690
 2868W        W 6387   8.059   7.469   9.179
 2869W        W 6388   6.889   3.307   8.928
 2870W        W 6389   2.883   1.819  11.992
 2871W        W 6390   5.944   6.863   1.315
 2872W        W 6391   6.932   4.110  11.348
 2873W        W 6392   5.331   6.851   9.051
 2874W        W 6393   2.744   9.299  11.183
 2875W        W 6394   5.078   0.572   1.971
 2876W        W 6395   3.762   0.565  11.356
 2877W        W 6396   1.783   8.326   2.447
 2878W        W 6397   7.256   7.664  10.776
 2879W        W 6398   0.881   1.060   1.815
 2880W        W 6399   1.996   4.472   9.547
 2881W        W 6400   3.693   1.056  11.396
 2882W        W 6401   9.567   1.895   2.908
 2883W        W 6402   8.105   1.733   2.645
 2884W        W 6403   0.801   3.455   2.855
 2885W        W 6404   6.874   1.896   8.814
 2886W        W 6405   6.593   1.661  11.871
 2887W        W 6406   2.885   8.728  10.461
 2888W        W 6407   0.671   8.060   9.319
 2889W        W 6408   7.166   4.392  11.874
 2890W        W 6409   8.977   1.450   0.074
 2891W        W 6410   7.542   0.751   0.296
 2892W        W 6411   8.625   7.563   2.789
 2893W        W 6412   5.624   7.858  10.903
 2894W        W 6413   7.871   7.759   3.550
 2895W        W 6414   9.360   5.448   8.654
 2896W        W 6415   9.221   1.139   8.761
 2897W        W 6416   8.927   8.782   2.406
 2898W        W 6417   8.267   9.671  10.221
 2899W        W 6418   8.464   3.171   1.356
 2900W        W 6419   8.548   3.064   3.535
 2901W        W 6420   6.082   6.139   3.604
 2902W        W 6421   1.396   3.134   9.776
 2903W        W 6422   3.924   6.579   3.237
 2904W        W 6423   0.931   3.804   1.567
 2905W        W 6424   1.177   7.926   9.223
 2906W        W 6425   6.931   7.077   1.215
 2907W        W 6426   9.952   5.509   0.530
 2908W        W 6427   6.051   0.910   2.307
 2909W        W 6428   5.254   6.449   2.834
 2910W        W 6429   6.985   9.130   0.968
 2911W        W 6430   5.447   9.349   1.647
 2912W        W 6431   3.780   4.209   8.597
 2913W        W 6432   1.757   1.039   9.229
 2914W        W 6433   6.191   7.473   1.320
 2915W        W 6434   6.977   5.272   9.399
 2916W        W 6435   6.987   1.421  10.832
 2917W        W 6436   9.811   9.908   2.518
 2918W        W 6437   3.952   5.771   1.503
 2919W        W 6438   6.164   3.599  10.908
 2920W        W 6439   1.311   5.913  11.438
 2921W        W 6440   6.497   5.461  11.933
 2922W        W 6441   7.754   8.471  10.276
 2923W        W 6442   3.736   2.358   0.238
 2924W        W 6443   4.911   0.535   3.520
 2925W        W 6444   9.939   6.239   2.465
 2926W        W 6445   3.139   2.224   2.525
 2927W        W 6446   0.274   0.071  10.887
 2928W        W 6447   1.235   2.878   2.612
 2929W        W 6448   0.198   6.899   1.745
 2930W        W 6449   8.583   8.454  11.062
 2931W        W 6450   8.611   4.466   2.691
 2932W        W 6451   9.286   6.060  10.509
 2933W        W 6452   9.733   0.334   9.239
 2934W        W 6453   3.588   3.511   9.391
 2935W        W 6454   8.056   7.235   0.918
 2936W        W 6455   5.567   3.381  11.512
 2937W        W 6456   0.809   5.213   9.657
 2938W        W 6457   4.603   0.044  10.077
 2939W        W 6458   5.805   5.458   9.389
 2940W        W 6459   6.207   6.148   8.332
 2941W        W 6460   6.627   6.621   2.664
 2942W        W 6461   8.572   2.198  11.252
 2943W        W 6462   1.001   0.519   1.887
 2944W        W 6463   0.232   1.217   9.647
 2945W        W 6464   3.142   3.530   2.568
 2946W        W 6465   6.189   6.635   8.123
 2947W        W 6466   3.535   7.643   2.106
 2948W        W 6467   9.407   8.483   0.748
 2949W        W 6468   5.206   4.633   8.736
 2950W        W 6469   8.945   8.883   3.258
 2951W        W 6470   7.980   1.937   0.228
 2952W        W 6471   1.490   5.581  10.012
 2953W        W 6472   6.468   8.123   0.039
 2954W        W 6473   0.903   0.619   0.785
 2955W        W 6474   5.749   9.233   3.531
 2956W        W 6475   5.999   5.857   9.106
 2957W        W 6476   1.839   0.911   9.715
 2958W        W 6477   0.361   6.166   9.679
 2959W        W 6478   5.706   1.243   2.125
 2960W        W 6479   5.399   2.248  10.892
 2961W        W 6480   1.390   2.446   0.873
 2962W        W 6481   5.275   8.995   0.013
 2963W        W 6482   2.707   0.238   2.174
 2964W        W 6483   1.642   5.681   2.243
 2965W        W 6484   9.021   6.492   2.076
 2966W        W 6485   7.034   3.027   0.978
 2967W        W 6486   7.065   9.543  11.188
 2968W        W 6487   6.495   0.224  11.282
 2969W        W 6488   3.746   1.428   0.296
 2970W        W 6489   3.755   5.667   3.217
 2971W        W 6490   8.998   8.618  11.479
 2972W        W 6491   4.451   3.063  11.170
 2973W        W 6492   8.164   6.005   2.997
 2974W        W 6493   0.739   1.156   9.589
 2975W        W 6494   7.035   6.883   2.227
 2976W        W 6495   0.522   9.293   2.050
 2977W        W 6496   2.149   2.041  11.394
 2978W        W 6497   2.629   2.436  11.412
 2979W        W 6498   7.172   4.239  10.866
 2980W        W 6499   7.823   7.103  11.878
 2981W        W 6500   6.011   4.084  11.489
 2982W        W 6501   8.753   1.731   8.922
 2983W        W 6502   1.700   1.785   2.767
 2984W        W 6503   0.253   1.143   0.215
 2985W        W 6504   7.479   3.524   3.525
 2986W        W 6505   1.486   1.243  10.497
 2987W        W 6506   6.651   3.909   8.151
 2988W        W 6507   6.055   8.752   1.067
 2989W        W 6508   8.430   7.682  11.519
 2990W        W 6509   0.245   4.649   1.275
 2991W        W 6510   9.073   1.649   3.555
 2992W        W 6511   4.215   1.133   8.561
 2993W        W 6512   0.464   9.348   2.626
 2994W        W 6513   5.782   1.863   1.797
 2995W        W 6514   7.201   9.479   9.316
 2996W        W 6515   9.781   9.402  10.037
 2997W        W 6516   1.346   5.409  11.188
 2998W        W 6517   2.323   7.184  10.891
 2999W        W 6518   9.664   6.499   0.678
 3000W        W 6519   5.626   9.806   2.824
 3001W        W 6520   4.901   4.320   9.988
 3002W        W 6521   8.414   9.540   9.725
 3003W        W 6522   0.871   3.398   1.875
 3004W        W 6523   0.323   4.826   2.216
 3005W        W 6524   6.609   6.014  11.494
 3006W        W 6525   2.280   7.210   0.092
 3007W        W 6526   3.964   7.677  11.323
 3008W        W 6527   6.047   1.694  11.660
 3009W        W 6528   7.642   6.586  10.382
 3010W        W 6529   7.573   4.223   1.614
 3011W        W 6530   3.309   2.011   9.096
 3012W        W 6531   2.233   5.232   9.488
 3013W        W 6532   9.980   6.249  11.385
 3014W        W 6533   2.146   8.219   0.001
 3015W        W 6534   0.302   9.827   2.625
 3016W        W 6535   9.750   7.374   2.880
 3017W        W 6536   2.554   3.009   8.750
 3018W        W 6537   8.607   6.408   8.711
 3019W        W 6538   0.017   4.868   2.857
 3020W        W 6539   1.299   2.466   0.357
 3021W        W 6540   1.810   4.981   0.215
 3022W        W 6541   3.895   8.039   1.982
 3023W        W 6542   3.238   1.494  10.853
 3024W        W 6543   1.094   4.990   9.255
 3025W        W 6544   7.580   6.709  11.610
 3026W        W 6545   7.403   3.152   9.267
 3027W        W 6546   0.871   5.282   8.860
 3028W        W 6547   2.592   3.674   9.311
 3029W        W 6548   7.287   3.937  11.690
 3030W        W 6549   9.610   1.909   1.871
 3031W        W 6550   0.605   7.172   3.201
 3032W        W 6551   3.062   5.281  11.995
 3033W        W 6552   5.427   7.471   0.878
 3034W        W 6553   4.200   1.815   3.057
 3035W        W 6554   7.428   7.435   1.669
 3036W        W 6555   5.720   2.214   2.224
 3037W        W 6556   1.946   5.269   0.654
 3038W        W 6557   5.820   1.050   9.012
 3039W        W 6558   2.477   2.058   3.506
 3040W        W 6559   5.574   2.755   1.352
 3041W        W 6560   2.271   0.520   2.170
 3042W        W 6561   2.689   7.295   8.986
 3043W        W 6562   4.540   9.953   1.063
 3044W        W 6563   5.175   5.067   2.788
 3045W        W 6564   7.508   5.325   2.876
 3046W        W 6565   2.729   7.785  10.244
 3047W        W 6566   6.274   0.264   8.717
 3048W        W 6567   9.211   9.751   8.468
 3049W        W 6568   0.001   1.722  11.207
 3050W        W 6569   9.933   8.855   3.385
 3051W        W 6570   6.988   4.716   3.097
 3052W        W 6571   5.566   7.870  11.943
 3053W        W 6572   7.729   8.753   9.516
 3054W        W 6573   3.506   9.303   1.950
 3055W        W 6574   8.656   4.973  10.900
 3056W        W 6575   8.737   9.473  10.153
 3057W        W 6576   8.461   4.157  10.284
 3058W        W 6577   0.325   4.596   9.170
 3059W        W 6578   9.073   9.309   0.468
 3060W        W 6579   8.781   5.137   9.889
 3061W        W 6580   1.922   0.384  11.463
 3062W        W 6581   7.510   9.097   9.228
 3063W        W 6582   7.229   0.361  11.355
 3064W        W 6583   2.145   9.932  11.490
 3065W        W 6584   4.610   6.917   0.680
 3066W        W 6585   2.767   5.982  10.314
 3067W        W 6586   6.922   1.723   3.193
 3068W        W 6587   5.264   7.018  10.504
 3069W        W 6588   8.172   9.298   2.315
 3070W        W 6589   0.566   9.991   3.451
 3071W        W 6590   8.346   7.499   1.785
 3072W        W 6591   9.019   9.819  11.461
 3073W        W 6592   4.350   8.245   1.102
 3074W        W 6593   9.135   1.814   2.569
 3075W        W 6594   1.407   7.644  11.475
 3076W        W 6595   8.396   1.125   3.385
 3077W        W 6596   3.234   0.208   3.364
 3078W        W 6597   8.398   9.365   2.765
 3079W        W 6598   7.490   7.948   1.935
 3080W        W 6599   8.166   2.679  10.539
 3081W        W 6600   6.909   1.575  11.457
 3082W        W 6601   2.276   9.905   2.909
 3083W        W 6602   9.329   7.754   9.085
 3084W        W 6603   9.900   3.289   9.415
 3085W        W 6604   7.992   5.486   9.446
 3086W        W 6605   7.929   4.321   1.977
 3087W        W 6606   6.127   2.326   9.478
 3088W        W 6607   9.507   2.280  11.733
 3089W        W 6608   0.968   9.220   0.680
 3090W        W 6609   2.054   2.321   3.339
 3091W        W 6610   2.515   6.340   0.024
 3092W        W 6611   5.474   6.536   9.582
 3093W        W 6612   7.658   0.283  11.586
 3094W        W 6613   8.216   0.206   9.179
 3095W        W 6614   4.252   3.230   8.239
 3096W        W 6615   5.360   9.816   8.788
 3097W        W 6616   0.267   9.117  11.350
 3098W        W 6617   6.363   1.972   1.070
 3099W        W 6618   1.408   4.367   9.227
 3100W        W 6619   2.237   0.322   1.454
 3101W        W 6620   6.936   5.063   8.498
 3102W        W 6621   4.048   9.424  10.501
 3103W        W 6622   3.676   6.041   8.323
 3104W        W 6623   1.365   9.012  11.385
 3105W        W 6624   5.982   1.043   9.890
 3106W        W 6625   1.844   7.867   1.996
 3107W        W 6626   0.167   6.776  11.316
 3108W        W 6627   4.199   6.985  10.136
 3109W        W 6628   7.045   5.232   3.225
 3110W        W 6629   7.123   6.057   1.431
 3111W        W 6630   1.772   8.489  10.692
 3112W        W 6631   7.432   9.418   9.772
 3113W        W 6632   6.137   4.241   1.642
 3114W        W 6633   4.293   9.406   2.324
 3115W        W 6634   7.165   5.911  10.572
 3116W        W 6635   3.381   6.348   1.824
 3117W        W 6636   3.951   2.516   2.295
 3118W        W 6637   0.322   8.162   8.926
 3119W        W 6638   0.759   6.698  10.393
 3120W        W 6639   1.212   4.596   3.499
 3121W        W 6640   0.814   9.967  10.737
 3122W        W 6641   1.064   7.776   1.342
 3123W        W 6642   7.797   0.704  11.863
 3124W        W 6643   9.518   8.979   9.877
 3125W        W 6644   3.304   8.960  11.728
 3126W        W 6645   3.144   2.799  10.207
 3127W        W 6646   9.459   4.528  10.401
 3128W        W 6647   5.218   2.033  10.386
 3129W        W 6648   9.074   5.123   8.949
 3130W        W 6649   4.018   9.842   2.319
 3131W        W 6650   5.685   7.483   1.364
 3132W        W 6651   0.547   5.648   2.126
 3133W        W 6652   4.668   7.884  11.835
 3134W        W 6653   5.085   1.174   9.835
 3135W        W 6654   4.062   9.441  11.526
 3136W        W 6655   7.409   5.184   2.391
 3137W        W 6656   4.618   2.827  10.488
 3138W        W 6657   2.354   6.528   3.255
 3139W        W 6658   0.245   9.753   1.779
 3140W        W 6659   7.808   7.866   2.740
 3141W        W 6660   1.438   2.175  10.085
 3142W        W 6661   8.570   8.611  11.792
 3143W        W 6662   3.531   4.535   0.474
 3144W        W 6663   1.828   6.709   3.162
 3145W        W 6664   8.271   7.973   2.585
 3146W        W 6665   9.211   6.037  11.885
 3147W        W 6666   9.269   0.968   2.871
 3148W        W 6667   0.343   7.809  10.524
 3149W        W 6668   1.898   2.411   0.956
 3150W        W 6669   3.566   2.582  10.356
 3151W        W 6670   6.217   2.689   0.671
 3152W        W 6671   7.641   5.336   9.089
 3153W        W 6672   9.895   7.115   0.050
 3154W        W 6673   7.929   1.626   1.803
 3155W        W 6674   2.926   8.641   9.884
 3156W        W 6675   4.983   1.364  11.357
 3157W        W 6676   4.627   6.490   1.519
 3158W        W 6677   5.644   6.816   0.733
 3159W        W 6678   5.868   0.314   9.438
 3160W        W 6679   2.246   7.925  10.185
 3161W        W 6680   0.019   4.222  10.777
 3162W        W 6681   9.883   3.444   0.284
 3163W        W 6682   8.019   5.767  10.435
 3164W        W 6683   4.739   6.309   9.435
 3165W        W 6684   8.558   0.582  11.227
 3166W        W 6685   8.950   5.743   0.789
 3167W        W 6686   6.105   6.626   9.122
 3168W        W 6687   1.295   3.094  11.670
 3169W        W 6688   4.236   5.536   1.900
 3170W        W 6689   4.120   1.327  11.248
 3171W        W 6690   9.223   4.596   0.466
 3172W        W 6691   4.791   0.922   2.184
 3173W        W 6692   6.875   2.314  10.796
 3174W        W 6693   4.864   1.598   1.365
 3175W        W 6694   5.267   0.242   0.733
 3176W        W 6695   2.127   4.981   3.627
 3177W        W 6696   3.334   6.593  11.734
 3178W        W 6697   4.653   1.746   2.737
 3179W        W 6698   3.597   1.121   9.082
 3180W        W 6699   3.534   4.564   7.859
 3181W        W 6700   2.788   3.766  11.134
 3182W        W 6701   2.676   4.336   9.821
 3183W        W 6702   1.315   2.645  11.365
 3184W        W 6703   3.265   0.802   9.391
 3185W        W 6704   6.204   5.583   4.214
 3186W        W 6705   0.854   6.972   0.373
 3187W        W 6706   1.593   3.033  10.817
 3188W        W 6707   9.220   8.360   0.268
 3189W        W 6708   6.885   5.109   2.246
 3190W        W 6709   5.425   7.109  11.007
 3191W        W 6710   6.005   9.544  11.281
 3192W        W 6711   8.131   2.676   2.453
 3193W        W 6712   5.247   9.984   0.285
 3194W        W 6713   6.901   9.804   2.186
 3195W        W 6714   5.205   5.098  10.894
 3196W        W 6715   3.818   8.918   3.155
 3197W        W 6716   9.375   3.443  11.117
 3198W        W 6717   4.483   7.058   2.283
 3199W        W 6718   0.403   6.422   1.714
 3200W        W 6719   5.660   4.487   3.423
 3201W        W 6720   0.824   1.081   9.072
 3202W        W 6721   5.107   1.440   3.135
 3203W        W 6722   6.594   9.228  11.343
 3204W        W 6723   1.781   4.265  11.523
 3205W        W 6724   8.305   7.073   0.032
 3206W        W 6725   4.552   6.367   9.898
 3207W        W 6726   6.743   3.765   9.702
 3208W        W 6727   8.639   1.085  10.327
 3209W        W 6728   3.367   2.591  11.949
 3210W        W 6729   0.410   9.667  10.575
 3211W        W 6730   1.329   6.023   3.046
 3212W        W 6731   7.298   4.501   9.216
 3213W        W 6732   5.213   1.516  10.424
 3214W        W 6733   3.595   4.991   9.172
 3215W        W 6734   8.595   4.309  11.826
 3216W        W 6735   4.364   4.280   1.456
 3217W        W 6736   9.547   1.885   3.408
 3218W        W 6737   3.073   3.810  10.209
 3219W        W 6738   6.413   6.258  11.084
 3220W        W 6739   5.266   7.777   3.566
 3221W        W 6740   0.425   4.364  10.513
 3222W        W 6741   1.385   0.336   1.599
 3223W        W 6742   1.231   2.402   2.269
 3224W        W 6743   9.972   1.744   9.785
 3225W        W 6744   1.799   7.490   9.778
 3226W        W 6745   2.409   3.340   2.764
 3227W        W 6746   5.273   3.662   3.140
 3228W        W 6747   0.517   2.135  10.068
 3229W        W 6748   1.603   1.038   2.668
 3230W        W 6749   7.553   4.762  11.897
 3231W        W 6750   6.534   7.650   0.352
 3232W        W 6751   6.548   4.758   3.390
 3233W        W 6752   6.845   9.321   3.103
 3234W        W 6753   2.075   9.236   2.981
 3235W        W 6754   0.420   6.377  11.153
 3236W        W 6755   4.280   3.108   3.096
 3237W        W 6756   2.244   5.596  11.147
 3238W        W 6757   5.712   3.593   2.208
 3239W        W 6758   9.012   1.026   0.389
 3240W        W 6759   3.137   7.102  10.532
 3241W        W 6760   4.292   4.628  11.863
 3242W        W 6761   0.699   8.288   0.850
 3243W        W 6762   0.854   7.667  10.503
 3244W        W 6763   0.880   1.560   2.699
 3245W        W 6764   4.305   2.403   8.695
 3246W        W 6765   0.115   0.699   1.415
 3247W        W 6766   0.351   1.852   0.433
 3248W        W 6767   0.258   5.655   3.433
 3249W        W 6768   4.768   1.280   3.491
 3250W        W 6769   9.510   6.642   1.143
 3251W        W 6770   6.941   0.143   1.793
 3252W        W 6771   4.188   1.603   2.568
 3253W        W 6772   5.025   5.904  11.118
 3254W        W 6773   6.677   8.221   9.028
 3255W        W 6774   8.089   9.105   1.854
 3256W        W 6775   4.369   6.230   9.087
 3257W        W 6776   7.110   1.641   9.231
 3258W        W 6777   8.923   3.997  11.053
 3259W        W 6778   2.882   6.493   3.111
 3260W        W 6779   5.994   4.355   9.126
 3261W        W 6780   1.625   3.563   9.629
 3262W        W 6781   9.835   9.522  11.996
 3263W        W 6782   6.879   7.692   0.751
 3264W        W 6783   9.833   6.879   2.880
 3265W        W 6784   2.013   0.846  10.715
 3266W        W 6785   4.114   2.007   2.253
 3267W        W 6786   6.901   7.795   8.845
 3268W        W 6787   9.470   0.752   9.018
 3269W        W 6788   0.620   4.693   9.602
 3270W        W 6789   6.593   6.015   3.659
 3271W        W 6790   8.618   5.786   2.881
 3272W        W 6791   8.511   1.287   2.420
 3273W        W 6792   9.315   2.674   1.050
 3274W        W 6793   5.967   6.123   0.832
 3275W        W 6794   1.951   1.649   1.375
 3276W        W 6795   7.899   9.744   2.328
 3277W        W 6796   6.997   6.985   0.357
 3278W        W 6797   9.342   0.078   2.308
 3279W        W 6798   0.474   0.349   0.523
 3280W        W 6799   3.725   0.732  10.323
 3281W        W 6800   2.368   0.707   3.512
 3282W        W 6801   8.721   4.134   8.486
 3283W        W 6802   6.474   4.595   1.739
 3284W        W 6803   2.664   5.679   8.424
 3285W        W 6804   7.601   2.275   0.268
 3286W        W 6805   0.720   3.973  10.285
 3287W        W 6806   3.695   1.560  11.392
 3288W        W 6807   4.888   7.254   8.630
 3289W        W 6808   1.260   6.283   8.677
 3290W        W 6809   9.562   5.005   0.571
 3291W        W 6810   4.635   2.715  11.905
 3292W        W 6811   8.064   6.504   9.560
 3293W        W 6812   1.773   3.302   1.465
 3294W        W 6813   7.677   9.850  11.858
 3295W        W 6814   7.050   4.863   0.031
 3296W        W 6815   7.605   8.438  11.794
 3297W        W 6816   9.961   0.945   0.574
 3298W        W 6817   6.305   5.330  11.439
 3299W        W 6818   5.296   4.536   9.230
 3300W        W 6819   4.118   4.118   3.398
 3301W        W 6820   4.485   3.162   1.700
 3302W        W 6821   9.943   9.450   2.719
 3303W        W 6822   7.069   8.173   1.760
 3304W        W 6823   7.725   3.066   9.689
 3305W        W 6824   0.845   9.765   0.012
 3306W        W 6825   3.503   3.858   2.497
 3307W        W 6826   5.381   7.854   9.076
 3308W        W 6827   5.891   9.637   1.719
 3309W        W 6828   3.947   2.708   0.572
 3310W        W 6829   5.087   3.336  10.583
 3311W        W 6830   6.580   7.050   4.249
 3312W        W 6831   8.134   8.611   1.810
 3313W        W 6832   3.920   0.292  11.806
 3314W        W 6833   0.330   0.424  11.240
 3315W        W 6834   7.933   1.361   1.272
 3316W        W 6835   0.138   1.703   0.920
 3317W        W 6836   3.476   8.900   3.569
 3318W        W 6837   3.846   6.431   3.750
 3319W        W 6838   6.319   0.165   9.620
 3320W        W 6839   8.064   6.420   0.339
 3321W        W 6840   6.302   4.822   9.039
 3322W        W 6841   0.802   4.824   2.392
 3323W        W 6842   2.921   2.292   3.374
 3324W        W 6843   5.461   1.488   9.697
 3325W        W 6844   6.670   5.597   3.979
 3326W        W 6845   8.495   8.043   3.025
 3327W        W 6846   9.938   9.935  11.274
 3328W        W 6847   2.195   1.012   2.111
 3329W        W 6848   2.405   6.914   9.971
 3330W        W 6849   9.005   3.545   2.854
 3331W        W 6850   7.472   3.743   1.437
 3332W        W 6851   1.081   6.639   1.839
 3333W        W 6852   6.003   2.727   9.794
 3334W        W 6853   8.814   1.485   0.561
 3335W        W 6854   9.057   9.635   2.255
 3336W        W 6855   4.697   7.047  10.506
 3337W        W 6856   3.908   5.875  11.770
 3338W        W 6857   6.107   3.172  10.540
 3339W        W 6858   9.805   8.803   9.470
 3340W        W 6859   9.259   0.873  10.930
 3341W        W 6860   5.566   8.349  11.781
 3342W        W 6861   0.652   8.680  10.691
 3343W        W 6862   7.415   9.131   0.515
 3344W        W 6863   1.156   5.097   1.010
 3345W        W 6864   4.632   1.809   8.987
 3346W        W 6865   2.054   2.635   8.681
 3347W        W 6866   5.629   5.236   0.376
 3348W        W 6867   1.209   6.272   0.081
 3349W        W 6868   5.592   9.373   9.675
 3350W        W 6869   1.750   0.880  10.256
 3351W        W 6870   6.520   2.126   0.070
 3352W        W 6871   2.277   9.930  10.989
 3353W        W 6872   5.799   9.073   0.012
 3354W        W 6873   0.162   1.555   3.947
 3355W        W 6874   3.774   3.755  11.862
 3356W        W 6875   2.233   5.986   1.997
 3357W        W 6876   8.102   7.090   8.862
 3358W        W 6877   4.903   4.046   0.450
 3359W        W 6878   5.122   6.847   0.337
 3360W        W 6879   7.950   5.474   1.360
 3361W        W 6880   6.052   5.596   0.802
 3362W        W 6881   1.002   4.125   9.529
 3363W        W 6882   3.426   0.357   9.561
 3364W        W 6883   6.304   8.670  11.403
 3365W        W 6884   8.442   2.627   9.221
 3366W        W 6885   9.431   0.296   8.785
 3367W        W 6886   7.724   5.101   1.037
 3368W        W 6887   7.970   7.591  11.242
 3369W        W 6888   3.531   6.062   1.419
 3370W        W 6889   0.787   1.650   8.981
 3371W        W 6890   6.834   7.502  11.242
 3372W        W 6891   0.848   9.668   0.951
 3373W        W 6892   4.046   3.060   0.923
 3374W        W 6893   7.843   8.225   9.822
 3375W        W 6894   1.873   7.134  11.778
 3376W        W 6895   0.171   7.849   9.306
 3377W        W 6896   5.374   4.263   9.776
 3378W        W 6897   7.465   5.756   3.539
 3379W        W 6898   8.284   4.166   0.608
 3380W        W 6899   0.959   2.304  11.551
 3381W        W 6900   4.803   6.460   0.656
 3382W        W 6901   4.699   0.853   2.680
 3383W        W 6902   6.327   7.593   9.879
 3384W        W 6903   3.680   0.480   1.716
 3385W        W 6904   9.769   6.744   2.377
 3386W        W 6905   4.738   0.344  11.381
 3387W        W 6906   7.384   8.303  10.947
 3388W        W 6907   3.764   0.050  11.381
 3389W        W 6908   0.601   3.672   1.195
 3390W        W 6909   3.189   5.973   0.563
 3391W        W 6910   7.949   8.160   1.792
 3392W        W 6911   3.873   5.932   9.570
 3393W        W 6912   9.263   5.469   3.250
 3394W        W 6913   8.545   7.463   0.839
 3395W        W 6914   9.644   5.280   0.157
 3396W        W 6915   8.134   0.660  10.298
 3397W        W 6916   2.757   4.375   8.492
 3398W        W 6917   0.487   0.853   0.570
 3399W        W 6918   6.785   6.486   3.535
 3400W        W 6919   9.564   3.377  11.881
 3401W        W 6920   9.232   8.193  10.096
 3402W        W 6921   3.058   4.351   0.355
 3403W        W 6922   4.707   6.664   3.612
 3404W        W 6923   3.655   0.739  10.832
 3405W        W 6924   9.683   1.756   1.290
 3406W        W 6925   9.845   0.251   1.194
 3407W        W 6926   2.645   0.732  11.867
 3408W        W 6927   5.267   6.204   3.743
 3409W        W 6928   8.969   9.965   9.549
 3410W        W 6929   5.710   0.133   1.848
 3411W        W 6930   4.973   9.396  11.913
 3412W        W 6931   0.328   7.994  11.762
 3413W        W 6932   7.762   6.751   9.009
 3414W        W 6933   4.513   7.902  10.888
 3415W        W 6934   8.681   0.320   3.227
 3416W        W 6935   3.089   3.388  11.443
 3417W        W 6936   2.223   5.985   0.921
 3418W        W 6937   9.081   0.759  10.439
 3419W        W 6938   8.389   9.334  11.855
 3420W        W 6939   5.194   1.935   8.520
 3421W        W 6940   0.782   8.076  11.510
 3422W        W 6941   7.936   3.401   1.305
 3423W        W 6942   2.175   4.347   2.809
 3424W        W 6943   8.044   4.616   9.884
 3425W        W 6944   3.784   8.876   0.736
 3426W        W 6945   0.452   4.225  11.049
 3427W        W 6946   4.997   2.073  11.750
 3428W        W 6947   4.944   9.955   2.150
 3429W        W 6948   4.303   8.975   3.352
 3430W        W 6949   0.293   8.786  10.288
 3431W        W 6950   2.558   4.702   2.869
 3432W        W 6951   3.129   2.171   9.550
 3433W        W 6952   6.329   2.994  10.089
 3434W        W 6953   1.394   2.139   3.185
 3435W        W 6954   2.490   2.637   9.530
 3436W        W 6955   6.593   1.786   1.898
 3437W        W 6956   2.846   5.981   0.169
 3438W        W 6957   7.407   2.676   9.578
 3439W        W 6958   3.553   4.569   8.872
 3440W        W 6959   8.499   2.636  10.943
 3441W        W 6960   0.322   5.924   0.740
 3442W        W 6961   1.252   8.052  11.765
 3443W        W 6962   9.253   3.771  10.747
 3444W        W 6963   9.609   1.741  10.898
 3445W        W 6964   1.442   3.042  10.307
 3446W        W 6965   7.199   4.996   8.971
 3447W        W 6966   1.368   9.360  10.336
 3448W        W 6967   6.371   0.960  10.623
 3449W        W 6968   3.092   9.087   9.256
 3450W        W 6969   6.342   1.777   8.715
 3451W        W 6970   3.736   8.579  10.070
 3452W        W 6971   3.759   7.914   2.476
 3453W        W 6972   1.828   1.814   9.596
 3454W        W 6973   8.095   3.052   1.704
 3455W        W 6974   6.023   1.854  10.772
 3456W        W 6975   5.937   3.331  10.042
 3457W        W 6976   6.005   9.518   9.126
 3458W        W 6977   5.985   4.168   1.156
 3459W        W 6978   9.583   5.345  10.003
 3460W        W 6979   6.383   0.170   1.123
 3461W        W 6980   0.468   9.310   0.338
 3462W        W 6981   8.002   3.240   9.287
 3463W        W 6982   1.720   2.663   2.595
 3464W        W 6983   6.913   2.383   9.236
 3465W        W 6984   3.158   9.983   9.215
 3466W        W 6985   3.448   9.441   3.574
 3467W        W 6986   5.241   6.957   2.807
 3468W        W 6987   1.861   3.793  11.751
 3469W        W 6988   8.196   1.443  10.985
 3470W        W 6989   5.124   3.485   8.189
 3471W        W 6990   0.842   3.154   3.567
 3472W        W 6991   8.732   9.332   1.429
 3473W        W 6992   5.300   4.612  11.164
 3474W        W 6993   4.850   7.731   9.842
 3475W        W 6994   7.944   2.225  10.434
 3476W        W 6995   5.990   4.746   1.711
 3477W        W 6996   1.533   4.267   9.719
 3478W        W 6997   6.163   6.421   2.790
 3479W        W 6998   5.487   3.533  10.305
 3480W        W 6999   5.365   2.893   8.731
 3481W        W 7000   7.617   8.444   2.119
 3482W        W 7001   3.662   3.454   8.899
 3483W        W 7002   3.285   4.610   3.402
 3484W        W 7003   4.597   3.521   2.967
 3485W        W 7004   3.481   7.895   0.164
 3486W        W 7005   6.920   4.722   2.605
 3487W        W 7006   2.251   4.583   3.277
 3488W        W 7007   8.460   3.371   1.839
 3489W        W 7008   4.195   7.514   0.287
 3490W        W 7009   0.308   5.425  10.468
 3491W        W 7010   2.302   0.171  10.025
 3492W        W 7011   1.311   2.359   9.086
 3493W        W 7012   7.341   6.177   3.229
 3494W        W 7013   2.723   7.019   0.270
 3495W        W 7014   3.841   5.413   3.641
 3496W        W 7015   2.719   6.900  10.746
 3497W        W 7016   1.742   8.967  11.728
 3498W        W 7017   4.088   8.557  11.660
 3499W        W 7018   5.512   2.893  11.682
 3500W        W 7019   5.473   0.463   0.296
 3501W        W 7020   0.419   4.135   1.322
 3502W        W 7021   9.751   6.127   8.322
 3503W        W 7022   4.449   7.047   8.831
 3504W        W 7023   8.896   9.500  11.887
 3505W        W 7024   6.089   5.104   0.947
 3506W        W 7025   9.043   2.648   2.913
 3507W        W 7026   2.691   3.236   1.497
 3508W        W 7027   5.688   7.124   1.766
 3509W        W 7028   5.135   7.779   3.072
 3510W        W 7029   4.139   7.390   9.727
 3511W        W 7030   3.519   6.839  11.274
 3512W        W 7031   0.863   2.746   0.315
 3513W        W 7032   1.388   1.850   9.293
 3514W        W 7033   4.192   5.598   2.920
 3515W        W 7034   9.373   7.213   9.201
 3516W        W 7035   5.199   0.127   3.221
 3517W        W 7036   6.623   6.731   1.534
 3518W        W 7037   2.136   4.766  10.305
 3519W        W 7038   3.415   0.317  11.658
 3520W        W 7039   3.498   9.447   0.760
 3521W        W 7040   5.530   1.939  11.807
 3522W        W 7041   8.501   6.875  11.095
 3523W        W 7042   8.827   0.042   2.576
 3524W        W 7043   7.313   0.106   1.446
 3525W        W 7044   2.053   8.321   9.369
 3526W        W 7045   2.003   1.363   2.616
 3527W        W 7046   4.421   7.015  10.943
 3528W        W 7047   5.165   1.404   0.460
 3529W        W 7048   9.918   8.448  11.019
 3530W        W 7049   9.950   0.373   2.724
 3531W        W 7050   6.225   6.511  11.949
 3532W        W 7051   2.888   7.764   1.035
 3533W        W 7052   5.610   0.695   2.153
 3534W        W 7053   0.321   6.129   9.152
 3535W        W 7054   1.734   9.511   1.404
 3536W        W 7055   5.040   7.022   8.195
 3537W        W 7056   9.488   8.466   9.224
 3538W        W 7057   6.709   4.445  11.039
 3539W        W 7058   1.013   0.749  11.722
 3540W        W 7059   7.153   6.508   0.375
 3541W        W 7060   8.931   3.602  11.978
 3542W        W 7061   2.377   1.184   9.870
 3543W        W 7062   1.275   8.220   1.411
 3544W        W 7063   9.409   8.598   1.810
 3545W        W 7064   5.621   3.833   8.370
 3546W        W 7065   9.901   0.181  10.526
 3547W        W 7066   8.228   4.782   2.625
 3548W        W 7067   8.949   8.221   0.664
 3549W        W 7068   6.108   0.697   0.521
 3550W        W 7069   5.481   5.044   9.243
 3551W        W 7070   5.843   6.985   8.822
 3552W        W 7071   0.617   7.873  10.089
 3553W        W 7072   6.488   5.655   3.275
 3554W        W 7073   0.298   3.905   0.844
 3555W        W 7074   2.195   1.659  11.761
 3556W        W 7075   5.120   1.584  11.827
 3557W        W 7076   7.889   6.839   3.002
 3558W        W 7077   0.962   1.455   9.938
 3559W        W 7078   0.665   9.834   1.466
 3560W        W 7079   4.343   9.201   9.513
 3561W        W 7080   7.822   3.211  11.303
 3562W        W 7081   6.938   3.824  10.646
 3563W        W 7082   6.952   8.496   0.284
 3564W        W 7083   6.895   1.050   9.926
 3565W        W 7084   1.752   2.623  10.256
 3566W        W 7085   0.921   9.563  11.122
 3567W        W 7086   6.586   7.999   9.996
 3568W        W 7087   6.961   9.708  10.212
 3569W        W 7088   1.763   8.878   1.821
 3570W        W 7089   1.154   5.062   3.243
 3571W        W 7090   9.826   6.025   0.604
 3572W        W 7091   8.643   2.915   3.063
 3573W        W 7092   4.552   7.340  10.048
 3574W        W 7093   4.589   7.005   1.680
 3575W        W 7094   4.500   9.071  10.243
 3576W        W 7095   9.330   7.215   1.691
 3577W        W 7096   8.677   4.413   9.285
 3578W        W 7097   9.800   8.773   1.005
 3579W        W 7098   9.214   0.373   9.281
 3580W        W 7099   1.379   1.175  10.008
 3581W        W 7100   8.061   8.697   9.898
 3582W        W 7101   7.740   6.272   9.217
 3583W        W 7102   4.306   8.361  10.724
 3584W        W 7103   1.754   6.109   0.712
 3585W        W 7104   1.682   0.689   8.877
 3586W        W 7105   4.185   7.867   2.773
 3587W        W 7106   6.708   9.367   3.584
 3588W        W 7107   6.427   0.900  10.118
 3589W        W 7108   4.902   8.275   3.443
 3590W        W 7109   5.266   7.467   2.281
 3591W        W 7110   5.750   7.451   8.646
 3592W        W 7111   1.745   2.052   8.957
 3593W        W 7112   2.784   0.902   9.593
 3594W        W 7113   4.976   7.299   0.505
 3595W        W 7114   9.886   9.757  10.809
 3596W        W 7115   3.190   5.114   9.509
 3597W        W 7116   1.473   9.930   1.277
 3598W        W 7117   0.458   1.715   2.965
 3599W        W 7118   7.157   9.105  11.467
 3600W        W 7119   1.976   0.288   9.009
 3601W        W 7120   7.323   5.271   3.650
 3602W        W 7121   9.592   9.710  10.388
 3603W        W 7122   4.663   0.713   1.686
 3604W        W 7123   6.948   1.311   2.185
 3605W        W 7124   1.735   5.714   1.033
 3606W        W 7125   2.312   1.197   3.379
 3607W        W 7126   6.542   4.882   0.912
 3608W        W 7127   9.514   0.124   2.862
 3609W        W 7128   5.562   8.332   2.606
 3610W        W 7129   1.347   7.609  11.995
 3611W        W 7130   6.650   3.358   0.793
 3612W        W 7131   4.764   1.149   9.356
 3613W        W 7132   2.611   2.167   1.691
 3614W        W 7133   0.562   3.117   3.146
 3615W        W 7134   8.547   8.887   1.159
 3616W        W 7135   6.063   1.241   3.311
 3617W        W 7136   5.109   6.989   4.097
 3618W        W 7137   6.100   4.628  11.529
 3619W        W 7138   2.304   9.835   0.826
 3620W        W 7139   2.400   2.452   0.862
 3621W        W 7140   7.191   2.608   3.497
 3622W        W 7141   5.592   6.612   2.014
 3623W        W 7142   4.793   2.206   3.469
 3624W        W 7143   1.813   0.026   1.670
 3625W        W 7144   6.629   8.316   9.527
 3626W        W 7145   1.371   4.158   2.553
 3627W        W 7146   6.381   3.207   8.750
 3628W        W 7147   3.206   5.593   2.895
 3629W        W 7148   5.334   5.710   3.920
 3630W        W 7149   9.623   5.112   3.110
 3631W        W 7150   5.543   9.054   0.465
 3632W        W 7151   3.619   2.095  10.462
 3633W        W 7152   6.926   7.316   9.991
 3634W        W 7153   3.021   9.415   0.976
 3635W        W 7154   3.312   3.671   9.780
 3636W        W 7155   5.703   9.942   1.001
 3637W        W 7156   8.921   5.960   9.569
 3638W        W 7157   8.601   5.735   0.264
 3639W        W 7158   7.623   3.248   1.732
 3640W        W 7159   5.264   5.866   1.694
 3641W        W 7160   7.735   0.043   9.071
 3642W        W 7161   0.551   9.171  10.487
 3643W        W 7162   1.547   5.060   1.543
 3644W        W 7163   8.340   8.879   2.627
 3645W        W 7164   4.305   0.664   0.532
 3646W        W 7165   5.160   9.327   2.140
 3647W        W 7166   4.714   3.656  11.778
 3648W        W 7167   4.498   1.906   9.851
 3649W        W 7168   8.828   2.197   2.821
 3650W        W 7169   5.273   7.614   8.559
 3651W        W 7170   0.432   1.850  11.436
 3652W        W 7171   1.888   9.049   8.896
 3653W        W 7172   0.419   7.031   0.767
 3654W        W 7173   4.201   3.347   2.647
 3655W        W 7174   8.095   3.705  11.946
 3656W        W 7175   6.776   2.311  11.308
 3657W        W 7176   0.965   2.334  10.707
 3658W        W 7177   2.885   2.749   3.689
 3659W        W 7178   6.131   9.962   2.062
 3660W        W 7179   6.747   4.625   1.318
 3661W        W 7180   6.550   8.898   3.098
 3662W        W 7181   8.161   9.188   9.989
 3663W        W 7182   3.183   7.546  10.153
 3664W        W 7183   9.665   2.804  11.709
 3665W        W 7184   9.656   4.706  10.853
 3666W        W 7185   6.025   9.892   3.171
 3667W        W 7186   1.758   8.051   1.508
 3668W        W 7187   3.623   6.646   9.980
 3669W        W 7188   1.845   1.699   2.265
 3670W        W 7189   0.653   6.021  10.854
 3671W        W 7190   7.083   0.306   3.148
 3672W        W 7191   1.632   7.384   1.773
 3673W        W 7192   4.596   8.751   8.638
 3674W        W 7193   2.275   7.071   2.545
 3675W        W 7194   7.704   7.860  10.899
 3676W        W 7195   1.286   0.439   1.095
 3677W        W 7196   0.572   0.821  11.464
 3678W        W 7197   3.158   4.716   2.060
 3679W        W 7198   7.109   5.284  11.760
 3680W        W 7199   5.134   7.847   1.068
 3681W        W 7200   4.543   0.205  10.556
 3682W        W 7201   4.923   3.102  11.013
 3683W        W 7202   8.414   9.911   1.054
 3684W        W 7203   1.671   4.464  10.819
 3685W        W 7204   8.406   0.307   2.788
 3686W        W 7205   4.027   3.369   1.345
 3687W        W 7206   0.423   1.732  10.917
 3688W        W 7207   5.128   5.728   2.168
 3689W        W 7208   6.763   5.541  11.449
 3690W        W 7209   5.603   2.627   1.885
 3691W        W 7210   0.779   4.343   9.934
 3692W        W 7211   2.996   8.795   1.280
 3693W        W 7212   9.053   9.963   9.001
 3694W        W 7213   2.250   4.446  11.699
 3695W        W 7214   6.284   9.115   9.447
 3696W        W 7215   9.369   5.695   9.551
 3697W        W 7216   8.055   6.254   8.819
 3698W        W 7217   4.243   7.487  10.945
 3699W        W 7218   8.262   6.543   3.219
 3700W        W 7219   7.415   4.055   8.835
 3701W        W 7220   7.831   2.696   9.312
 3702W        W 7221   0.443   4.912  10.518
 3703W        W 7222   3.049   8.412  11.572
 3704W        W 7223   2.260   7.421  10.003
 3705W        W 7224   7.996   7.953   1.315
 3706W        W 7225   2.181   1.922   2.576
 3707W        W 7226   6.148   5.284   9.763
 3708W        W 7227   2.388   0.273   3.241
 3709W        W 7228   0.327   6.429  11.714
 3710W        W 7229   4.721   9.598   3.067
 3711W        W 7230   2.607   0.450   0.268
 3712W        W 7231   3.896   4.627   2.172
 3713W        W 7232   2.281   5.226  10.568
 3714W        W 7233   5.375   1.100   0.854
 3715W        W 7234   9.245   1.996  10.136
 3716W        W 7235   2.276   0.917   9.416
 3717W        W 7236   1.798   8.683   0.896
 3718W        W 7237   7.270   6.829  10.632
 3719W        W 7238   4.082   8.557   2.023
 3720W        W 7239   2.838   4.623  11.041
 3721W        W 7240   4.763   5.647   1.813
 3722W        W 7241   1.668   8.840   2.343
 3723W        W 7242   0.273   8.253  10.227
 3724W        W 7243   6.692   6.669   0.086
 3725W        W 7244   6.480   5.117   9.410
 3726W        W 7245   0.428   2.106  11.897
 3727W        W 7246   7.520   8.925   2.815
 3728W        W 7247   3.666   0.073   9.963
 3729W        W 7248   2.265   6.373   1.302
 3730W        W 7249   5.464   3.652   0.306
 3731W        W 7250   3.557   5.016   2.071
 3732W        W 7251   1.212   4.245   1.657
 3733W        W 7252   5.875   8.407  11.349
 3734W        W 7253   8.720   8.564   2.902
 3735W        W 7254   0.930   7.881   2.080
 3736W        W 7255   3.198   9.964   9.747
 3737W        W 7256   7.487   6.966   2.545
 3738W        W 7257   4.877   5.300   0.387
 3739W        W 7258   2.719   8.423   3.378
 3740W        W 7259   5.478   9.475   0.170
 3741W        W 7260   2.373   4.567   1.831
 3742W        W 7261   3.514   9.335   9.447
 3743W        W 7262   5.675   4.034   2.499
 3744W        W 7263   8.879   9.738   0.658
 3745W        W 7264   3.913   2.613   8.995
 3746W        W 7265   6.012   2.815   1.630
 3747W        W 7266   9.056   0.458   2.841
 3748W        W 7267   1.234   8.195   8.783
 3749W        W 7268   6.750   1.241  10.388
 3750W        W 7269   5.112   8.597   8.699
 3751W        W 7270   9.410   4.696   1.937
 3752W        W 7271   9.772   9.779   0.920
 3753W        W 7272   4.895   0.324   1.276
 3754W        W 7273   0.298   5.522  10.969
 3755W        W 7274   8.137   4.124  11.655
 3756W        W 7275   0.375   4.677  10.069
 3757W        W 7276   2.245   8.428   2.678
 3758W        W 7277   3.968   1.866   0.449
 3759W        W 7278   3.810   2.755  11.725
 3760W        W 7279   1.176   2.168   1.798
 3761W        W 7280   6.386   4.065   9.501
 3762W        W 7281   6.331   6.140   8.820
 3763W        W 7282   6.016   9.415   0.303
 3764W        W 7283   4.897   1.128  11.814
 3765W        W 7284   5.940   5.260   1.819
 3766W        W 7285   2.861   5.982  10.808
 3767W        W 7286   1.320   2.406   2.777
 3768W        W 7287   2.280   0.042   2.414
 3769W        W 7288   7.192   9.131   0.047
 3770W        W 7289   6.905   4.909   0.553
 3771W        W 7290   6.897   5.340   0.828
 3772W        W 7291   9.049   3.869   1.275
 3773W        W 7292   4.158   0.903  11.552
 3774W        W 7293   6.809   8.762  11.398
 3775W        W 7294   6.701   9.040   8.776
 3776W        W 7295   4.504   0.231   8.804
 3777W        W 7296   8.458   8.074   9.614
 3778W        W 7297   8.929   4.417   1.313
 3779W        W 7298   1.827   9.678   2.783
 3780W        W 7299   2.697   9.259  11.704
 3781W        W 7300   2.251   9.509   9.486
 3782W        W 7301   8.004   7.903   0.367
 3783W        W 7302   6.827   4.762   9.242
 3784W        W 7303   0.122   0.110   0.232
 3785W        W 7304   7.600   5.583   1.948
 3786W        W 7305   4.581   0.801   3.203
 3787W        W 7306   4.280   1.836   1.768
 3788W        W 7307   7.216   1.325   3.058
 3789W        W 7308   2.370   9.852   3.549
 3790W        W 7309   6.767   2.925   3.433
 3791W        W 7310   0.060   7.611  11.546
 3792W        W 7311   4.960   1.412   8.925
 3793W        W 7312   7.577   7.088  10.290
 3794W        W 7313   4.809   8.977   0.936
 3795W        W 7314   2.408   0.826  11.063
 3796W        W 7315   5.069   3.117   0.514
 3797W        W 7316   5.651   5.910   9.514
 3798W        W 7317   3.224   9.942  10.763
 3799W        W 7318   1.644   2.386   1.956
 3800W        W 7319   2.273   4.041   1.253
 3801W        W 7320   0.722   8.859   2.286
 3802W        W 7321   2.130   3.229   2.357
 3803W        W 7322   6.075   2.653  11.804
 3804W        W 7323   9.730   4.539   0.450
 3805W        W 7324   1.523   4.515   0.810
 3806W        W 7325   5.176   4.106   2.435
 3807W        W 7326   8.925   7.498   0.478
 3808W        W 7327   3.295   6.620  10.367
 3809W        W 7328   4.525   2.275   1.834
 3810W        W 7329   2.859   1.490   2.778
 3811W        W 7330   5.720   4.377   8.384
 3812W        W 7331   8.368   9.051  11.409
 3813W        W 7332   8.177   1.877  11.254
 3814W        W 7333   0.332   0.711   2.911
 3815W        W 7334   5.798   5.564   2.737
 3816W        W 7335   4.746   4.339  10.985
 3817W        W 7336   1.853   2.237   2.887
 3818W        W 7337   4.418   2.779   0.404
 3819W        W 7338   8.302   3.882   8.660
 3820W        W 7339   1.245   0.608   2.320
 3821W        W 7340   2.036   7.465   2.827
 3822W        W 7341   3.433   4.723   2.507
 3823W        W 7342   7.811   9.512   0.515
 3824W        W 7343   7.620   0.741  11.363
 3825W        W 7344   5.426   8.195   3.134
 3826W        W 7345   1.364   4.420  11.837
 3827W        W 7346   9.542   1.247  10.776
 3828W        W 7347   3.954   7.506   1.891
 3829W        W 7348   6.204   0.355   3.465
 3830W        W 7349   4.668   7.462   1.451
 3831W        W 7350   3.539   3.273  10.850
 3832W        W 7351   7.885   3.982   2.368
 3833W        W 7352   2.416   1.986   0.068
 3834W        W 7353   7.333   7.018   9.822
 3835W        W 7354   3.616   2.030   9.528
 3836W        W 7355   9.266   1.349   1.281
 3837W        W 7356   5.385   9.215  10.724
 3838W        W 7357   3.593   6.414  10.944
 3839W        W 7358   2.254   3.615   0.355
 3840W        W 7359   1.278   0.339  11.519
 3841W        W 7360   3.800   3.261  11.838
 3842W        W 7361   0.388   9.467   0.822
 3843W        W 7362   2.303   3.127   9.570
 3844W        W 7363   4.329   5.927   3.899
 3845W        W 7364   1.399   5.509   2.660
 3846W        W 7365   0.045   1.265  10.961
 3847W        W 7366   6.682   6.661   1.035
 3848W        W 7367   4.559   8.792   1.859
 3849W        W 7368   5.883   4.027  10.845
 3850W        W 7369   1.766   5.697  11.340
 3851W        W 7370   0.889   1.901   2.150
 3852W        W 7371   0.757   7.104   2.716
 3853W        W 7372   6.565   5.183   3.069
 3854W        W 7373   7.745   1.951   2.993
 3855W        W 7374   2.735   5.217   9.254
 3856W        W 7375   7.472   5.226   0.163
 3857W        W 7376   0.372   3.464  10.228
 3858W        W 7377   1.125   7.477   8.999
 3859W        W 7378   0.229   3.882  10.454
 3860W        W 7379   7.409   1.684  11.577
 3861W        W 7380   8.048   2.863   1.223
 3862W        W 7381   8.945   6.980  11.828
 3863W        W 7382   5.473   3.509   3.575
 3864W        W 7383   3.780   4.393   1.229
 3865W        W 7384   2.882   1.733   9.179
 3866W        W 7385   0.132   2.420   3.479
 3867W        W 7386   9.201   5.097   1.747
 3868W        W 7387   3.494   8.738   1.300
 3869W        W 7388   5.664   2.310   3.973
 3870W        W 7389   8.936   8.777   1.910
 3871W        W 7390   1.608   9.092   2.831
 3872W        W 7391   6.679   1.914   0.644
 3873W        W 7392   0.979   2.106  10.264
 3874W        W 7393   3.862   5.457  10.031
 3875W        W 7394   3.211   1.278  11.309
 3876W        W 7395   2.154   5.100   2.341
 3877W        W 7396   3.086   9.260   0.497
 3878W        W 7397   8.260   1.460  11.543
 3879W        W 7398   1.166   7.995   0.874
 3880W        W 7399   6.705   3.807   2.445
 3881W        W 7400   5.638   8.028   9.912
 3882W        W 7401   9.380   1.389  11.754
 3883W        W 7402   4.631   8.110  10.416
 3884W        W 7403   3.712   6.321  11.945
 3885W        W 7404   8.511   7.967   1.095
 3886W        W 7405   0.397   2.842  11.231
 3887W        W 7406   1.838   8.430   0.408
 3888W        W 7407   1.883   3.466  10.065
 3889W        W 7408   8.440   9.484   0.753
 3890W        W 7409   7.006   0.135   0.837
 3891W        W 7410   7.225   8.531   2.667
 3892W        W 7411   8.795   4.098   1.676
 3893W        W 7412   7.928   4.095   3.156
 3894W        W 7413   9.184   3.519  10.162
 3895W        W 7414   4.501   0.405   2.800
 3896W        W 7415   5.576   1.623   3.218
 3897W        W 7416   4.227   4.375   0.964
 3898W        W 7417   2.676   7.616   9.767
 3899W        W 7418   4.401   0.621   2.331
 3900W        W 7419   3.781   3.674   1.719
 3901W        W 7420   4.071   3.639   9.162
 3902W        W 7421   4.741   9.174  11.500
 3903W        W 7422   5.128   8.036  11.608
 3904W        W 7423   3.531   6.929   3.451
 3905W        W 7424   9.841   7.127  11.516
 3906W        W 7425   5.240   9.713   2.499
 3907W        W 7426   9.872   6.398   9.723
 3908W        W 7427   3.274   1.556   0.137
 3909W        W 7428   2.207   7.483   0.534
 3910W        W 7429   1.332   8.446  10.960
 3911W        W 7430   3.781   3.239   8.459
 3912W        W 7431   8.775   8.526   1.469
 3913W        W 7432   7.473   3.089  10.531
 3914W        W 7433   4.323   3.799  10.627
 3915W        W 7434   6.974   8.327   2.265
 3916W        W 7435   2.995   2.312   8.838
 3917W        W 7436   0.454   8.031   2.457
 3918W        W 7437   6.060   8.939   3.252
 3919W        W 7438   7.648   0.733   1.922
 3920W        W 7439   2.782   3.491   8.841
 3921W        W 7440   4.655   9.426   9.853
 3922W        W 7441   8.995   8.688   1.004
 3923W        W 7442   5.169   8.339  10.546
 3924W        W 7443   1.857   7.083   0.355
 3925W        W 7444   9.938   7.851   1.157
 3926W        W 7445   4.146   9.365   9.964
 3927W        W 7446   3.261   5.111   3.787
 3928W        W 7447   4.220   8.930   1.058
 3929W        W 7448   6.216   6.905   2.607
 3930W        W 7449   9.131   3.136  11.989
 3931W        W 7450   3.473   5.996   2.397
 3932W        W 7451   0.136   2.585  11.780
 3933W        W 7452   0.806   6.206   9.395
 3934W        W 7453   3.324   2.622   3.397
 3935W        W 7454   7.134   1.557  10.256
 3936W        W 7455   7.886   9.658   9.891
 3937W        W 7456   5.625   0.375  11.290
 3938W        W 7457   3.679   5.409   1.762
 3939W        W 7458   7.703   3.382  11.811
 3940W        W 7459   4.052   0.171   2.738
 3941W        W 7460   9.616   2.929   9.683
 3942W        W 7461   3.677   7.631   9.837
 3943W        W 7462   2.933   2.685   2.299
 3944W        W 7463   5.620   4.720  11.614
 3945W        W 7464   4.246   4.138  11.091
 3946W        W 7465   7.593   7.988  11.379
 3947W        W 7466   1.987   1.289  10.476
 3948W        W 7467   3.554   9.084   9.015
 3949W        W 7468   5.055   9.318   1.289
 3950W        W 7469   2.921   0.480   9.869
 3951W        W 7470   8.058   4.597  11.851
 3952W        W 7471   3.007   7.024   8.690
 3953W        W 7472   9.518   4.199  10.793
 3954W        W 7473   5.486   0.294  11.786
 3955W        W 7474   9.389   7.055   3.105
 3956W        W 7475   6.512   1.663  10.633
 3957W        W 7476   2.726   4.700   0.546
 3958W        W 7477   3.505   3.243   1.673
 3959W        W 7478   4.703   9.286   3.507
 3960W        W 7479   4.793   5.208   9.946
 3961W        W 7480   1.983   6.183  10.404
 3962W        W 7481   7.266   2.924   1.582
 3963W        W 7482   2.139   6.601   2.728
 3964W        W 7483   0.525   4.061   3.403
 3965W        W 7484   5.444   6.137   9.932
 3966W        W 7485   4.687   9.097   2.262
 3967W        W 7486   0.063   5.098   9.213
 3968W        W 7487   4.445   3.275   9.218
 3969W        W 7488   4.614   7.520   8.998
 3970W        W 7489   5.948   9.132   1.783
 3971W        W 7490   7.624   3.831   0.079
 3972W        W 7491   9.596   5.591   2.859
 3973W        W 7492   6.979   6.410   1.775
 3974W        W 7493   5.424   6.062   0.006
 3975W        W 7494   4.248   9.855   0.107
 3976W        W 7495   9.061   9.971   3.039
 3977W        W 7496   7.764   4.071   0.636
 3978W        W 7497   4.485   1.487   2.091
 3979W        W 7498   6.154   1.222   0.431
 3980W        W 7499   9.288   7.880   0.519
 3981W        W 7500   9.421   8.640   2.326
 3982W        W 7501   0.644   9.356   1.306
 3983W        W 7502   2.816   6.526   0.390
 3984W        W 7503   8.717   4.213   2.198
 3985W        W 7504   3.727   7.834   1.560
 3986W        W 7505   2.524   9.407   1.888
 3987W        W 7506   2.604   2.847   2.800
 3988W        W 7507   6.130   4.614   3.640
 3989W        W 7508   9.711   2.601   2.320
 3990W        W 7509   7.840   5.108   0.534
 3991W        W 7510   5.229   3.867   1.586
 3992W        W 7511   1.384   0.271  10.243
 3993W        W 7512   8.232   8.421   2.796
 3994W        W 7513   4.917   7.367   2.770
 3995W        W 7514   3.770   2.888   3.460
 3996W        W 7515   9.856   5.117  11.720
 3997W        W 7516   6.007   5.475  10.910
 3998W        W 7517   3.926   2.752   9.955
 3999W        W 7518   0.282   2.581   9.233
 4000W        W 7519   6.387   6.180   3.201
 4001W        W 7520   7.087   7.344   3.002
 4002W        W 7521   1.463   6.919   1.627
 4003W        W 7522   2.352   4.598  11.199
 4004W        W 7523   0.363   2.831   0.180
 4005W        W 7524   3.608   3.096   1.188
 4006W        W 7525   8.426   7.564   0.347
 4007W        W 7526   4.975   4.916   9.151
 4008W        W 7527   4.315   4.520   3.646
 4009W        W 7528   1.465   5.684   3.571
 4010W        W 7529   8.512   2.291   1.988
 4011W        W 7530   4.482   7.403   0.688
 4012W        W 7531   5.529   8.037   0.819
 4013W        W 7532   1.947   4.790   0.904
 4014W        W 7533   7.454   8.088   2.435
 4015W        W 7534   4.818   9.048   9.470
 4016W        W 7535   7.613   5.600  10.710
 4017W        W 7536   9.360   4.197   1.505
 4018W        W 7537   4.134   1.702   8.967
 4019W        W 7538   7.027   2.384   8.697
 4020W        W 7539   8.886   2.172   2.308
 4021W        W 7540   7.007   8.006   1.159
 4022W        W 7541   3.108   9.785   0.292
 4023W        W 7542   8.143   4.569   3.081
 4024W        W 7543   3.167   3.412  10.523
 4025W        W 7544   3.211   7.198  11.026
 4026W        W 7545   7.402   6.239  11.818
 4027W        W 7546   0.886   5.637  11.372
 4028W        W 7547   4.275   2.728  11.514
 4029W        W 7548   8.494   8.730  10.210
 4030W        W 7549   6.880   8.823   2.264
 4031W        W 7550   0.253   7.409   1.846
 4032W        W 7551   5.001   9.043   1.739
 4033W        W 7552   3.605   0.268  10.547
 4034W        W 7553   7.043   5.791   9.387
 4035W        W 7554   2.269   6.865   1.179
 4036W        W 7555   7.166   6.489   2.532
 4037W        W 7556   4.352   1.618   1.242
 4038W        W 7557   4.172   8.735   1.530
 4039W        W 7558   1.859   7.459   9.250
 4040W        W 7559   4.199   5.772   0.523
 4041W        W 7560   7.189   0.605   3.547
 4042W        W 7561   5.779   8.580   9.274
 4043W        W 7562   5.082   9.536  11.405
 4044W        W 7563   6.424   6.944  11.762
 4045W        W 7564   1.796   9.392   1.900
 4046W        W 7565   9.423   2.291   9.232
 4047W        W 7566   2.514   4.894   1.473
 4048W        W 7567   8.520   0.425  10.030
 4049W        W 7568   0.822   9.854   2.711
 4050W        W 7569   8.828   2.661  10.046
 4051W        W 7570   5.975   0.047   1.419
 4052W        W 7571   5.427   3.122  11.036
 4053W        W 7572   8.582   5.000   0.967
 4054W        W 7573   5.701   0.027   0.509
 4055W        W 7574   3.054   2.829   8.708
 4056W        W 7575   7.147   0.014   2.713
 4057W        W 7576   0.217   5.075   0.627
 4058W        W 7577   6.553   1.614   2.368
 4059W        W 7578   1.176   3.779  10.509
 4060W        W 7579   2.282   3.342   9.046
 4061W        W 7580   4.047   5.825   9.108
 4062W        W 7581   2.079   8.761   9.707
 4063W        W 7582   6.603   6.555   4.025
 4064W        W 7583   6.662   9.948  11.936
 4065W        W 7584   0.657   0.445  10.820
 4066W        W 7585   7.125   2.361   2.298
 4067W        W 7586   2.642   7.727  11.751
 4068W        W 7587   6.870   0.417  10.958
 4069W        W 7588   6.270   1.732  11.185
 4070W        W 7589   7.109   4.169   2.997
 4071W        W 7590   1.769   4.396  10.308
 4072W        W 7591   7.957   1.135   0.825
 4073W        W 7592   4.083   5.067   9.319
 4074W        W 7593   5.177   1.864   2.860
 4075W        W 7594   0.794   2.184   0.551
 4076W        W 7595   3.917   0.354   1.217
 4077W        W 7596   7.458   3.933  10.112
 4078W        W 7597   6.449   6.259   0.843
 4079W        W 7598   6.442   8.490  10.002
 4080W        W 7599   5.751   5.570   9.909
 4081W        W 7600   0.927   0.238   3.099
 4082W        W 7601   8.630   1.742   2.678
 4083W        W 7602   2.363   6.109  11.204
 4084W        W 7603   4.241   9.916  11.543
 4085W        W 7604   2.405   8.839   3.260
 4086W        W 7605   6.492   4.631   8.276
 4087W        W 7606   6.787   5.926   1.831
 4088W        W 7607   8.006   4.168   0.167
 4089W        W 7608   7.824   6.722   3.517
 4090W        W 7609   9.247   0.871   1.075
 4091W        W 7610   0.883   0.814   3.164
 4092W        W 7611   7.332   8.399   1.093
 4093W        W 7612   9.565   0.918  11.345
 4094W        W 7613   6.947   8.065  10.758
 4095W        W 7614   7.411   2.766   2.045
 4096W        W 7615   6.406   2.564   1.411
 4097W        W 7616   3.321   1.284   2.625
 4098W        W 7617   6.298   2.489  11.343
 4099W        W 7618   7.105   0.542   2.685
 4100W        W 7619   4.210   4.523   9.072
 4101W        W 7620   8.803   0.002  11.917
 4102W        W 7621   3.221   1.763  10.423
 4103W        W 7622   3.694   8.480  10.985
 4104W        W 7623   2.970   5.922   1.871
 4105W        W 7624   3.291   5.009   1.647
 4106W        W 7625   7.519   0.332   3.831
 4107W        W 7626   2.565   3.975  10.217
 4108W        W 7627   6.139   9.701   0.811
 4109W        W 7628   4.110   1.309   3.007
 4110W        W 7629   3.670   3.838   2.975
 4111W        W 7630   9.781   2.959   3.505
 4112W        W 7631   5.395   0.421   9.662
 4113W        W 7632   9.570   5.771   1.614
 4114W        W 7633   7.613   7.512   0.768
 4115W        W 7634   6.746   7.611   2.747
 4116W        W 7635   9.307   6.697   1.611
 4117W        W 7636   1.348   1.208   1.513
 4118W        W 7637   2.346   4.073   8.550
 4119W        W 7638   4.158   0.839   9.516
 4120W        W 7639   3.088   0.269   0.465
 4121W        W 7640   4.451   1.289   8.988
 4122W        W 7641   9.389   6.180   9.696
 4123W        W 7642   8.970   2.310   1.050
 4124W        W 7643   1.282   3.435   0.054
 4125W        W 7644   0.727   3.722   0.222
 4126W        W 7645   4.563   3.352  10.748
 4127W        W 7646   7.239   8.433  11.411
 4128W        W 7647   3.538   3.803   3.961
 4129W        W 7648   6.150   5.741  11.687
 4130W        W 7649   5.402   1.207   0.046
 4131W        W 7650   6.713   4.435   9.612
 4132W        W 7651   0.953   6.958   0.878
 4133W        W 7652   3.694   8.444   3.373
 4134W        W 7653   7.164   3.472   1.769
 4135W        W 7654   6.077   6.718  11.468
 4136W        W 7655   5.131   2.793   3.233
 4137W        W 7656   6.224   7.012  10.573
 4138W        W 7657   8.730   3.953   8.958
 4139W        W 7658   0.682   8.914   2.843
 4140W        W 7659   6.201   4.156   3.399
 4141W        W 7660   5.192   3.679   9.170
 4142W        W 7661   1.146   1.481   0.631
 4143W        W 7662   6.222   1.960   2.636
 4144W        W 7663   8.893   2.908   9.147
 4145W        W 7664   2.836   4.723   0.038
 4146W        W 7665   6.002   4.801   9.912
 4147W        W 7666   1.400   0.388   3.190
 4148W        W 7667   6.032   6.621   1.764
 4149W        W 7668   5.383   6.543  10.267
 4150W        W 7669   8.285   1.274   9.586
 4151W        W 7670   5.640   5.450   1.058
 4152W        W 7671   5.285   6.576   8.226
 4153W        W 7672   7.666   7.315   9.512
 4154W        W 7673   1.635   8.881   0.223
 4155W        W 7674   7.393   6.347  10.802
 4156W        W 7675   8.116   8.407  11.902
 4157W        W 7676   0.721   0.782   2.240
 4158W        W 7677   5.965   6.917   2.171
 4159W        W 7678   8.526   8.937   1.660
 4160W        W 7679   2.170   0.374   2.762
 4161W        W 7680   1.318   7.939   3.630
 4162W        W 7681   5.553   6.607   8.663
 4163W        W 7682   9.335   7.403  10.365
 4164W        W 7683   0.131   6.011  10.912
 4165W        W 7684   2.630   1.617   3.241
 4166W        W 7685   2.867   4.776   2.470
 4167W        W 7686   4.905   5.213   3.708
 4168W        W 7687   4.816   5.951   9.822
 4169W        W 7688   3.194   0.828  10.376
 4170W        W 7689   0.386   3.336   0.221
 4171W        W 7690   9.856   6.997  10.893
 4172W        W 7691   5.315   4.911   2.249
 4173W        W 7692   4.676   1.825  11.345
 4174W        W 7693   5.864   1.310   9.451
 4175W        W 7694   6.378   0.285  10.776
 4176W        W 7695   2.857   1.989   2.937
 4177W        W 7696   7.007   1.032   2.630
 4178W        W 7697   3.843   3.678  10.829
 4179W        W 7698   2.179   8.091   8.617
 4180W        W 7699   5.934   8.264   2.237
 4181W        W 7700   6.968   9.252   8.351
 4182W        W 7701   3.316   6.711   2.159
 4183W        W 7702   9.807   5.605  10.833
 4184W        W 7703   2.863   3.821  11.627
 4185W        W 7704   8.833   1.748  10.421
 4186W        W 7705   9.343   2.609  10.022
 4187W        W 7706   3.737   4.501   9.875
 4188W        W 7707   2.652   5.129   0.273
 4189W        W 7708   6.359   9.649   9.527
 4190W        W 7709   4.532   8.718  11.495
 4191W        W 7710   8.551   8.464   0.843
 4192W        W 7711   5.973   0.438  11.663
 4193W        W 7712   9.716   3.673  10.114
 4194W        W 7713   6.089   1.573   0.846
 4195W        W 7714   9.003   7.854   8.693
 4196W        W 7715   2.287   9.455  11.367
 4197W        W 7716   0.395   4.575   2.662
 4198W        W 7717   0.729   1.965   1.598
 4199W        W 7718   5.903   6.926  11.020
 4200W        W 7719   6.992   2.010  10.033
 4201W        W 7720   8.360   1.486   1.522
 4202W        W 7721   2.091   6.718   9.560
 4203W        W 7722   1.209   0.768   9.056
 4204W        W 7723   2.257   1.786   9.234
 4205W        W 7724   2.527   7.397   2.891
 4206W        W 7725   2.299   6.722   0.292
 4207W        W 7726   0.122   0.472   9.599
 4208W        W 7727   3.632   1.507   2.987
 4209W        W 7728   8.879   9.718   1.152
 4210W        W 7729   4.442   5.943  11.837
 4211W        W 7730   8.799   5.455   2.541
 4212W        W 7731   1.476   2.634   9.834
 4213W        W 7732   9.657   0.582   1.644
 4214W        W 7733   7.926   3.471   3.838
 4215W        W 7734   6.643   8.040   2.007
 4216W        W 7735   0.447   0.202   2.921
 4217W        W 7736   5.579   2.181   9.210
 4218W        W 7737   1.563   3.704   2.363
 4219W        W 7738   5.249   2.389   8.826
 4220W        W 7739   6.472   7.890  10.495
 4221W        W 7740   7.415   7.514  11.220
 4222W        W 7741   3.534   7.063   8.574
 4223W        W 7742   6.751   0.795  11.914
 4224W        W 7743   5.277   5.670  11.631
 4225W        W 7744   3.368   4.125   0.749
 4226W        W 7745   4.279   8.557  10.216
 4227W        W 7746   8.964   0.244  10.525
 4228W        W 7747   4.350   5.418   3.794
 4229W        W 7748   5.972   6.290   9.487
 4230W        W 7749   7.614   5.917   9.859
 4231W        W 7750   1.689   4.696   3.741
 4232W        W 7751   8.216   9.865   1.962
 4233W        W 7752   7.174   4.367   1.315
 4234W        W 7753   5.692   3.672   3.998
 4235W        W 7754   9.934   5.703   2.471
 4236W        W 7755   5.568   3.071  10.502
 4237W        W 7756   6.415   7.668  11.472
 4238W        W 7757   1.034   3.782   2.505
 4239W        W 7758   8.233   8.288  10.135
 4240W        W 7759   0.764   3.354   2.369
 4241W        W 7760   3.869   9.294   8.642
 4242W        W 7761   0.264   2.519   1.415
 4243W        W 7762   8.660   9.305   9.344
 4244W        W 7763   3.123   4.144   1.249
 4245W        W 7764   1.167   1.192   2.941
 4246W        W 7765   9.079   0.981  11.873
 4247W        W 7766   3.200   1.737   3.232
 4248W        W 7767   5.689   0.961   0.389
 4249W        W 7768   8.035   3.551  10.952
 4250W        W 7769   0.795   6.155   8.874
 4251W        W 7770   2.795   7.037   1.628
 4252W        W 7771   4.357   4.765   2.304
 4253W        W 7772   5.951   0.330   0.166
 4254W        W 7773   2.678   5.153   9.757
 4255W        W 7774   0.772   2.391   2.030
 4256W        W 7775   6.216   3.168   9.627
 4257W        W 7776   1.229   1.325  10.916
 4258W        W 7777   3.066   9.552   9.490
 4259W        W 7778   8.901   4.436   3.516
 4260W        W 7779   4.682   7.152  11.378
 4261W        W 7780   8.963   7.748   0.925
 4262W        W 7781   1.260   2.246   9.592
 4263W        W 7782   3.152   3.267  10.036
 4264W        W 7783   1.112   5.791  11.902
 4265W        W 7784   4.169   8.434   0.153
 4266W        W 7785   0.033   9.103   9.128
 4267W        W 7786   6.217   1.668   9.382
 4268W        W 7787   4.703   1.736   3.244
 4269W        W 7788   7.633   0.277  11.059
 4270W        W 7789   0.932   4.330  11.216
 4271W        W 7790   5.009   3.775   1.144
 4272W        W 7791   6.708   6.048   8.461
 4273W        W 7792   4.682   3.044   2.809
 4274W        W 7793   7.829   1.493   2.284
 4275W        W 7794   6.493   4.195   1.154
 4276W        W 7795   2.365   6.641  10.454
 4277W        W 7796   2.144   8.304   0.872
 4278W        W 7797   8.110   8.371   2.269
 4279W        W 7798   1.557   3.157   3.101
 4280W        W 7799   0.892   8.395   0.378
 4281W        W 7800   5.407   1.746   1.456
 4282W        W 7801   9.000   6.100  10.068
 4283W        W 7802   2.966   6.240  11.748
 4284W        W 7803   2.860   9.738  11.818
 4285W        W 7804   4.206   6.705   9.159
 4286W        W 7805   0.905   2.072   9.261
 4287W        W 7806   9.346   1.011   2.383
 4288W        W 7807   8.072   0.010   1.446
 4289W        W 7808   8.386   2.748   0.006
 4290W        W 7809   6.087   8.023   2.672
 4291W        W 7810   4.697   6.652   9.060
 4292W        W 7811   5.978   0.805   9.429
 4293W        W 7812   7.360   9.394  10.280
 4294W        W 7813   1.052   4.256   2.156
 4295W        W 7814   7.311   4.381   2.580
 4296W        W 7815   9.212   9.288   3.036
 4297W        W 7816   1.669   5.597   3.095
 4298W        W 7817   6.906   9.984  11.449
 4299W        W 7818   2.779   9.104  10.120
 4300W        W 7819   5.061   5.968   2.949
 4301W        W 7820   3.767   3.771   3.486
 4302W        W 7821   1.889   0.191   2.138
 4303W        W 7822   5.607   3.101   2.101
 4304W        W 7823   7.820   0.280   9.526
 4305W        W 7824   9.276   1.624   8.972
 4306W        W 7825   1.812   5.216  10.314
 4307W        W 7826   5.308   7.356   8.991
 4308W        W 7827   9.790   7.511   1.528
 4309W        W 7828   3.948   7.399   2.881
 4310W        W 7829   5.474   4.741   9.973
 4311W        W 7830   3.957   0.852   2.227
 4312W        W 7831   7.045   3.995   8.474
 4313W        W 7832   9.975   5.951   9.955
 4314W        W 7833   5.003   9.118   8.653
 4315W        W 7834   3.256   1.667   9.545
 4316W        W 7835   6.789   2.373   0.436
 4317W        W 7836   9.618   9.619   3.100
 4318W        W 7837   5.607   0.868   1.270
 4319W        W 7838   3.463   6.553   1.283
 4320W        W 7839   4.677   0.403   0.804
 4321W        W 7840   1.873   0.535   1.755
 4322W        W 7841   0.608   5.565   8.481
 4323W        W 7842   5.936   7.646  11.624
 4324W        W 7843   1.953   6.917   1.776
 4325W        W 7844   3.697   0.041   3.184
 4326W        W 7845   8.488   6.000  10.227
 4327W        W 7846   9.030   0.294  10.007
 4328W        W 7847   1.723   2.759   0.607
 4329W        W 7848   7.040   7.482   0.276
 4330W        W 7849   4.883   3.935   8.189
 4331W        W 7850   1.405   7.972   2.251
 4332W        W 7851   5.132   6.431   1.698
 4333W        W 7852   9.233   1.780   1.538
 4334W        W 7853   8.464   5.744   9.351
 4335W        W 7854   8.515   4.120  11.322
 4336W        W 7855   2.593   5.554  10.066
 4337W        W 7856   6.535   0.789  11.068
 4338W        W 7857   2.268   9.853   9.076
 4339W        W 7858   6.610   4.225  10.595
 4340W        W 7859   4.614   3.902   2.415
 4341W        W 7860   2.504   1.478   0.145
 4342W        W 7861   0.114   9.528   2.239
 4343W        W 7862   0.558   5.424   0.795
 4344W        W 7863   2.828   0.484   3.494
 4345W        W 7864   8.404   1.568   0.055
 4346W        W 7865   0.327   3.251  10.759
 4347W        W 7866   2.055   4.308   3.688
 4348W        W 7867   9.419   8.859  11.636
 4349W        W 7868   5.468   2.533  10.409
 4350W        W 7869   7.951   0.410   0.311
 4351W        W 7870   2.465   9.517   3.147
 4352W        W 7871   3.649   2.988   9.313
 4353W        W 7872   8.126   9.587  10.717
 4354W        W 7873   9.919   5.737  11.311
 4355W        W 7874   6.904   5.752  11.881
 4356W        W 7875   7.806   4.733  10.327
 4357W        W 7876   1.139   0.075   3.558
 4358W        W 7877   6.624   3.519  11.921
 4359W        W 7878   6.945   5.487  10.344
 4360W        W 7879   8.092   4.723   8.713
 4361W        W 7880   9.914   8.936  11.808
 4362W        W 7881   4.351   1.030   1.932
 4363W        W 7882   3.303   9.722   1.739
 4364W        W 7883   3.303   8.817  10.188
 4365W        W 7884   6.085   3.289   1.905
 4366W        W 7885   7.658   7.328   8.854
 4367W        W 7886   4.306   2.585   0.934
 4368W        W 7887   9.428   3.343   3.538
 4369W        W 7888   7.702   9.542   9.108
 4370W        W 7889   2.080   4.033   3.258
 4371W        W 7890   4.147   4.744   1.303
 4372W        W 7891   6.012   5.709   8.592
 4373W        W 7892   0.737   4.866   3.418
 4374W        W 7893   6.988   4.497   8.372
 4375W        W 7894   0.423   1.122   1.514
 4376W        W 7895   9.745   3.765  10.614
 4377W        W 7896   7.429   7.070   1.288
 4378W        W 7897   3.329   4.687  11.133
 4379W        W 7898   5.428   0.342   1.217
 4380W        W 7899   2.436   4.699  10.712
 4381W        W 7900   4.643   6.671   0.218
 4382W        W 7901   9.502   6.354   2.189
 4383W        W 7902   8.102   0.339  11.332
 4384W        W 7903   7.844   7.977  11.895
 4385W        W 7904   6.604   2.502  11.763
 4386W        W 7905   9.317   7.903   3.310
 4387W        W 7906   9.324   4.706   9.467
 4388W        W 7907   4.718   4.839   0.462
 4389W        W 7908   2.918   4.938   4.181
 4390W        W 7909   2.411   3.063   3.212
 4391W        W 7910   4.412   6.538   1.035
 4392W        W 7911   4.309   1.498   3.471
 4393W        W 7912   7.177   3.747   2.228
 4394W        W 7913   0.026   5.057  10.186
 4395W        W 7914   8.520   7.599   9.344
 4396W        W 7915   5.081   0.792   9.488
 4397W        W 7916   3.626   4.224  11.779
 4398W        W 7917   9.361   4.262   3.334
 4399W        W 7918   2.734   7.215  11.765
 4400W        W 7919   3.240   3.755   8.836
 4401W        W 7920   2.914   3.884   2.244
 4402W        W 7921   1.730   1.259  10.956
 4403W        W 7922   3.080   0.543   0.885
 4404W        W 7923   8.471   1.865  10.784
 4405W        W 7924   0.391   4.534  11.898
 4406W        W 7925   3.050   6.264   1.457
 4407W        W 7926   6.718   0.793   9.117
 4408W        W 7927   8.478   6.202   9.742
 4409W        W 7928   6.123   7.139  10.060
 4410W        W 7929   5.666   5.811   2.284
 4411W        W 7930   5.293   2.984   0.974
 4412W        W 7931   7.872   8.960  11.317
 4413W        W 7932   0.362   8.395   2.104
 4414W        W 7933   0.982   5.480   0.405
 4415W        W 7934   7.561   0.718   9.437
 4416W        W 7935   8.205   3.193   3.091
 4417W        W 7936   0.902   7.005   2.241
 4418W        W 7937   0.332   8.162  11.276
 4419W        W 7938   7.479   4.018   3.386
 4420W        W 7939   8.051   6.885  10.483
 4421W        W 7940   9.785   0.737   1.010
 4422W        W 7941   8.569   6.614   1.879
 4423W        W 7942   8.601   9.740  10.617
 4424W        W 7943   0.373   9.217  11.838
 4425W        W 7944   6.589   6.101   2.723
 4426W        W 7945   3.212   3.256   9.050
 4427W        W 7946   9.050   4.523   2.438
 4428W        W 7947   3.958   4.274   1.727
 4429W        W 7948   2.594   7.343   8.495
 4430W        W 7949   6.394   2.461  10.051
 4431W        W 7950   9.355   0.555   2.064
 4432W        W 7951   4.641   0.704  11.712
 4433W        W 7952   0.842   6.147  11.328
 4434W        W 7953   1.377   3.512  10.108
 4435W        W 7954   6.390   1.332   9.754
 4436W        W 7955   6.469   5.243  10.963
 4437W        W 7956   2.988   7.982   8.531
 4438W        W 7957   7.571   9.366  11.259
 4439W        W 7958   9.383   6.537  11.836
 4440W        W 7959   8.222   6.405   2.180
 4441W        W 7960   7.022   8.347   3.150
 4442W        W 7961   8.250   9.496   3.219
 4443W        W 7962   8.052   6.986   9.380
 4444W        W 7963   4.648   9.973   1.591
 4445W        W 7964   9.793   0.318  10.997
 4446W        W 7965   5.685   6.459   3.657
 4447W        W 7966   5.439   0.546   3.486
 4448W        W 7967   4.560   7.167   0.234
 4449W        W 7968   7.756   1.165   9.660
 4450W        W 7969   4.891   1.286   1.833
 4451W        W 7970   5.444   1.510   8.747
 4452W        W 7971   4.032   5.169   0.995
 4453W        W 7972   9.256   8.785   2.814
 4454W        W 7973   8.088   9.701   0.100
 4455W        W 7974   6.774   7.545  10.722
 4456W        W 7975   2.405   9.471   1.217
 4457W        W 7976   7.437   0.364   0.588
 4458W        W 7977   5.968   2.796   3.213
 4459W        W 7978   8.634   6.572   2.427
 4460W        W 7979   3.954   6.797  11.591
 4461W        W 7980   6.587   0.868   0.393
 4462W        W 7981   3.102   5.147  10.393
 4463W        W 7982   7.420   9.194   3.332
 4464W        W 7983   4.533   5.848  10.986
 4465W        W 7984   4.196   8.186   2.350
 4466W        W 7985   3.064   9.777   3.580
 4467W        W 7986   4.069   7.139  11.967
 4468W        W 7987   0.873   0.645   9.503
 4469W        W 7988   2.556   9.099   2.850
 4470W        W 7989   4.484   7.402  11.798
 4471W        W 7990   7.368   2.815  10.081
 4472W        W 7991   5.202   2.759   2.156
 4473W        W 7992   2.757   9.983   9.975
 4474W        W 7993   8.511   9.774   1.546
 4475W        W 7994   0.973   9.738   3.219
 4476W        W 7995   2.363   9.633  11.846
 4477W        W 7996   1.780   9.698   9.720
 4478W        W 7997   4.547   9.308   1.822
 4479W        W 7998   5.664   4.849  10.863
 4480W        W 7999   2.413   1.200  11.719
 4481W        W 8000   4.746   2.845   2.345
 4482W        W 8001   8.695   6.093   1.956
 4483W        W 8002   0.890   5.168   0.015
 4484W        W 8003   9.031   8.592   9.005
 4485W        W 8004   4.449   2.429   2.302
 4486W        W 8005   2.388   6.931   8.739
 4487W        W 8006   3.954   7.108   8.978
 4488W        W 8007   1.766   0.374   0.339
 4489W        W 8008   3.591   9.854   9.441
 4490W        W 8009   5.130   3.639   2.248
 4491W        W 8010   9.367   4.693   1.434
 4492W        W 8011   6.998   7.781   9.795
 4493W        W 8012   3.675   6.943   2.964
 4494W        W 8013   5.753   3.626   0.752
 4495W        W 8014   4.022   6.533   8.285
 4496W        W 8015   6.067   8.639  11.895
 4497W        W 8016   0.198   9.676   1.257
 4498W        W 8017   7.159   7.324   8.701
 4499W        W 8018   0.481   8.396   0.063
 4500W        W 8019   8.957   3.067   2.174
 4501W        W 8020   2.184   7.839   9.672
 4502W        W 8021   9.158   1.785   2.063
 4503W        W 8022   9.318   4.979   2.341
 4504W        W 8023   9.862   5.612  10.333
 4505W        W 8024   2.417   0.732   3.005
 4506W        W 8025   5.513   6.645  10.791
 4507W        W 8026   8.012   7.589   8.615
 4508W        W 8027   1.816   2.701  11.192
 4509W        W 8028   6.271   3.650   2.229
 4510W        W 8029   1.615   7.946   0.605
 4511W        W 8030   6.094   4.749   2.581
 4512W        W 8031   5.948   2.363   1.356
 4513W        W 8032   2.154   1.988   0.855
 4514W        W 8033   6.164   5.339   9.033
 4515W        W 8034   6.832   6.105   9.729
 4516W        W 8035   4.741   2.632  10.938
 4517W        W 8036   8.423   3.003   0.878
 4518W        W 8037   3.023   8.068   9.047
 4519W        W 8038   9.383   7.195   9.754
 4520W        W 8039   8.587   4.573  10.588
 4521W        W 8040   6.015   6.538  10.642
 4522W        W 8041   1.747   7.985   9.965
 4523W        W 8042   4.617   4.068   1.078
 4524W        W 8043   5.943   1.548   9.911
 4525W        W 8044   8.956   2.306   0.019
 4526W        W 8045   9.374   4.865   9.990
 4527W        W 8046   2.540   6.561   0.829
 4528W        W 8047   3.070   0.097   1.485
 4529W        W 8048   4.176   0.575   1.830
 4530W        W 8049   9.156   9.766   0.222
 4531W        W 8050   2.331   4.045   9.569
 4532W        W 8051   6.629   2.227   9.626
 4533W        W 8052   8.456   2.351   0.932
 4534W        W 8053   0.265   2.336  10.980
 4535W        W 8054   0.515   8.864   1.419
 4536W        W 8055   6.709   8.468   2.749
 4537W        W 8056   8.481   3.336   9.514
 4538W        W 8057   6.705   2.848  11.421
 4539W        W 8058   2.932   7.610   9.317
 4540W        W 8059   9.720   9.022   2.495
 4541W        W 8060   4.367   7.173   9.319
 4542W        W 8061   8.059   9.774   9.416
 4543W        W 8062   3.743   7.251   9.429
 4544W        W 8063   6.449   5.411   1.091
 4545W        W 8064   5.900   3.945   0.270
 4546W        W 8065   9.521   0.873   0.123
 4547W        W 8066   8.452   8.836   2.146
 4548W        W 8067   4.166   9.263   1.475
 4549W        W 8068   9.681   8.169   0.347
 4550W        W 8069   2.140   0.858   2.587
 4551W        W 8070   9.996   6.861   1.018
 4552W        W 8071   6.077   0.480   2.005
 4553W        W 8072   6.248   9.434   8.648
 4554W        W 8073   0.002   4.182   9.262
 4555W        W 8074   0.424   6.169   0.215
 4556W        W 8075   6.129   7.512   3.094
 4557W        W 8076   0.540   1.327   8.655
 4558W        W 8077   3.110   5.622  10.196
 4559W        W 8078   5.543   2.164   3.107
 4560W        W 8079   2.048   9.123   1.074
 4561W        W 8080   0.325   8.276  10.771
 4562W        W 8081   3.368   8.064   1.880
 4563W        W 8082   0.788   0.547   2.707
 4564W        W 8083   4.281   6.498   0.544
 4565W        W 8084   0.691   1.299   3.174
 4566W        W 8085   0.574   0.668   1.670
 4567W        W 8086   7.359   2.746   3.000
 4568W        W 8087   3.399   1.502   3.648
 4569W        W 8088   7.954   2.826  11.664
 4570W        W 8089   7.363   4.410  11.391
 4571W        W 8090   4.240   0.423  11.426
 4572W        W 8091   0.072   2.795   2.656
 4573W        W 8092   3.401   9.939   0.699
 4574W        W 8093   0.016   7.602   0.074
 4575W        W 8094   5.361   6.174   2.102
 4576W        W 8095   3.079   7.222   3.478
 4577W        W 8096   7.148   5.748   1.038
 4578W        W 8097   3.327   5.961  11.058
 4579W        W 8098   4.599   0.300   1.976
 4580W        W 8099   7.598   6.606   0.109
 4581W        W 8100   6.826   0.634   1.803
 4582W        W 8101   2.684   4.931   2.011
 4583W        W 8102   8.266   4.089   9.266
 4584W        W 8103   3.786   0.620   9.826
 4585W        W 8104   3.400   5.111   2.878
 4586W        W 8105   6.984   4.323   8.874
 4587W        W 8106   5.754   6.927   9.329
 4588W        W 8107   5.015   0.388   9.136
 4589W        W 8108   9.962   5.457   1.455
 4590W        W 8109   4.684   8.032   2.317
 4591W        W 8110   6.459   8.914   0.694
 4592W        W 8111   1.983   9.517   8.477
 4593W        W 8112   9.685   0.430   8.345
 4594W        W 8113   3.225   2.882  10.711
 4595W        W 8114   4.459   3.056   1.200
 4596W        W 8115   2.758   4.546   8.980
 4597W        W 8116   2.690   4.218  11.368
 4598W        W 8117   8.858   0.528   0.024
 4599W        W 8118   8.108   4.806   1.136
 4600W        W 8119   2.009   8.866  10.229
 4601W        W 8120   9.768   9.836   1.505
 4602W        W 8121   0.381   6.120   2.185
 4603W        W 8122   0.532   2.104  10.581
 4604W        W 8123   4.561   4.345   3.232
 4605W        W 8124   8.383   7.063   1.524
 4606W        W 8125   4.065   2.297   1.322
 4607W        W 8126   7.543   0.176   3.358
 4608W        W 8127   6.015   2.045   0.026
 4609W        W 8128   3.365   8.681   3.041
 4610W        W 8129   3.697   9.888  10.912
 4611W        W 8130   3.614   6.884  10.694
 4612W        W 8131   7.079   6.530  11.437
 4613W        W 8132   9.060   5.171   0.693
 4614W        W 8133   5.239   7.585  11.171
 4615W        W 8134   1.404   4.505  11.274
 4616W        W 8135   3.716   6.382  11.432
 4617W        W 8136   3.832   5.909   3.767
 4618W        W 8137   6.304   0.891   3.605
 4619W        W 8138   5.698   2.718   0.745
 4620W        W 8139   1.992   1.270  11.421
 4621W        W 8140   3.303   8.534   0.005
 4622W        W 8141   9.508   4.236   9.423
 4623W        W 8142   0.057   5.689   1.909
 4624W        W 8143   2.478   3.364  11.076
 4625W        W 8144   6.888   5.122  10.714
 4626W        W 8145   2.320   7.195   1.557
 4627W        W 8146   4.603   9.151   8.989
 4628W        W 8147   0.437   7.593   9.682
 4629W        W 8148   9.561   6.372  10.144
 4630W        W 8149   6.746   0.261   9.001
 4631W        W 8150   1.756   4.706   3.219
 4632W        W 8151   0.139   6.585   3.526
 4633W        W 8152   5.927   2.460   0.299
 4634W        W 8153   9.567   8.008   1.489
 4635W        W 8154   3.743   2.819  10.767
 4636W        W 8155   4.265   6.167  10.661
 4637W        W 8156   6.875   3.821   8.936
 4638W        W 8157   0.941   7.956   2.603
 4639W        W 8158   1.889   4.126   2.441
 4640W        W 8159   5.980   1.173  11.784
 4641W        W 8160   6.440   3.509  10.048
 4642W        W 8161   3.339   6.475   3.644
 4643W        W 8162   7.573   4.144   1.104
 4644W        W 8163   0.755   6.606   2.647
 4645W        W 8164   8.589   8.407   2.428
 4646W        W 8165   5.774   7.460  11.173
 4647W        W 8166   5.660   9.527   0.652
 4648W        W 8167   0.028   4.880   0.166
 4649W        W 8168   7.924   6.898   0.351
 4650W        W 8169   1.075   1.293   8.665
 4651W        W 8170   3.266   1.701  11.617
 4652W        W 8171   6.521   8.832  10.962
 4653W        W 8172   8.542   4.472   0.934
 4654W        W 8173   3.258   3.321   8.539
 4655W        W 8174   2.088   6.607   2.191
 4656W        W 8175   8.105   2.360  11.441
 4657W        W 8176   5.508   6.704   1.517
 4658W        W 8177   3.196   2.308  10.072
 4659W        W 8178   0.199   0.630   2.004
 4660W        W 8179   5.197   8.094  11.068
 4661W        W 8180   1.834   6.069   9.911
 4662W        W 8181   7.830   9.892  10.392
 4663W        W 8182   6.507   4.866   9.849
 4664W        W 8183   0.864   6.456   0.459
 4665W        W 8184   2.045   7.630   1.497
 4666W        W 8185   4.279   6.285   3.505
 4667W        W 8186   5.859   6.927   3.549
 4668W        W 8187   9.668   6.660  11.288
 4669W        W 8188   6.524   3.083   9.231
 4670W        W 8189   2.057   3.706   2.187
 4671W        W 8190   7.046   0.297   2.264
 4672W        W 8191   4.764   9.887  11.582
 4673W        W 8192   4.469   6.876  11.778
 4674W        W 8193   4.783   7.429  10.936
 4675W        W 8194   0.404   1.961   2.325
 4676W        W 8195   7.451   4.248   2.114
 4677W        W 8196   0.402   6.402  10.619
 4678W        W 8197   9.006   8.155  11.270
 4679W        W 8198   3.874   9.034  10.981
 4680W        W 8199   1.839   4.036   9.314
 4681W        W 8200   0.758   3.995   0.659
 4682W        W 8201   9.236   8.910  10.632
 4683W        W 8202   0.205   7.604   2.336
 4684W        W 8203   0.713   2.948   2.687
 4685W        W 8204   7.587   9.579   3.674
 4686W        W 8205   4.776   2.739   1.834
 4687W        W 8206   8.220   4.932  10.554
 4688W        W 8207   0.339   2.188   1.832
 4689W        W 8208   3.075   6.021   9.013
 4690W        W 8209   3.995   3.757   0.369
 4691W        W 8210   4.065   7.045   8.460
 4692W        W 8211   5.104   9.445   9.601
 4693W        W 8212   0.658   2.589  11.861
 4694W        W 8213   6.072   7.806   0.121
 4695W        W 8214   4.181   4.026   8.857
 4696W        W 8215   0.514   2.126   3.330
 4697W        W 8216   3.350   9.809  11.797
 4698W        W 8217   2.890   5.164   2.825
 4699W        W 8218   3.063   1.260   9.327
 4700W        W 8219   8.904   7.163  10.964
 4701W        W 8220   8.418   0.280   1.764
 4702W        W 8221   4.625   2.466   9.575
 4703W        W 8222   9.369   9.075   2.051
 4704W        W 8223   5.536   2.853   9.997
 4705W        W 8224   9.588   8.206   2.531
 4706W        W 8225   8.963   9.298   1.868
 4707W        W 8226   8.784   1.157   1.394
 4708W        W 8227   9.030   3.107   3.324
 4709W        W 8228   7.420   6.631   2.958
 4710W        W 8229   4.537   9.574  11.249
 4711W        W 8230   9.754   0.417   0.019
 4712W        W 8231   4.724   4.398   2.311
 4713W        W 8232   6.851   3.620   0.388
 4714W        W 8233   4.257   4.773   3.149
 4715W        W 8234   4.712   5.683   1.067
 4716W        W 8235   7.624   7.995   0.938
 4717W        W 8236   6.960   8.981   2.738
 4718W        W 8237   5.852   0.288  10.827
 4719W        W 8238   1.762   0.106   0.791
 4720W        W 8239   3.383   1.484   0.673
 4721W        W 8240   4.011   7.617  11.817
 4722W        W 8241   3.905   8.972   9.370
 4723W        W 8242   2.633   1.611  10.171
 4724W        W 8243   6.222   8.618   9.554
 4725W        W 8244   0.983   3.681  11.024
 4726W        W 8245   1.882   7.461  10.778
 4727W        W 8246   7.945   8.181   3.143
 4728W        W 8247   7.888   1.017   8.895
 4729W        W 8248   8.487   5.892   8.840
 4730W        W 8249   3.379   1.193  11.786
 4731W        W 8250   6.981   1.092   3.517
 4732W        W 8251   6.711   0.714   2.323
 4733W        W 8252   1.003   2.198   3.556
 4734W        W 8253   4.093   4.795  10.581
 4735W        W 8254   8.042   4.918   1.640
 4736W        W 8255   5.486   0.672   9.209
 4737W        W 8256   7.925   0.280   2.027
 4738W        W 8257   2.103   5.014   8.686
 4739W        W 8258   0.735   8.877  11.973
 4740W        W 8259   1.010   4.994  11.106
 4741W        W 8260   3.960   9.365   0.580
 4742W        W 8261   7.124   6.038   0.235
 4743W        W 8262   4.768   9.858   0.104
 4744W        W 8263   3.233   9.921  11.316
 4745W        W 8264   3.325   4.578  11.989
 4746W        W 8265   5.059   2.336   3.043
 4747W        W 8266   6.162   1.922   2.132
 4748W        W 8267   9.816   4.047   3.150
 4749W        W 8268   1.383   7.436   3.416
 4750W        W 8269   9.883   2.053   0.502
 4751W        W 8270   8.099   8.206   0.886
 4752W        W 8271   9.963   3.126  11.430
 4753W        W 8272   4.979   3.189   8.584
 4754W        W 8273   8.287   0.027   3.434
 4755W        W 8274   5.577   3.779   8.879
 4756W        W 8275   0.831   1.723   0.292
 4757W        W 8276   9.456   0.877   0.622
 4758W        W 8277   3.752   6.542   0.431
 4759W        W 8278   4.926   5.626  10.203
 4760W        W 8279   8.441   5.981  11.246
 4761W        W 8280   4.983   4.788  10.184
 4762W        W 8281   9.892   0.285  10.013
 4763W        W 8282   1.303   5.508   1.316
 4764W        W 8283   8.805   7.308   1.264
 4765W        W 8284   1.874   9.347   0.101
 4766W        W 8285   4.853   0.003   2.774
 4767W        W 8286   6.407   2.643   0.210
 4768W        W 8287   0.858   9.070   1.714
 4769W        W 8288   6.308   2.212   0.514
 4770W        W 8289   2.024   9.911   1.224
 4771W        W 8290   9.927   2.155  11.996
 4772W        W 8291   6.673   0.183   2.625
 4773W        W 8292   7.609   5.157   1.544
 4774W        W 8293   1.650   1.173   0.736
 4775W        W 8294   0.966   9.262  11.623
 4776W        W 8295   9.483   5.855  10.078
 4777W        W 8296   1.728   0.660   0.845
 4778W        W 8297   7.067   8.180   3.664
 4779W        W 8298   0.776   3.694   9.330
 4780W        W 8299   5.026   3.443  10.043
 4781W        W 8300   8.520   7.476   3.341
 4782W        W 8301   8.714   0.202   1.362
 4783W        W 8302   6.018   2.348   1.848
 4784W        W 8303   7.178   9.382   2.321
 4785W        W 8304   4.130   6.699   2.323
 4786W        W 8305   0.260   0.941   2.464
 4787W        W 8306   3.133   2.339   0.332
 4788W        W 8307   0.634   3.770   9.820
 4789W        W 8308   5.989   4.602   0.837
 4790W        W 8309   6.798   9.449   1.364
 4791W        W 8310   3.441   7.372   3.115
 4792W        W 8311   8.520   4.845  11.877
 4793W        W 8312   4.103   6.486  10.080
 4794W        W 8313   2.017   2.821   3.442
 4795W        W 8314   0.826   0.499  10.325
 4796W        W 8315   2.314   1.924   2.068
 4797W        W 8316   7.548   3.358  10.067
 4798W        W 8317   8.502   4.116  10.796
 4799W        W 8318   9.899   7.225   2.420
 4800W        W 8319   8.503   8.970   0.660
 4801W        W 8320   7.658   9.007   9.997
 4802W        W 8321   8.513   0.768   2.174
 4803W        W 8322   1.219   1.950   2.572
 4804W        W 8323   8.998   3.593  11.458
 4805W        W 8324   9.856   4.606   1.746
 4806W        W 8325   2.021   4.556   4.135
 4807W        W 8326   0.499   1.639   1.914
 4808W        W 8327   9.072   2.592   1.500
 4809W        W 8328   8.752   1.930   0.798
 4810W        W 8329   6.600   6.302   8.014
 4811W        W 8330   4.699   0.820   0.203
 4812W        W 8331   5.903   0.883  10.890
 4813W        W 8332   3.925   7.962   1.093
 4814W        W 8333   1.635   1.677   0.636
 4815W        W 8334   5.878   7.839   8.958
 4816W        W 8335   0.689   1.060   2.718
 4817W        W 8336   8.991   0.619   0.695
 4818W        W 8337   0.368   9.519   3.573
 4819W        W 8338   6.306   1.156   9.209
 4820W        W 8339   2.535   6.393   2.122
 4821W        W 8340   8.495   4.240   9.754
 4822W        W 8341   2.660   2.371   2.649
 4823W        W 8342   5.227   9.235   3.489
 4824W        W 8343   1.623   6.618   9.266
 4825W        W 8344   5.170   1.570   0.954
 4826W        W 8345   8.376   6.223   9.237
 4827W        W 8346   0.304   3.079   9.133
 4828W        W 8347   7.405   9.881   2.266
 4829W        W 8348   4.875   0.149  10.943
 4830W        W 8349   3.993   7.561   0.761
 4831W        W 8350   5.652   2.012   8.737
 4832W        W 8351   3.561   2.153   1.320
 4833W        W 8352   8.067   6.715   0.809
 4834W        W 8353   5.801   1.931   9.601
 4835W        W 8354   3.676   1.052   9.585
 4836W        W 8355   4.764   8.918  11.943
 4837W        W 8356   3.176   3.355   0.595
 4838W        W 8357   4.772   4.430   1.726
 4839W        W 8358   2.917   4.769   9.980
 4840W        W 8359   5.679   8.807  10.565
 4841W        W 8360   4.904   4.885   1.552
 4842W        W 8361   9.575   1.240   9.132
 4843W        W 8362   2.309   9.492   2.607
 4844W        W 8363   9.370   2.784   8.985
 4845W        W 8364   6.459   3.823  11.500
 4846W        W 8365   9.298   7.710   1.807
 4847W        W 8366   7.487   8.595   3.206
 4848W        W 8367   8.969   2.306   0.522
 4849W        W 8368   6.143   6.223  11.545
 4850W        W 8369   0.690   7.784   1.019
 4851W        W 8370   0.380   7.119   0.242
 4852W        W 8371   6.426   2.038  11.564
 4853W        W 8372   1.272   0.978   1.021
 4854W        W 8373   8.952   0.367   1.803
 4855W        W 8374   5.291   2.978   8.228
 4856W        W 8375   9.388   5.971   8.708
 4857W        W 8376   9.542   9.023   1.567
 4858W        W 8377   1.358   8.782   9.006
 4859W        W 8378   8.014   3.667  11.449
 4860W        W 8379   3.404   6.022  11.606
 4861W        W 8380   3.582   5.505   2.255
 4862W        W 8381   1.021   7.443  11.187
 4863W        W 8382   4.422   9.139   0.651
 4864W        W 8383   0.666   0.014  11.212
 4865W        W 8384   1.623   6.767  11.505
 4866W        W 8385   1.775   0.342   1.249
 4867W        W 8386   3.974   6.761  11.049
 4868W        W 8387   2.288   9.170   9.904
 4869W        W 8388   7.081   7.172  10.960
 4870W        W 8389   1.371   5.827   0.332
 4871W        W 8390   8.195   6.523   2.705
 4872W        W 8391   7.079   2.408  10.332
 4873W        W 8392   1.248   1.679   3.042
 4874W        W 8393   4.015   2.855   1.450
 4875W        W 8394   2.793   2.055  10.380
 4876W        W 8395   2.720   7.262   2.414
 4877W        W 8396   2.796   9.928   3.163
 4878W        W 8397   3.493   1.198   2.156
 4879W        W 8398   5.036   5.284  11.380
 4880W        W 8399   4.962   6.538   1.147
 4881W        W 8400   8.639   9.693   3.574
 4882W        W 8401   0.435   8.948   3.347
 4883W        W 8402   1.694   8.449  10.182
 4884W        W 8403   8.109   1.144  11.920
 4885W        W 8404   0.151   5.305   2.234
 4886W        W 8405   3.699   2.303   9.950
 4887W        W 8406   7.658   4.380  10.958
 4888W        W 8407   6.565   0.495   0.768
 4889W        W 8408   4.075   9.536  11.013
 4890W        W 8409   8.426   2.215   0.221
 4891W        W 8410   4.603   0.930  11.257
 4892W        W 8411   7.713   1.835   9.044
 4893W        W 8412   5.531   6.037   2.719
 4894W        W 8413   5.801   4.338  10.029
 4895W        W 8414   4.382   6.681  11.333
 4896W        W 8415   9.985   7.337   0.541
 4897W        W 8416   6.452   0.368   0.273
 4898W        W 8417   8.976   9.441   9.719
 4899W        W 8418   5.588   1.472  11.629
 4900W        W 8419   9.820   4.322   3.571
 4901W        W 8420   6.950   5.626   3.543
 4902W        W 8421   5.124   2.563  11.742
 4903W        W 8422   1.411   5.499   1.825
 4904W        W 8423   6.951   6.168  11.058
 4905W        W 8424   2.249   4.880   0.504
 4906W        W 8425   5.205   3.777   9.664
 4907W        W 8426   9.809   8.968  10.301
 4908W        W 8427   6.567   6.526  11.508
 4909W        W 8428   2.850   0.268   8.883
 4910W        W 8429   1.862   4.261   0.021
 4911W        W 8430   0.977   0.576  11.193
 4912W        W 8431   2.988   2.667   9.566
 4913W        W 8432   6.915   3.384   1.328
 4914W        W 8433   7.251   8.524  10.356
 4915W        W 8434   8.412   1.943   9.763
 4916W        W 8435   7.306   7.619   9.103
 4917W        W 8436   1.302   8.080   9.692
 4918W        W 8437   1.375   5.057  10.044
 4919W        W 8438   2.196   1.275   9.012
 4920W        W 8439   0.219   2.743   0.950
 4921W        W 8440   0.198   8.037   3.245
 4922W        W 8441   1.966   5.579   3.505
 4923W        W 8442   3.418   9.086  11.231
 4924W        W 8443   9.068   5.585   9.951
 4925W        W 8444   0.925   9.361   2.866
 4926W        W 8445   5.129   6.382   9.088
 4927W        W 8446   9.945   8.565   2.365
 4928W        W 8447   4.392   7.285   3.632
 4929W        W 8448   2.797   8.200   0.663
 4930W        W 8449   5.634   7.647   3.243
 4931W        W 8450   0.755   8.549   3.214
 4932W        W 8451   4.798   1.336   2.493
 4933W        W 8452   3.798   5.108   2.495
 4934W        W 8453   8.965   8.764   0.505
 4935W        W 8454   2.899   5.547   0.435
 4936W        W 8455   8.477   9.426   1.913
 4937W        W 8456   3.694   7.180   0.919
 4938W        W 8457   7.669   8.450   0.688
 4939W        W 8458   4.211   8.078  11.764
 4940W        W 8459   0.469   2.176   8.996
 4941W        W 8460   5.187   6.083   9.492
 4942W        W 8461   1.146   7.413   1.992
 4943W        W 8462   4.132   9.911   9.194
 4944W        W 8463   0.420   6.683   3.084
 4945W        W 8464   7.984   6.139  11.353
 4946W        W 8465   3.529   5.124  11.335
 4947W        W 8466   3.842   0.973   1.754
 4948W        W 8467   8.393   2.520   2.875
 4949W        W 8468   6.274   8.464   3.085
 4950W        W 8469   3.917   8.550   2.551
 4951W        W 8470   2.183   8.658   1.272
 4952W        W 8471   5.648   5.063   2.614
 4953W        W 8472   7.031   7.351   1.995
 4954W        W 8473   1.476   3.317   0.576
 4955W        W 8474   8.484   1.104  11.228
 4956W        W 8475   9.067   3.529   2.354
 4957W        W 8476   9.541   9.505   0.432
 4958W        W 8477   6.662   2.650   2.301
 4959W        W 8478   9.903   8.447   1.856
 4960W        W 8479   4.541   9.790   3.525
 4961W        W 8480   4.612   1.941   2.245
 4962W        W 8481   6.179   7.829   2.169
 4963W        W 8482   3.080   4.318  10.139
 4964W        W 8483   4.762   6.231   8.762
 4965W        W 8484   1.386   5.358  10.588
 4966W        W 8485   1.303   9.762   9.028
 4967W        W 8486   7.157   2.042   9.557
 4968W        W 8487   2.011   5.616  10.053
 4969W        W 8488   4.106   5.605  10.906
 4970W        W 8489   5.339   3.416   1.294
 4971W        W 8490   3.696   8.535   0.365
 4972W        W 8491   7.827   2.155   1.742
 4973W        W 8492   2.359   3.319  10.580
 4974W        W 8493   4.038   3.320   3.473
 4975W        W 8494   2.750   3.791   1.351
 4976W        W 8495   4.956   8.235   2.920
 4977W        W 8496   8.941   2.731  11.696
 4978W        W 8497   6.089   9.035   2.273
 4979W        W 8498   3.243   5.147  10.905
 4980W        W 8499   8.819   4.951   2.637
 4981W        W 8500   5.790   5.467  11.442
 4982W        W 8501   0.728   3.832   2.111
 4983W        W 8502   9.727   1.889  10.240
 4984W        W 8503   6.602   6.572   9.542
 4985W        W 8504   6.359   0.240  10.243
 4986W        W 8505   1.719   7.911   9.457
 4987W        W 8506   1.634   0.277  11.864
 4988W        W 8507   8.970   6.863   9.949
 4989W        W 8508   8.963   8.264  11.841
 4990W        W 8509   3.833   1.169   2.591
 4991W        W 8510   7.389   6.153   4.124
 4992W        W 8511   5.218   4.179   0.818
 4993W        W 8512   0.483   9.636   3.070
 4994W        W 8513   8.685   9.966  10.153
 4995W        W 8514   6.408   7.053   1.181
 4996W        W 8515   1.764   7.574   0.288
 4997W        W 8516   6.277   1.931   9.809
 4998W        W 8517   7.134   2.324   0.073
 4999W        W 8518   0.921   3.398  11.449
 5000W        W 8519   1.510   9.740   3.419
 5001W        W 8520   1.743   5.919   1.775
 5002W        W 8521   1.691   1.765   0.078
 5003W        W 8522   7.594   6.782   1.662
 5004W        W 8523   7.123   0.727  10.289
 5005W        W 8524   8.191   5.882   2.063
 5006W        W 8525   9.810   7.184  10.358
 5007W        W 8526   9.730   6.193   1.082
 5008W        W 8527   6.075   5.138   2.910
 5009W        W 8528   3.771   6.675   1.776
 5010W        W 8529   8.311   3.199  10.446
 5011W        W 8530   5.808   4.449  11.159
 5012W        W 8531   8.042   1.869   9.430
 5013W        W 8532   1.361   7.580  10.465
 5014W        W 8533   1.229   8.719   1.588
 5015W        W 8534   1.452   5.475   0.688
 5016W        W 8535   7.426   8.069  10.506
 5017W        W 8536   3.614   9.556  11.308
 5018W        W 8537   8.758   2.140  10.083
 5019W        W 8538   9.483   5.992   2.556
 5020W        W 8539   0.342   8.423   1.600
 5021W        W 8540   0.786   5.358   1.271
 5022W        W 8541   6.719   1.390   0.400
 5023W        W 8542   5.314   0.219   2.717
 5024W        W 8543   4.631   8.790  10.988
 5025W        W 8544   0.334   2.472   2.330
 5026W        W 8545   2.096   3.591   9.450
 5027W        W 8546   9.382   4.998   1.042
 5028W        W 8547   5.944   6.071   0.051
 5029W        W 8548   0.440   3.777   1.689
 5030W        W 8549   1.840   7.189   1.335
 5031W        W 8550   0.190   7.213   1.346
 5032W        W 8551   1.095   0.222  11.971
 5033W        W 8552   4.206   0.838   2.836
 5034W        W 8553   7.910   7.172   1.702
 5035W        W 8554   6.851   6.086   4.111
 5036W        W 8555   2.537   5.065   3.228
 5037W        W 8556   3.115   4.409   8.134
 5038W        W 8557   9.250   2.266   3.200
 5039W        W 8558   5.173   2.552   0.728
 5040W        W 8559   6.806   6.981   3.787
 5041W        W 8560   0.717   5.284  10.756
 5042W        W 8561   5.131   1.055   2.819
 5043W        W 8562   4.937   6.495   4.040
 5044W        W 8563   0.126   3.426   0.717
 5045W        W 8564   7.974   4.203  10.172
 5046W        W 8565   5.306   7.156   9.477
 5047W        W 8566   8.067   3.462   2.286
 5048W        W 8567   6.454   9.722  11.456
 5049W        W 8568   5.838   9.993   8.924
 5050W        W 8569   9.362   6.891   2.099
 5051W        W 8570   9.235   7.876   2.324
 5052W        W 8571   2.126   6.952   3.506
 5053W        W 8572   4.268   6.525   1.865
 5054W        W 8573   5.375   2.271   2.606
 5055W        W 8574   6.039   5.497   1.383
 5056W        W 8575   7.136   7.579  11.640
 5057W        W 8576   1.006   0.015   1.815
 5058W        W 8577   7.308   6.055   9.025
 5059W        W 8578   8.741   9.395   3.176
 5060W        W 8579   3.864   8.979  11.476
 5061W        W 8580   9.561   7.499   0.295
 5062W        W 8581   1.914   6.439  10.830
 5063W        W 8582   1.318   9.854  10.573
 5064W        W 8583   7.882   9.268   9.550
 5065W        W 8584   8.360   6.327   0.905
 5066W        W 8585   3.191   8.051   2.395
 5067W        W 8586   5.907   1.008  10.391
 5068W        W 8587   1.649   2.801   1.190
 5069W        W 8588   2.663   9.350   9.246
 5070W        W 8589   3.302   4.655   9.686
 5071W        W 8590   5.148   7.867   2.579
 5072W        W 8591   2.265   6.014   3.475
 5073W        W 8592   6.571   9.260  10.411
 5074W        W 8593   6.447   2.435   2.785
 5075W        W 8594   1.309   8.470   2.361
 5076W        W 8595   6.503   5.082   2.569
 5077W        W 8596   0.830   4.413   3.185
 5078W        W 8597   5.824   4.907   2.165
 5079W        W 8598   7.845   2.604   9.889
 5080W        W 8599   6.081   9.456  10.340
 5081W        W 8600   7.863   3.460  10.461
 5082W        W 8601   2.496   2.582   3.369
 5083W        W 8602   9.573   6.760   0.241
 5084W        W 8603   7.735   5.631   2.448
 5085W        W 8604   3.487   0.978   3.499
 5086W        W 8605   9.463   4.344   0.067
 5087W        W 8606   5.737   8.589   3.025
 5088W        W 8607   8.318   7.020   2.051
 5089W        W 8608   8.704   9.250   2.336
 5090W        W 8609   3.526   8.273   2.774
 5091W        W 8610   8.722   2.909   9.620
 5092W        W 8611   3.178   2.951   0.908
 5093W        W 8612   4.857   0.382   9.664
 5094W        W 8613   3.778   7.240  11.053
 5095W        W 8614   4.402   5.517  10.061
 5096W        W 8615   3.541   8.235   1.294
 5097W        W 8616   3.665   5.436   9.448
 5098W        W 8617   1.199   1.966   0.830
 5099W        W 8618   4.274   2.284   9.232
 5100W        W 8619   1.983   1.006   3.047
 5101W        W 8620   9.714   3.583  11.460
 5102W        W 8621   4.529   5.592   0.175
 5103W        W 8622   3.862   8.178  11.400
 5104W        W 8623   8.760   7.051   0.280
 5105W        W 8624   1.244   3.463   3.358
 5106W        W 8625   0.810   0.847   8.592
 5107W        W 8626   9.472   9.443   9.643
 5108W        W 8627   4.024   0.899   3.334
 5109W        W 8628   7.954   8.763   3.047
 5110W        W 8629   7.561   4.406   9.970
 5111W        W 8630   0.501   3.026   0.620
 5112W        W 8631   8.077   6.213   3.564
 5113W        W 8632   0.408   3.335   9.567
 5114W        W 8633   0.917   2.210   8.748
 5115W        W 8634   5.594   8.247   8.783
 5116W        W 8635   1.510   7.455   2.818
 5117W        W 8636   5.830   8.917   9.677
 5118W        W 8637   3.186   4.697   9.194
 5119W        W 8638   8.412   5.727   1.590
 5120W        W 8639   4.003   4.696   2.680
 5121W        W 8640   2.203   6.228   0.443
 5122W        W 8641   6.796   0.586  11.447
 5123W        W 8642   2.926   8.957   0.078
 5124W        W 8643   1.366   0.642   0.089
 5125W        W 8644   9.816   4.885   2.184
 5126W        W 8645   6.302   5.588   2.791
 5127W        W 8646   3.476   0.589   0.307
 5128W        W 8647   2.119   9.179   1.567
 5129W        W 8648   8.647   2.235   1.439
 5130W        W 8649   9.496   5.343  11.420
 5131W        W 8650   4.161   0.843   1.388
 5132W        W 8651   8.462   3.494   0.695
 5133W        W 8652   7.296   0.621   1.566
 5134W        W 8653   9.017   5.879   2.304
 5135W        W 8654   8.574   9.663   0.256
 5136W        W 8655   5.885   3.004   8.801
 5137W        W 8656   0.098   5.461   9.908
 5138W        W 8657   1.041   0.353   9.876
 5139W        W 8658   3.182   6.812   8.241
 5140W        W 8659   8.268   0.658   3.182
 5141W        W 8660   4.476   3.231   0.694
 5142W        W 8661   2.752   5.532  11.009
 5143W        W 8662   1.699   3.182  11.339
 5144W        W 8663   2.135   0.402  11.964
 5145W        W 8664   7.858   3.007   2.155
 5146W        W 8665   5.709   9.867   2.324
 5147W        W 8666   3.504   2.666   1.485
 5148W        W 8667   9.640   9.963   0.241
 5149W        W 8668   8.256   5.082   9.980
 5150W        W 8669   6.162   9.018  10.635
 5151W        W 8670   5.904   6.399  11.113
 5152W        W 8671   0.454   1.560   0.008
 5153W        W 8672   6.179   4.705   0.012
 5154W        W 8673   6.261   4.170   0.685
 5155W        W 8674   9.466   9.319   8.682
 5156W        W 8675   9.427   7.090  11.174
 5157W        W 8676   5.663   1.441   0.586
 5158W        W 8677   4.202   5.063   9.844
 5159W        W 8678   7.699   4.809   9.055
 5160W        W 8679   1.299   7.134   0.172
 5161W        W 8680   2.396   5.238   2.773
 5162W        W 8681   5.402   4.904  10.445
 5163W        W 8682   9.448   5.520   0.685
 5164W        W 8683   2.343   7.872   1.830
 5165W        W 8684   6.694   1.416   8.558
 5166W        W 8685   4.250   6.440   2.759
 5167W        W 8686   6.908   8.746  10.054
 5168W        W 8687   4.242   8.907   2.415
 5169W        W 8688   0.752   6.145  11.826
 5170W        W 8689   9.816   4.611  10.017
 5171W        W 8690   7.655   1.010   2.340
 5172W        W 8691   6.041   2.822   2.138
 5173W        W 8692   7.917   9.411  11.668
 5174W        W 8693   3.748   1.991   2.864
 5175W        W 8694   2.849   5.097  11.274
 5176W        W 8695   3.771   4.215   3.771
 5177W        W 8696   9.018   9.874   1.610
 5178W        W 8697   8.960   8.075  10.758
 5179W        W 8698   8.408   5.190   2.308
 5180W        W 8699   4.488   4.233   9.687
 5181W        W 8700   8.760   3.735   2.017
 5182W        W 8701   5.943   6.949  11.923
 5183W        W 8702   1.026   4.980   0.499
 5184W        W 8703   1.874   7.664  11.257
 5185W        W 8704   3.846   3.028   2.358
 5186W        W 8705   2.939   8.874   3.259
 5187W        W 8706   5.615   7.022   3.998
 5188W        W 8707   5.550   2.649   2.961
 5189W        W 8708   1.698   0.147   2.599
 5190W        W 8709   0.541   3.511   8.923
 5191W        W 8710   8.038   1.176   2.639
 5192W        W 8711   7.658   9.753  10.931
 5193W        W 8712   5.158   3.485   3.993
 5194W        W 8713   3.896   9.888   0.507
 5195W        W 8714   6.969   9.034   9.207
 5196W        W 8715   2.193   3.828   2.773
 5197W        W 8716   7.387   3.612   0.466
 5198W        W 8717   0.010   5.984   1.454
 5199W        W 8718   9.626   1.443   1.676
 5200W        W 8719   6.877   9.827   3.183
 5201W        W 8720   7.876   7.673   1.741
 5202W        W 8721   6.453   7.254  10.976
 5203W        W 8722   1.815   5.430   8.733
 5204W        W 8723   1.824   5.491   1.489
 5205W        W 8724   9.758   8.046   9.067
 5206W        W 8725   1.533   0.177   9.756
 5207W        W 8726   0.704   7.290   1.225
 5208W        W 8727   2.362   4.742   9.815
 5209W        W 8728   2.081   4.076   0.454
 5210W        W 8729   7.169   5.530   8.972
 5211W        W 8730   9.768   0.813  10.883
 5212W        W 8731   8.034   6.130  10.044
 5213W        W 8732   2.183   4.250  10.550
 5214W        W 8733   3.938   5.414  11.415
 5215W        W 8734   1.376   8.422   0.633
 5216W        W 8735   5.548   1.839  10.048
 5217W        W 8736   8.300   2.379  10.059
 5218W        W 8737   9.519   1.439   2.174
 5219W        W 8738   3.764   2.221   0.756
 5220W        W 8739   1.773   1.561   9.117
 5221W        W 8740   3.503   6.176   8.785
 5222W        W 8741   3.042   1.861   8.596
 5223W        W 8742   9.292   6.340  11.393
 5224W        W 8743   0.165   0.634   0.226
 5225W        W 8744   4.569   2.162   3.018
 5226W        W 8745   9.818   9.400   1.808
 5227W        W 8746   8.966   5.110  11.731
 5228W        W 8747   2.112   3.751   0.829
 5229W        W 8748   3.501   1.859  10.007
 5230W        W 8749   4.618   9.575   9.338
 5231W        W 8750   6.271   3.749   1.716
 5232W        W 8751   2.259   8.328   3.190
 5233W        W 8752   7.933   2.270   2.662
 5234W        W 8753   5.295   5.039   1.266
 5235W        W 8754   4.151   5.506   9.608
 5236W        W 8755   4.196   4.576  10.122
 5237W        W 8756   9.359   9.924   1.202
 5238W        W 8757   5.498   2.346   1.058
 5239W        W 8758   2.632   0.482  10.283
 5240W        W 8759   8.515   5.492  11.275
 5241W        W 8760   4.920   7.070  11.890
 5242W        W 8761   6.050   1.761   3.177
 5243W        W 8762   3.961   0.351   0.312
 5244W        W 8763   9.054   5.397   1.149
 5245W        W 8764   1.675   6.200  11.216
 5246W        W 8765   0.408   3.032  11.702
 5247W        W 8766   9.123   9.513   9.233
 5248W        W 8767   3.096   0.380   2.469
 5249W        W 8768   5.022   6.348   3.321
 5250W        W 8769   6.485   3.597   9.279
 5251W        W 8770   1.520   2.907   3.575
 5252W        W 8771   1.673   8.074  10.986
 5253W        W 8772   3.203   5.616  10.697
 5254W        W 8773   8.586   3.370   2.322
 5255W        W 8774   1.413   6.980   1.140
 5256W        W 8775   9.157   4.281   1.974
 5257W        W 8776   1.339   3.167   1.688
 5258W        W 8777   4.176   9.422   9.044
 5259W        W 8778   8.297   7.524   1.285
 5260W        W 8779   3.456   8.181   9.321
 5261W        W 8780   3.153   5.895   8.437
 5262W        W 8781   5.454   6.547   4.108
 5263W        W 8782   6.778   4.024  11.845
 5264W        W 8783   0.695   7.058   1.769
 5265W        W 8784   7.716   5.612   0.436
 5266W        W 8785   2.166   0.903   0.040
 5267W        W 8786   0.047   2.833  10.851
 5268W        W 8787   8.637   9.419   8.832
 5269W        W 8788   5.959   4.030   2.070
 5270W        W 8789   7.624   6.526   0.612
 5271W        W 8790   2.749   7.757   2.625
 5272W        W 8791   5.684   9.367   2.141
 5273W        W 8792   1.373   6.199  10.075
 5274W        W 8793   1.168   6.720  11.824
 5275W        W 8794   3.346   6.675   8.884
 5276W        W 8795   2.697   5.657   2.742
 5277W        W 8796   3.452   7.922   8.766
 5278W        W 8797   8.080   5.655  10.957
 5279W        W 8798   9.375   6.140   9.191
 5280W        W 8799   4.948   1.839   0.234
 5281W        W 8800   7.724   7.318   2.850
 5282W        W 8801   2.711   4.254  11.886
 5283W        W 8802   8.804   3.989   2.660
 5284W        W 8803   4.945   9.216  11.012
 5285W        W 8804   0.258   8.533   3.097
 5286W        W 8805   6.468   4.128   2.095
 5287W        W 8806   4.040   4.344  11.508
 5288W        W 8807   1.424   9.727   1.799
 5289W        W 8808   8.393   3.051   2.646
 5290W        W 8809   3.303   1.852   1.695
 5291W        W 8810   8.429   3.055   8.497
 5292W        W 8811   8.426   4.447   1.840
 5293W        W 8812   7.523   6.408   8.714
 5294W        W 8813   0.732   4.524   1.378
 5295W        W 8814   1.129   8.043  10.193
 5296W        W 8815   2.247   2.935  10.947
 5297W        W 8816   4.295   3.629  11.109
 5298W        W 8817   3.525   0.103   0.174
 5299W        W 8818   5.198   4.107  11.070
 5300W        W 8819   4.521   1.362  11.552
 5301W        W 8820   9.138   2.235   9.702
 5302W        W 8821   1.743   6.260   8.905
 5303W        W 8822   5.474   3.341   9.841
 5304W        W 8823   6.636   2.700  10.965
 5305W        W 8824   6.063   4.956   0.451
 5306W        W 8825   3.200   1.231   3.112
 5307W        W 8826   4.983   8.544   9.542
 5308W        W 8827   0.718   1.676  10.327
 5309W        W 8828   8.869   3.250   0.443
 5310W        W 8829   8.107   9.788   2.810
 5311W        W 8830   9.884   3.388  10.980
 5312W        W 8831   0.003   8.822   1.504
 5313W        W 8832   1.168   8.015  10.723
 5314W        W 8833   0.842   8.398  11.102
 5315W        W 8834   3.632   0.060   1.989
 5316W        W 8835   3.219   2.002  10.895
 5317W        W 8836   4.078   0.920   9.007
 5318W        W 8837   0.039   1.015  10.490
 5319W        W 8838   4.076   5.794  10.378
 5320W        W 8839   9.734   6.990   1.445
 5321W        W 8840   4.319   1.162   0.466
 5322W        W 8841   1.611   7.222  11.249
 5323W        W 8842   8.395   0.260   2.280
 5324W        W 8843   6.141   6.398   0.432
 5325W        W 8844   9.030   2.171   1.775
 5326W        W 8845   8.202   1.949  11.762
 5327W        W 8846   4.996   4.336  11.505
 5328W        W 8847   0.273   2.361   0.324
 5329W        W 8848   2.029   2.102   3.775
 5330W        W 8849   4.803   5.545   9.520
 5331W        W 8850   3.716   9.511   1.508
 5332W        W 8851   9.204   1.879  11.900
 5333W        W 8852   4.006   6.207   4.192
 5334W        W 8853   2.674   7.515   0.208
 5335W        W 8854   1.390   0.851  11.377
 5336W        W 8855   2.701   2.930  11.250
 5337W        W 8856   2.585   7.991   9.380
 5338W        W 8857   2.210   3.442  11.884
 5339W        W 8858   9.138   7.442   0.010
 5340W        W 8859   4.605   3.166  11.671
 5341W        W 8860   3.599   7.412   0.052
 5342W        W 8861   8.125   7.589  10.699
 5343W        W 8862   8.666   6.494  10.124
 5344W        W 8863   3.981   5.582   4.129
 5345W        W 8864   1.003   9.328   8.996
 5346W        W 8865   0.852   2.586  11.124
 5347W        W 8866   4.182   6.330  11.658
 5348W        W 8867   5.088   8.806   2.217
 5349W        W 8868   6.166   4.520   8.659
 5350W        W 8869   1.744   6.651  10.377
 5351W        W 8870   6.765   8.466   0.883
 5352W        W 8871   4.632   8.404  11.893
 5353W        W 8872   8.897   4.666   1.784
 5354W        W 8873   2.351   0.774   1.699
 5355W        W 8874   4.402   5.456   9.175
 5356W        W 8875   8.407   5.845   0.730
 5357W        W 8876   2.443   0.336  11.294
 5358W        W 8877   5.741   6.853   8.261
 5359W        W 8878   7.947   9.099   3.447
 5360W        W 8879   8.970   6.670  10.837
 5361W        W 8880   5.644   2.698  10.850
 5362W        W 8881   6.520   6.529  10.604
 5363W        W 8882   3.301   7.564  10.671
 5364W        W 8883   3.218   4.279   2.337
 5365W        W 8884   7.363   9.706   3.214
 5366W        W 8885   8.539   2.334  11.741
 5367W        W 8886   8.926   1.741   9.800
 5368W        W 8887   3.519   5.074   8.621
 5369W        W 8888   2.264   2.626   9.992
 5370W        W 8889   0.865   7.530   3.523
 5371W        W 8890   8.391   0.818   2.689
 5372W        W 8891   2.965   9.967   1.003
 5373W        W 8892   1.896   0.473   9.997
 5374W        W 8893   1.283   4.643   2.410
 5375W        W 8894   5.983   3.192  11.811
 5376W        W 8895   5.219   6.101   4.235
 5377W        W 8896   5.962   2.266   0.866
 5378W        W 8897   7.530   3.577   3.030
 5379W        W 8898   2.597   2.898   1.078
 5380W        W 8899   1.434   0.810   1.874
 5381W        W 8900   2.526   1.017   0.375
 5382W        W 8901   3.256   1.486   8.892
 5383W        W 8902   1.782   4.734   9.940
 5384W        W 8903   0.046   1.710  11.755
 5385W        W 8904   6.130   6.000  10.742
 5386W        W 8905   8.219   8.563  11.409
 5387W        W 8906   1.457   0.854  10.854
 5388W        W 8907   6.874   9.053   0.432
 5389W        W 8908   0.105   4.800  11.427
 5390W        W 8909   0.428   5.875  11.301
 5391W        W 8910   2.600   1.289   1.908
 5392W        W 8911   6.704   6.454  10.095
 5393W        W 8912   6.723   3.894   0.803
 5394W        W 8913   6.621   5.240   3.592
 5395W        W 8914   6.662   9.848  10.994
 5396W        W 8915   4.476   5.804   8.810
 5397W        W 8916   2.268   5.628   2.418
 5398W        W 8917   7.025   0.722   9.526
 5399W        W 8918   0.321   3.289   2.688
 5400W        W 8919   6.526   2.263   8.683
 5401W        W 8920   6.962   6.238   0.937
 5402W        W 8921   6.165   1.871  10.287
 5403W        W 8922   9.358   9.234   0.017
 5404W        W 8923   6.768   5.944  10.203
 5405W        W 8924   2.182   4.303  10.019
 5406W        W 8925   6.673   5.803   0.834
 5407W        W 8926   8.911   5.992  11.458
 5408W        W 8927   6.588   8.027   3.041
 5409W        W 8928   6.499   0.667   1.272
 5410W        W 8929   2.965   3.270  10.956
 5411W        W 8930   2.314   9.255  10.904
 5412W        W 8931   1.268   6.214   0.620
 5413W        W 8932   7.692   2.675   3.398
 5414W        W 8933   1.650   3.153   2.471
 5415W        W 8934   1.743   1.192   2.203
 5416W        W 8935   5.561   4.476   1.114
 5417W        W 8936   2.037   6.452  11.927
 5418W        W 8937   0.880   8.869   9.191
 5419W        W 8938   8.055   5.628   9.925
 5420W        W 8939   6.939   8.240   8.564
 5421W        W 8940   5.339   1.039  11.559
 5422W        W 8941   5.054   1.708   9.966
 5423W        W 8942   9.457   1.432   2.706
 5424W        W 8943   5.966   0.504  10.389
 5425W        W 8944   8.451   9.731   2.407
 5426W        W 8945   1.212   2.602   3.307
 5427W        W 8946   9.458   6.499  10.793
 5428W        W 8947   6.056   7.948  11.212
 5429W        W 8948   2.288   7.923   2.815
 5430W        W 8949   1.290   1.316   9.133
 5431W        W 8950   5.287   1.983   9.587
 5432W        W 8951   5.718   8.075   9.403
 5433W        W 8952   6.493   2.009   3.065
 5434W        W 8953   1.174   8.952   2.577
 5435W        W 8954   3.593   5.029   3.399
 5436W        W 8955   2.654   6.399   2.648
 5437W        W 8956   9.011   4.188   9.596
 5438W        W 8957   3.374   4.730  10.211
 5439W        W 8958   2.657   9.206   2.348
 5440W        W 8959   2.258   2.167   9.592
 5441W        W 8960   2.710   7.417   0.696
 5442W        W 8961   0.241   1.726   8.877
 5443W        W 8962   5.420   1.457   2.695
 5444W        W 8963   9.206   1.818   1.018
 5445W        W 8964   5.444   1.818   0.302
 5446W        W 8965   6.142   2.326  10.532
 5447W        W 8966   1.556   8.313   9.177
 5448W        W 8967   9.182   6.640   0.685
 5449W        W 8968   0.068   4.799   8.760
 5450W        W 8969   1.889   4.698   9.078
 5451W        W 8970   9.447   2.221   0.256
 5452W        W 8971   0.581   4.648  11.408
 5453W        W 8972   7.768   9.232   1.316
 5454W        W 8973   6.527   1.303  11.018
 5455W        W 8974   0.124   2.874   9.611
 5456W        W 8975   4.801   6.421   8.292
 5457W        W 8976   2.839   6.819  10.228
 5458W        W 8977   3.215   8.752   0.463
 5459W        W 8978   3.610   7.123   2.041
 5460W        W 8979   7.952   4.154   9.678
 5461W        W 8980   2.130   8.323   1.710
 5462W        W 8981   9.493   4.756   3.559
 5463W        W 8982   0.006   3.234   9.942
 5464W        W 8983   2.678   7.161   1.136
 5465W        W 8984   0.032   4.260   0.140
 5466W        W 8985   4.350   5.434  11.731
 5467W        W 8986   8.916   4.622  11.535
 5468W        W 8987   9.597   6.567   3.244
 5469W        W 8988   4.709   3.393   2.448
 5470W        W 8989   2.338   2.824   1.814
 5471W        W 8990   1.885   9.160   0.580
 5472W        W 8991   9.095   1.721  11.418
 5473W        W 8992   5.499   5.952   0.866
 5474W        W 8993   9.829   2.526   0.697
 5475W        W 8994   9.822   5.698   8.573
 5476W        W 8995   9.975   1.058   1.779
 5477W        W 8996   0.361   1.387  10.545
 5478W        W 8997   7.660   7.553  11.669
 5479W        W 8998   2.639   8.491   1.488
 5480W        W 8999   3.980   1.370   2.117
 5481W        W 9000   6.079   8.062  10.201
 5482W        W 9001   1.211   5.126   2.172
 5483W        W 9002   7.106   1.509   9.754
 5484W        W 9003   9.936   4.260   0.827
 5485W        W 9004   1.177   4.027  10.037
 5486W        W 9005   9.872   2.284   2.690
 5487W        W 9006   5.143   5.172   9.595
 5488W        W 9007   6.117   7.950   1.430
 5489W        W 9008   8.128   5.920   0.293
 5490W        W 9009   8.981   0.900   2.036
 5491W        W 9010   4.136   8.858   9.812
 5492W        W 9011   9.498   8.370   3.661
 5493W        W 9012   9.829   1.299  11.991
 5494W        W 9013   2.051   6.489   0.876
 5495W        W 9014   5.566   4.292   8.862
 5496W        W 9015   5.125   0.177  10.042
 5497W        W 9016   9.525   3.589   2.132
 5498W        W 9017   0.898   5.622   1.750
 5499W        W 9018   9.016   7.511   3.149
 5500W        W 9019   5.742   1.817  11.250
 5501W        W 9020   0.813   2.450   1.522
 5502W        W 9021   6.168   5.775   9.580
 5503W        W 9022   5.944   1.552   8.975
 5504W        W 9023   9.835   0.882   2.777
 5505W        W 9024   6.383   3.751   8.806
 5506W        W 9025   9.340   4.374   3.879
 5507W        W 9026   8.864   7.962   9.223
 5508W        W 9027   7.084   0.964   0.300
 5509W        W 9028   3.756   9.464   3.150
 5510W        W 9029   9.939   8.157   8.589
 5511W        W 9030   1.085   7.469   2.499
 5512W        W 9031   5.188   1.904   3.364
 5513W        W 9032   8.409   6.983   3.432
 5514W        W 9033   3.141   4.386  11.545
 5515W        W 9034   4.511   3.839   0.207
 5516W        W 9035   7.458   1.313   1.969
 5517W        W 9036   0.342   5.251   8.792
 5518W        W 9037   7.402   5.698  11.986
 5519W        W 9038   9.016   0.425  11.023
 5520W        W 9039   9.018   5.817   1.464
 5521W        W 9040   3.483   1.941   0.401
 5522W        W 9041   8.349   7.083   0.547
 5523W        W 9042   4.155   7.929  10.463
 5524W        W 9043   0.020   2.219   9.986
 5525W        W 9044   8.166   0.567  10.871
 5526W        W 9045   5.220   8.709   0.750
 5527W        W 9046   7.098   1.638   0.763
 5528W        W 9047   7.871   1.127   1.700
 5529W        W 9048   6.377   4.691  10.363
 5530W        W 9049   6.926   6.291   9.279
 5531W        W 9050   0.189   7.319  10.648
 5532W        W 9051   4.167   7.314   1.461
 5533W        W 9052   9.654   2.836  10.544
 5534W        W 9053   9.800   5.216   3.702
 5535W        W 9054   9.493   5.194  10.923
 5536W        W 9055   5.289   4.469  11.907
 5537W        W 9056   8.372   9.814  11.668
 5538W        W 9057   5.249   9.751   0.829
 5539W        W 9058   0.393   9.954   8.941
 5540W        W 9059   3.717   9.747   8.436
 5541W        W 9060   6.575   4.192   8.596
 5542W        W 9061   1.525   9.387   8.755
 5543W        W 9062   5.990   5.150  11.823
 5544W        W 9063   7.751   1.591  11.194
 5545W        W 9064   7.587   5.413   9.759
 5546W        W 9065   3.471   2.530  11.427
 5547W        W 9066   7.811   8.455   1.226
 5548W        W 9067   6.179   4.178   2.539
 5549W        W 9068   4.117   7.022   1.906
 5550W        W 9069   9.336   3.877   9.815
 5551W        W 9070   5.342   0.297  10.879
 5552W        W 9071   6.650   4.629   2.205
 5553W        W 9072   6.066   8.539   2.625
 5554W        W 9073   2.391   5.738   0.460
 5555W        W 9074   5.793   4.324  11.901
 5556W        W 9075   4.191   0.853  10.073
 5557W        W 9076   3.600   4.649   2.989
 5558W        W 9077   7.319   0.862   9.000
 5559W        W 9078   5.315   8.949   9.602
 5560W        W 9079   1.380   9.904   2.964
 5561W        W 9080   0.118   4.537   9.630
 5562W        W 9081   3.527   6.520   8.424
 5563W        W 9082   2.237   5.182  10.020
 5564W        W 9083   4.354   6.074   1.286
 5565W        W 9084   3.220   7.880   1.412
 5566W        W 9085   6.451   6.345   1.821
 5567W        W 9086   2.458   4.840   0.972
 5568W        W 9087   8.794   5.381   1.610
 5569W        W 9088   7.146   9.731   1.123
 5570W        W 9089   2.377   2.304  10.587
 5571W        W 9090   7.490   8.639   9.031
 5572W        W 9091   2.914   3.138  11.939
 5573W        W 9092   4.383   4.840   0.831
 5574W        W 9093   6.463   0.388  11.768
 5575W        W 9094   3.911   8.519   1.101
 5576W        W 9095   2.442   5.435   3.571
 5577W        W 9096   6.485   8.958   1.981
 5578W        W 9097   1.152   1.310   3.438
 5579W        W 9098   8.673   2.825  10.511
 5580W        W 9099   3.639   4.915   1.248
 5581W        W 9100   7.329   5.187  10.930
 5582W        W 9101   7.422   3.503  11.427
 5583W        W 9102   2.277   3.322   1.866
 5584W        W 9103   3.191   3.688   1.597
 5585W        W 9104   4.374   1.113  11.955
 5586W        W 9105   7.145   7.301  10.446
 5587W        W 9106   0.884   3.466  10.149
 5588W        W 9107   7.967   7.234   3.334
 5589W        W 9108   0.890   2.035   2.985
 5590W        W 9109   4.048   9.389   0.080
 5591W        W 9110   7.648   6.442   9.896
 5592W        W 9111   8.187   5.160  11.048
 5593W        W 9112   4.473   5.358   0.764
 5594W        W 9113   7.905   2.081   9.928
 5595W        W 9114   3.183   5.417   1.953
 5596W        W 9115   4.166   0.448   3.174
 5597W        W 9116   7.646   2.164   3.537
 5598W        W 9117   7.985   0.234   3.077
 5599W        W 9118   7.315   0.301   9.690
 5600W        W 9119   8.852   3.496   1.553
 5601W        W 9120   8.389   1.228   9.059
 5602W        W 9121   4.784   5.743   0.577
 5603W        W 9122   5.753   3.713   1.701
 5604W        W 9123   9.421   3.305  10.623
 5605W        W 9124   6.458   2.552   9.110
 5606W        W 9125   1.435   7.634  10.964
 5607W        W 9126   4.814   4.852  11.122
 5608W        W 9127   4.271   9.028  11.807
 5609W        W 9128   9.422   2.865   1.988
 5610W        W 9129   5.488   5.409   1.558
 5611W        W 9130   2.740   5.687   0.903
 5612W        W 9131   1.142   2.796   9.469
 5613W        W 9132   4.623   5.001  11.573
 5614W        W 9133   5.541   9.286   2.627
 5615W        W 9134   9.014   8.654   9.917
 5616W        W 9135   3.714   1.760  11.916
 5617W        W 9136   6.987   3.897   1.256
 5618W        W 9137   4.654   8.593   3.129
 5619W        W 9138   6.609   1.163   1.268
 5620W        W 9139   5.286   8.360   9.173
 5621W        W 9140   6.076   2.815   9.274
 5622W        W 9141   9.287   6.693   9.254
 5623W        W 9142   3.073   8.457   2.093
 5624W        W 9143   7.085   1.818   2.345
 5625W        W 9144   5.696   7.060  11.486
 5626W        W 9145   5.898   8.648   1.926
 5627W        W 9146   7.607   8.885   0.958
 5628W        W 9147   6.107   8.349   3.595
 5629W        W 9148   5.916   8.486   9.941
 5630W        W 9149   1.739   3.553   9.084
 5631W        W 9150   9.082   1.793   3.069
 5632W        W 9151   1.063   1.871   3.970
 5633W        W 9152   9.039   0.817  11.377
 5634W        W 9153   0.983   3.776  11.795
 5635W        W 9154   7.282   0.366  10.625
 5636W        W 9155   2.328   8.777   1.761
 5637W        W 9156   5.808   6.153   8.731
 5638W        W 9157   1.135   9.803   2.291
 5639W        W 9158   7.314   8.156   8.935
 5640W        W 9159   4.210   7.490   8.687
 5641W        W 9160   9.052   8.945   1.451
 5642W        W 9161   0.276   5.166   1.169
 5643W        W 9162   0.525   9.799  10.082
 5644W        W 9163   5.194   3.561  11.069
 5645W        W 9164   0.890   4.372   2.650
 5646W        W 9165   1.900   2.166  10.438
 5647W        W 9166   7.152   5.156   9.886
 5648W        W 9167   1.388   7.015   3.103
 5649W        W 9168   2.988   4.575   3.826
 5650W        W 9169   5.978   3.660  10.430
 5651W        W 9170   7.436   4.738  10.667
 5652W        W 9171   7.927   3.069  10.777
 5653W        W 9172   1.321   0.855   8.558
 5654W        W 9173   6.718   8.815   9.589
 5655W        W 9174   6.715   7.703  11.880
 5656W        W 9175   3.753   2.363   3.272
 5657W        W 9176   4.076   0.340  10.157
 5658W        W 9177   2.140   2.365   1.827
 5659W        W 9178   1.729   2.262   9.414
 5660W        W 9179   4.666   5.539   3.394
 5661W        W 9180   3.061   0.872   2.236
 5662W        W 9181   6.953   9.091  10.983
 5663W        W 9182   4.918   2.871   1.337
 5664W        W 9183   1.913   6.822   3.932
 5665W        W 9184   3.322   2.589   9.176
 5666W        W 9185   5.033   9.534   0.414
 5667W        W 9186   1.351   1.764   9.806
 5668W        W 9187   4.474   4.967   9.000
 5669W        W 9188   1.635   9.971  11.387
 5670W        W 9189   0.540   4.236   0.274
 5671W        W 9190   7.276   9.311   1.379
 5672W        W 9191   9.782   2.668   9.273
 5673W        W 9192   0.841   5.876   1.307
 5674W        W 9193   1.425   9.333   0.394
 5675W        W 9194   0.136   6.403   0.811
 5676W        W 9195   9.397   8.295   2.994
 5677W        W 9196   3.803   2.978   2.918
 5678W        W 9197   1.083   6.483   1.025
 5679W        W 9198   9.351   8.240   8.773
 5680W        W 9199   3.741   2.784   1.911
 5681W        W 9200   5.440   4.162   0.290
 5682W        W 9201   7.898   8.333   8.951
 5683W        W 9202   9.423   6.680   9.743
 5684W        W 9203   1.729   1.697  10.637
 5685W        W 9204   2.936   4.781   1.170
 5686W        W 9205   0.761   7.566   1.691
 5687W        W 9206   9.541   4.449   2.352
 5688W        W 9207   3.863   4.583   3.415
 5689W        W 9208   8.075   3.713   0.448
 5690W        W 9209   5.190   7.757   0.525
 5691W        W 9210   5.167   7.502   3.981
 5692W        W 9211   5.244   3.837  10.643
 5693W        W 9212   6.266   7.312   2.118
 5694W        W 9213   7.762   0.392   1.539
 5695W        W 9214   0.852   6.151   2.426
 5696W        W 9215   6.826   4.425   0.835
 5697W        W 9216   3.352   4.538   1.484
 5698W        W 9217   9.431   0.139   1.764
 5699W        W 9218   2.743   5.996   9.794
 5700W        W 9219   2.764   4.618   3.354
 5701W        W 9220   9.701   8.880  10.801
 5702W        W 9221   1.005   5.886   9.907
 5703W        W 9222   5.140   5.693  10.664
 5704W        W 9223   5.254   5.661   9.789
 5705W        W 9224   6.702   5.725   0.341
 5706W        W 9225   1.530   4.815  10.469
 5707W        W 9226   6.933   2.582   1.834
 5708W        W 9227   1.117   9.572   1.395
 5709W        W 9228   7.541   0.494   2.383
 5710W        W 9229   1.746   8.552  11.265
 5711W        W 9230   1.379   9.527  11.377
 5712W        W 9231   7.812   0.538   9.038
 5713W        W 9232   1.862   9.566   0.894
 5714W        W 9233   6.065   5.277   2.411
 5715W        W 9234   1.933   0.888   8.473
 5716W        W 9235   1.738   1.736  11.571
 5717W        W 9236   4.260   9.453   3.235
 5718W        W 9237   2.487   1.257  10.488
 5719W        W 9238   3.178   5.221   1.209
 5720W        W 9239   5.957   9.006   2.759
 5721W        W 9240   6.646   6.241   1.355
 5722W        W 9241   1.929   3.086  10.437
 5723W        W 9242   2.259   8.995   9.279
 5724W        W 9243   5.052   9.377   9.095
 5725W        W 9244   6.162   9.846   9.986
 5726W        W 9245   7.116   6.068   2.796
 5727W        W 9246   2.876   4.610   1.659
 5728W        W 9247   6.004   5.015  11.189
 5729W        W 9248   3.227   2.878   1.905
 5730W        W 9249   0.439   6.941   8.720
 5731W        W 9250   7.138   3.985   0.197
 5732W        W 9251   5.133   6.176  11.555
 5733W        W 9252   7.130   8.519   9.418
 5734W        W 9253   9.768   9.844   9.771
 5735W        W 9254   7.515   6.305  11.300
 5736W        W 9255   1.926   0.568   3.311
 5737W        W 9256   8.774   7.590  10.709
 5738W        W 9257   3.256   6.309   0.178
 5739W        W 9258   1.232   6.019   9.119
 5740W        W 9259   5.517   9.381  11.185
 5741W        W 9260   1.558   1.377   9.566
 5742W        W 9261   0.503   6.423   8.565
 5743W        W 9262   9.515   4.013   1.052
 5744W        W 9263   3.309   6.881   1.671
 5745W        W 9264   5.127   3.233   2.927
 5746W        W 9265   5.025   0.473  10.488
 5747W        W 9266   8.333   2.642   3.372
 5748W        W 9267   3.200   6.395  11.294
 5749W        W 9268   3.136   6.013   3.220
 5750W        W 9269   4.927   3.274   9.067
 5751W        W 9270   3.647   4.008   9.563
 5752W        W 9271   7.944   1.009  11.066
 5753W        W 9272   6.968   9.477   8.845
 5754W        W 9273   6.476   0.825   9.597
 5755W        W 9274   8.896   0.807   9.963
 5756W        W 9275   6.112   7.234   9.554
 5757W        W 9276   6.219   1.511   1.351
 5758W        W 9277   8.491   3.981   0.186
 5759W        W 9278   3.514   8.027  10.791
 5760W        W 9279   3.158   6.935   3.051
 5761W        W 9280   1.066   4.026   3.407
 5762W        W 9281   1.722   4.069   2.910
 5763W        W 9282   2.733   5.505  10.524
 5764W        W 9283   1.360   7.824   1.757
 5765W        W 9284   4.649   2.252   0.129
 5766W        W 9285   7.519   1.421   0.979
 5767W        W 9286   3.568   8.358   2.247
 5768W        W 9287   5.369   0.238   2.215
 5769W        W 9288   2.706   8.245   2.498
 5770W        W 9289   7.736   6.906   8.513
 5771W        W 9290   6.793   2.147   3.436
 5772W        W 9291   1.278   8.489  11.471
 5773W        W 9292   2.570   7.612   1.413
 5774W        W 9293   2.739   8.824  10.947
 5775W        W 9294   9.602   5.839   2.102
 5776W        W 9295   5.913   1.387   2.846
 5777W        W 9296   5.889   8.410   1.469
 5778W        W 9297   0.470   6.777   1.326
 5779W        W 9298   3.930   0.216   9.546
 5780W        W 9299   4.273   6.204   2.267
 5781W        W 9300   9.963   6.400   0.238
 5782W        W 9301   4.689   8.225   9.941
 5783W        W 9302   9.039   9.436  11.056
 5784W        W 9303   2.341   3.637   9.888
 5785W        W 9304   3.315   5.504   3.427
 5786W        W 9305   4.712   8.108   9.458
 5787W        W 9306   6.806   5.126   1.285
 5788W        W 9307   4.215   5.979   9.922
 5789W        W 9308   8.349   5.326  11.775
 5790W        W 9309   5.694   8.844  11.577
 5791W        W 9310   2.765   0.952  10.111
 5792W        W 9311   9.133   6.470   8.821
 5793W        W 9312   6.682   6.241   0.391
 5794W        W 9313   6.481   1.579   3.394
 5795W        W 9314   4.212   4.774   0.353
 5796W        W 9315   7.041   8.855   3.245
 5797W        W 9316   6.448   6.118   9.315
 5798W        W 9317   4.853   2.677   3.685
 5799W        W 9318   6.632   8.056   1.501
 5800W        W 9319   0.177   4.668  10.951
 5801W        W 9320   0.291   4.168  10.028
 5802W        W 9321   4.578   1.403  11.036
 5803W        W 9322   3.553   8.576  11.503
 5804W        W 9323   5.613   2.434  11.895
 5805W        W 9324   5.638   6.422   9.123
 5806W        W 9325   5.513   3.894   1.139
 5807W        W 9326   4.854   4.203   2.804
 5808W        W 9327   0.933   0.158   0.459
 5809W        W 9328   4.481   5.988   2.714
 5810W        W 9329   4.496   3.579   1.210
 5811W        W 9330   0.927   9.474  10.059
 5812W        W 9331   9.352   9.686   2.677
 5813W        W 9332   1.426   0.672   9.899
 5814W        W 9333   3.208   9.982  10.256
 5815W        W 9334   9.466   8.442  11.274
 5816W        W 9335   7.034   3.328  10.757
 5817W        W 9336   9.859   6.129   3.398
 5818W        W 9337   8.509   1.768   2.176
 5819W        W 9338   4.215   1.544   0.142
 5820W        W 9339   3.699   7.498   8.804
 5821W        W 9340   1.270   1.672  10.313
 5822W        W 9341   9.240   4.003   2.371
 5823W        W 9342   7.275   5.275   1.179
 5824W        W 9343   5.583   2.773   3.578
 5825W        W 9344   7.151   6.747  11.896
 5826W        W 9345   2.674   9.907   9.450
 5827W        W 9346   4.630   2.563   2.748
 5828W        W 9347   6.965   3.142  11.745
 5829W        W 9348   1.840   3.764   1.266
 5830W        W 9349   0.846   6.244   3.004
 5831W        W 9350   4.120   9.065   1.956
 5832W        W 9351   6.297   9.969   9.145
 5833W        W 9352   9.728   3.771   9.452
 5834W        W 9353   2.568   8.363   1.994
 5835W        W 9354   3.980   8.991  10.257
 5836W        W 9355   4.160   6.939   2.772
 5837W        W 9356   3.106   4.172  11.055
 5838W        W 9357   0.479   3.186   1.614
 5839W        W 9358   1.780   8.099   3.909
 5840W        W 9359   1.013   2.940  10.056
 5841W        W 9360   7.053   3.182  11.236
 5842W        W 9361   0.876   5.968   0.334
 5843W        W 9362   3.135   3.823   0.399
 5844W        W 9363   0.945   1.098  11.271
 5845W        W 9364   0.890   7.032  10.838
 5846W        W 9365   6.717   7.001  11.345
 5847W        W 9366   6.545   3.326  11.442
 5848W        W 9367   3.437   2.594   2.298
 5849W        W 9368   9.019   4.425   2.985
 5850W        W 9369   8.440   7.424  11.075
 5851W        W 9370   8.242   8.855  10.954
 5852W        W 9371   0.196   8.927  10.787
 5853W        W 9372   4.745   3.483  11.296
 5854W        W 9373   3.741   7.136   9.924
 5855W        W 9374   3.775   5.894  11.274
 5856W        W 9375   5.687   5.982  11.595
 5857W        W 9376   1.235   8.847  11.847
 5858W        W 9377   1.270   1.901  11.526
 5859W        W 9378   2.835   7.115   9.775
 5860W        W 9379   4.740   4.215   3.693
 5861W        W 9380   6.012   9.502   2.527
 5862W        W 9381   8.967   4.099  11.560
 5863W        W 9382   3.436   2.720   9.794
 5864W        W 9383   7.945   3.553   3.334
 5865W        W 9384   0.927   7.744   9.635
 5866W        W 9385   4.719   1.956  10.328
 5867W        W 9386   8.630   6.784   2.928
 5868W        W 9387   3.112   0.610   1.399
 5869W        W 9388   4.593   2.857   9.934
 5870W        W 9389   5.084   0.691  10.004
 5871W        W 9390   7.406   6.783  11.117
 5872W        W 9391   4.441   8.237   1.860
 5873W        W 9392   9.876   6.668  11.776
 5874W        W 9393   1.355   1.712   8.798
 5875W        W 9394   4.362   6.547   8.681
 5876W        W 9395   9.077   3.969   3.617
 5877W        W 9396   2.797   2.630   1.791
 5878W        W 9397   0.852   2.545   2.954
 5879W        W 9398   6.064   3.228   2.952
 5880W        W 9399   6.924   6.892   8.890
 5881W        W 9400   9.848   5.976   9.430
 5882W        W 9401   7.414   8.024  10.011
 5883W        W 9402   9.975   1.985   3.706
 5884W        W 9403   0.292   7.438  10.149
 5885W        W 9404   4.632   6.212  11.338
 5886W        W 9405   4.105   3.577   0.858
 5887W        W 9406   3.083   0.419  10.638
 5888W        W 9407   6.785   1.213   9.450
 5889W        W 9408   5.298   2.363   3.527
 5890W        W 9409   5.638   4.785   0.132
 5891W        W 9410   1.831   9.987  10.172
 5892W        W 9411   5.134   4.581   2.580
 5893W        W 9412   7.326   2.649   9.070
 5894W        W 9413   2.848   0.427   2.983
 5895W        W 9414   0.221   8.998   2.356
 5896W        W 9415   7.937   6.901   1.272
 5897W        W 9416   0.827   1.390   2.215
 5898W        W 9417   0.929   8.432  11.844
 5899W        W 9418   7.291   1.187  11.511
 5900W        W 9419   9.129   6.549  10.360
 5901W        W 9420   2.655   9.720   2.290
 5902W        W 9421   2.741   3.108   1.994
 5903W        W 9422   7.113   5.687   9.877
 5904W        W 9423   3.870   4.715   0.815
 5905W        W 9424   2.402   0.628   9.817
 5906W        W 9425   0.432   0.832   9.342
 5907W        W 9426   0.886   1.232   1.319
 5908W        W 9427   3.974   9.532   9.504
 5909W        W 9428   7.530   8.174   0.272
 5910W        W 9429   2.353   5.103  11.066
 5911W        W 9430   0.141   0.618   8.152
 5912W        W 9431   9.871   2.723  10.068
 5913W        W 9432   6.554   5.454   1.825
 5914W        W 9433   5.026   1.568   9.438
 5915W        W 9434   1.334   0.461   0.577
 5916W        W 9435   9.977   1.560   9.311
 5917W        W 9436   0.588   6.579   9.054
 5918W        W 9437   5.115   4.834  11.581
 5919W        W 9438   7.196   4.857   1.484
 5920W        W 9439   6.532   8.577   8.626
 5921W        W 9440   8.148   2.359   9.561
 5922W        W 9441   1.634   7.150  10.380
 5923W        W 9442   6.261   9.450   2.042
 5924W        W 9443   3.121   8.871   8.742
 5925W        W 9444   5.597   7.991   1.319
 5926W        W 9445   5.733   4.130   0.723
 5927W        W 9446   2.826   9.540   2.770
 5928W        W 9447   1.258   5.952   1.587
 5929W        W 9448   1.851   3.325   0.950
 5930W        W 9449   8.600   6.290   2.910
 5931W        W 9450   3.393   5.227   9.977
 5932W        W 9451   8.863   6.135   9.095
 5933W        W 9452   8.122   4.574   9.226
 5934W        W 9453   8.863   2.771   0.230
 5935W        W 9454   6.278   2.052   3.531
 5936W        W 9455   0.526   5.200  10.084
 5937W        W 9456   3.632   8.797   8.620
 5938W        W 9457   5.536   5.351   2.131
 5939W        W 9458   1.606   4.245   3.392
 5940W        W 9459   9.564   6.992   0.757
 5941W        W 9460   1.351   9.482   0.934
 5942W        W 9461   7.636   5.598   0.939
 5943W        W 9462   0.936   3.315   1.382
 5944W        W 9463   9.186   9.648   3.409
 5945W        W 9464   1.268   6.996   2.615
 5946W        W 9465   3.032   4.202   3.215
 5947W        W 9466   3.552   2.929   8.799
 5948W        W 9467   5.275   1.264   1.412
 5949W        W 9468   4.476   0.223   0.359
 5950W        W 9469   2.287   5.638   3.087
 5951W        W 9470   8.997   8.363   3.292
 5952W        W 9471   6.214   9.095  11.679
 5953W        W 9472   7.176   8.653   1.886
 5954W        W 9473   1.401   4.697   1.918
 5955W        W 9474   3.223   7.080  11.892
 5956W        W 9475   5.915   2.258  10.013
 5957W        W 9476   3.052   7.405   1.382
 5958W        W 9477   1.822   6.586   0.447
 5959W        W 9478   4.254   2.264   3.403
 5960W        W 9479   1.076   0.767   1.448
 5961W        W 9480   8.291   0.658  11.997
 5962W        W 9481   4.026   5.073  11.911
 5963W        W 9482   2.712   5.728   9.326
 5964W        W 9483   4.713   4.420   0.741
 5965W        W 9484   5.660   6.246   1.660
 5966W        W 9485   7.505   0.977   2.818
 5967W        W 9486   1.639   7.345   8.778
 5968W        W 9487   1.898   9.112  11.268
 5969W        W 9488   8.481   8.011   0.576
 5970W        W 9489   3.653   6.148   3.372
 5971W        W 9490   6.707   2.848   0.597
 5972W        W 9491   5.626   2.690   2.420
 5973W        W 9492   4.413   2.755   9.066
 5974W        W 9493   6.612   8.358   3.469
 5975W        W 9494   4.131   6.639   0.075
 5976W        W 9495   3.384   5.620   8.804
 5977W        W 9496   2.633   1.807   9.623
 5978W        W 9497   0.376   2.202   2.808
 5979W        W 9498   5.132   1.933   9.048
 5980W        W 9499   1.859   7.599  10.287
 5981W        W 9500   0.013   1.651   2.146
 5982W        W 9501   3.276   9.899   8.692
 5983W        W 9502   5.899   4.131   9.585
 5984W        W 9503   1.952   6.449   3.584
 5985W        W 9504   5.331   1.525   1.907
 5986W        W 9505   4.602   1.769  11.867
 5987W        W 9506   8.577   0.881   9.389
 5988W        W 9507   0.628   9.150  10.992
 5989W        W 9508   2.745   2.174  10.959
 5990W        W 9509   9.155   4.830  10.734
 5991W        W 9510   4.983   7.850  10.660
 5992W        W 9511   9.395   5.553  10.509
 5993W        W 9512   0.716   3.095  10.455
 5994W        W 9513   5.529   1.674   9.233
 5995W        W 9514   3.221   8.643  11.100
 5996W        W 9515   1.502   4.981  10.949
 5997W        W 9516   9.728   6.143  11.829
 5998W        W 9517   4.909   7.157   3.637
 5999W        W 9518   7.974   0.434   3.567
 6000W        W 9519   3.350   4.389  10.649
 6001W        W 9520   4.485   3.075   8.671
 6002W        W 9521   6.419   9.504  11.946
 6003W        W 9522   2.721   2.287   9.829
 6004W        W 9523   3.115   7.554   2.353
 6005W        W 9524   5.112   8.571  11.767
 6006W        W 9525   9.821   8.863  11.301
 6007W        W 9526   7.630   3.981  11.316
 6008W        W 9527   4.479   4.146  10.214
 6009W        W 9528   6.996   8.284   9.871
 6010W        W 9529   9.773   3.460   1.099
 6011W        W 9530   3.757   9.765   2.754
 6012W        W 9531   8.847   3.846  10.450
 6013W        W 9532   9.976   4.873   3.390
 6014W        W 9533   4.900   9.070   3.098
 6015W        W 9534   8.978   0.334  11.534
 6016W        W 9535   2.722   2.916   9.932
 6017W        W 9536   9.064   3.018  10.893
 6018W        W 9537   9.343   2.287   2.686
 6019W        W 9538   1.415   0.996   3.729
 6020W        W 9539   0.345   8.847   1.894
 6021W        W 9540   9.363   2.257   2.175
 6022W        W 9541   3.649   0.706   8.728
 6023W        W 9542   0.413   2.666   8.745
 6024W        W 9543   8.774   0.665   1.173
 6025W        W 9544   6.198   7.103   1.673
 6026W        W 9545   6.469   2.825   1.854
 6027W        W 9546   8.284   0.504   9.583
 6028W        W 9547   7.178   9.982   0.381
 6029W        W 9548   4.943   2.269  11.280
 6030W        W 9549   4.084   5.299  10.485
 6031W        W 9550   5.377   8.266   3.626
 6032W        W 9551   7.994   6.074   2.514
 6033W        W 9552   9.755   6.659   1.849
 6034W        W 9553   7.802   8.607  10.788
 6035W        W 9554   5.650   6.243   0.444
 6036W        W 9555   5.005   1.689  10.916
 6037W        W 9556   7.113   2.849   2.449
 6038W        W 9557   9.777   4.378  11.231
 6039W        W 9558   7.954   5.754   3.422
 6040W        W 9559   6.761   6.447   2.219
 6041W        W 9560   2.648   8.140   9.872
 6042W        W 9561   4.419   5.577   1.444
 6043W        W 9562   4.408   6.446   3.985
 6044W        W 9563   3.782   1.610  10.380
 6045W        W 9564   3.071   7.154   2.036
 6046W        W 9565   2.601   7.798   8.886
 6047W        W 9566   4.683   8.500   0.815
 6048W        W 9567   2.952   1.584   0.940
 6049W        W 9568   4.052   3.228   0.404
 6050W        W 9569   3.509   2.301   1.877
 6051W        W 9570   0.282   8.608   1.042
 6052W        W 9571   1.212   8.002   0.296
 6053W        W 9572   4.529   4.506  11.432
 6054W        W 9573   2.098   2.875   0.937
 6055W        W 9574   0.017   5.900   2.947
 6056W        W 9575   0.891   4.504  10.404
 6057W        W 9576   4.966   4.188   9.476
 6058W        W 9577   3.272   8.864   1.768
 6059W        W 9578   0.366   8.134   1.206
 6060W        W 9579   2.182   5.887   1.462
 6061W        W 9580   0.973   1.580   9.444
 6062W        W 9581   1.412   2.183   8.585
 6063W        W 9582   4.412   8.763   9.283
 6064W        W 9583   5.547   3.141   3.966
 6065W        W 9584   0.840   8.730   9.670
 6066W        W 9585   0.820   8.240   9.798
 6067W        W 9586   8.789   9.045  11.687
 6068W        W 9587   0.361   3.649   3.061
 6069W        W 9588   4.722   3.780   3.968
 6070W        W 9589   5.712   2.525   8.586
 6071W        W 9590   0.544   9.825   0.466
 6072W        W 9591   2.440   1.696   1.612
 6073W        W 9592   6.481   5.618   8.743
 6074W        W 9593   0.029   4.408   2.182
 6075W        W 9594   0.336   8.104   9.720
 6076W        W 9595   6.938   3.061   1.990
 6077W        W 9596   3.125   7.875   9.742
 6078W        W 9597   8.026   0.914   0.361
 6079W        W 9598   7.086   0.222  10.152
 6080W        W 9599   5.483   3.587   2.674
 6081W        W 9600   7.895   2.823   0.725
 6082W        W 9601   2.299   6.252   9.639
 6083W        W 9602   6.712   3.161   9.786
 6084W        W 9603   5.708   3.211   1.579
 6085W        W 9604   0.558   4.361   2.228
 6086W        W 9605   6.528   7.370  10.309
 6087W        W 9606   0.264   5.037   9.680
 6088W        W 9607   9.815   2.613   0.187
 6089W        W 9608   3.719   4.969   9.670
 6090W        W 9609   7.732   2.702   1.615
 6091W        W 9610   3.386   7.812   3.367
 6092W        W 9611   9.108   1.336   1.771
 6093W        W 9612   7.964   7.366   2.162
 6094W        W 9613   9.294   1.084   9.809
 6095W        W 9614   7.939   1.828  10.771
 6096W        W 9615   5.257   2.899   9.303
 6097W        W 9616   3.152   0.413   1.908
 6098W        W 9617   1.505   0.904   3.233
 6099W        W 9618   1.320   9.334   3.202
 6100W        W 9619   4.992   3.722   2.730
 6101W        W 9620   5.707   9.901   0.022
 6102W        W 9621   1.388   1.805   2.083
 6103W        W 9622   6.676   5.377   9.836
 6104W        W 9623   3.803   1.852   3.403
 6105W        W 9624   9.815   5.244   8.785
 6106W        W 9625   2.371   2.127   3.003
 6107W        W 9626   6.650   7.591   2.241
 6108W        W 9627   2.139   8.198  11.154
 6109W        W 9628   5.972   5.887  11.201
 6110W        W 9629   8.073   8.915  11.800
 6111W        W 9630   2.770   9.860   1.820
 6112W        W 9631   0.075   7.361   9.387
 6113W        W 9632   1.963   8.513   8.882
 6114W        W 9633   3.599   1.412   1.685
 6115W        W 9634   0.226   3.819   0.338
 6116W        W 9635   2.547   4.136   3.104
 6117W        W 9636   4.839   4.486   8.377
 6118W        W 9637   1.820   6.676   1.326
 6119W        W 9638   1.499   1.336   0.282
 6120W        W 9639   8.132   2.352   1.364
 6121W        W 9640   6.135   9.029   8.950
 6122W        W 9641   6.742   3.718   1.949
 6123W        W 9642   3.791   5.472   0.662
 6124W        W 9643   5.071   9.666  10.076
 6125W        W 9644   1.507   6.225  10.579
 6126W        W 9645   4.487   8.094   3.185
 6127W        W 9646   0.444   5.065  11.136
 6128W        W 9647   7.899   9.975   3.784
 6129W        W 9648   6.938   3.621  11.518
 6130W        W 9649   6.283   4.175  11.977
 6131W        W 9650   8.045   4.311   1.022
 6132W        W 9651   5.948   1.325  11.268
 6133W        W 9652   4.750   6.400   2.898
 6134W        W 9653   5.675   8.870   1.451
 6135W        W 9654   0.409   6.633   0.419
 6136W        W 9655   1.166   6.551   2.327
 6137W        W 9656   9.614   1.880   2.404
 6138W        W 9657   7.387   6.085   0.713
 6139W        W 9658   4.014   1.090  10.553
 6140W        W 9659   0.906   5.674   9.420
 6141W        W 9660   0.012   2.032   3.159
 6142W        W 9661   0.573   5.056   9.228
 6143W        W 9662   1.733   3.284  11.861
 6144W        W 9663   5.286   5.551   9.284
 6145W        W 9664   6.002   3.687   3.578
 6146W        W 9665   8.810   5.307   3.066
 6147W        W 9666   1.879   4.540   0.454
 6148W        W 9667   2.561   8.748  11.799
 6149W        W 9668   6.581   0.237   3.125
 6150W        W 9669   7.367   3.603  10.482
 6151W        W 9670   9.387   2.763   3.263
 6152W        W 9671   8.892   3.487  10.962
 6153W        W 9672   1.696   8.078  11.497
 6154W        W 9673   7.529   0.319   2.866
 6155W        W 9674   6.502   8.704   9.133
 6156W        W 9675   1.070   9.067   1.206
 6157W        W 9676   9.770   4.375   8.788
 6158W        W 9677   8.046   6.711  11.349
 6159W        W 9678   0.398   5.020  11.808
 6160W        W 9679   1.860   4.622   2.235
 6161W        W 9680   9.925   2.862   8.812
 6162W        W 9681   0.555   0.903  10.478
 6163W        W 9682   4.491   9.764   2.023
 6164W        W 9683   6.254   1.360  10.276
 6165W        W 9684   9.318   2.656   0.030
 6166W        W 9685   1.034   9.884  11.549
 6167W        W 9686   6.437   0.292   1.630
 6168W        W 9687   6.337   5.202  10.226
 6169W        W 9688   9.481   3.635   2.650
 6170W        W 9689   6.442   2.909   3.035
 6171W        W 9690   6.963   1.145   0.785
 6172W        W 9691   6.650   6.029  10.683
 6173W        W 9692   3.083   4.673   2.927
 6174W        W 9693   2.624   9.943   0.226
 6175W        W 9694   1.973   7.840   1.029
 6176W        W 9695   1.216   0.002  11.078
 6177W        W 9696   9.351   7.448   0.782
 6178W        W 9697   3.334   0.781   2.667
 6179W        W 9698   1.887   1.040   1.703
 6180W        W 9699   7.080   3.222  10.240
 6181W        W 9700   8.920   2.615  11.197
 6182W        W 9701   4.382   0.352   1.406
 6183W        W 9702   7.086   4.201  10.355
 6184W        W 9703   5.056   8.358   2.440
 6185W        W 9704   3.494   7.388   1.628
 6186W        W 9705   0.398   6.876  10.859
 6187W        W 9706   4.961   7.357   1.870
 6188W        W 9707   1.817   6.180   9.420
 6189W        W 9708   3.147   6.320   8.111
 6190W        W 9709   0.471   0.920  10.976
 6191W        W 9710   1.941   1.676  11.114
 6192W        W 9711   9.603   9.475   2.291
 6193W        W 9712   9.628   9.400   9.169
 6194W        W 9713   9.299   3.099  11.494
 6195W        W 9714   7.276   5.119   1.912
 6196W        W 9715   3.545   3.571  10.224
 6197W        W 9716   0.765   2.176   1.088
 6198W        W 9717   8.892   5.151   2.139
 6199W        W 9718   7.576   7.229  10.806
 6200W        W 9719   3.467   5.569   3.968
 6201W        W 9720   8.616   5.360   9.042
 6202W        W 9721   4.719   6.368  11.824
 6203W        W 9722   2.039   5.030   1.357
 6204W        W 9723   4.639   9.712   8.848
 6205W        W 9724   7.136   3.700   2.736
 6206W        W 9725   4.610   0.662   9.299
 6207W        W 9726   1.357   1.100  11.849
 6208W        W 9727   7.337   0.618   8.547
 6209W        W 9728   1.872   1.323   9.988
 6210W        W 9729   8.522   9.319  10.937
 6211W        W 9730   2.218   1.743  10.440
 6212W        W 9731   8.522   7.103   9.192
 6213W        W 9732   8.475   3.611  10.703
 6214W        W 9733   2.291   9.365   8.899
 6215W        W 9734   2.707   2.438   1.272
 6216W        W 9735   1.679   3.722   3.272
 6217W        W 9736   4.683   7.816   2.797
 6218W        W 9737   5.162   7.986   1.578
 6219W        W 9738   3.370   3.054  11.728
 6220W        W 9739   5.633   1.002   2.594
 6221W        W 9740   3.722   7.846   2.988
 6222W        W 9741   1.799   6.177   2.240
 6223W        W 9742   7.734   2.103  11.164
 6224W        W 9743   4.582   0.126   9.308
 6225W        W 9744   3.612   3.387  11.369
 6226W        W 9745   8.305   8.007   3.498
 6227W        W 9746   1.502   7.853   3.151
 6228W        W 9747   3.399   7.156   9.070
 6229W        W 9748   0.871   0.308   1.412
 6230W        W 9749   5.636   5.126   9.724
 6231W        W 9750   7.999   8.829   9.073
 6232W        W 9751   5.237   4.164   8.487
 6233W        W 9752   6.119   7.346   9.051
 6234W        W 9753   3.117   2.314   1.543
 6235W        W 9754   7.214   1.461   0.290
 6236W        W 9755   2.909   6.583   1.830
 6237W        W 9756   7.908   0.672   2.810
 6238W        W 9757   4.810   5.687   3.882
 6239W        W 9758   2.212   3.075   1.393
 6240W        W 9759   5.449   3.998   2.020
 6241W        W 9760   8.482   7.530  10.309
 6242W        W 9761   7.525   7.601   3.225
 6243W        W 9762   2.644   6.031   3.095
 6244W        W 9763   4.629   0.874   9.769
 6245W        W 9764   5.230   9.816  11.814
 6246W        W 9765   0.440   7.059   9.242
 6247W        W 9766   6.501   3.675   1.258
 6248W        W 9767   6.148   5.085   3.409
 6249W        W 9768   6.610   4.028  10.122
 6250W        W 9769   5.666   8.797   2.370
 6251W        W 9770   0.704   1.739   0.818
 6252W        W 9771   2.523   0.406  10.781
 6253W        W 9772   4.887   3.285   1.027
 6254W        W 9773   0.888   4.852  10.021
 6255W        W 9774   3.148   8.410   1.589
 6256W        W 9775   0.830   3.136   9.167
 6257W        W 9776   6.147   4.513   2.136
 6258W        W 9777   5.684   0.892   8.556
 6259W        W 9778   9.377   4.373   9.909
 6260W        W 9779   1.917   0.955   3.637
 6261W        W 9780   4.688   8.771   3.582
 6262W        W 9781   9.961   8.460   0.036
 6263W        W 9782   7.614   5.830  11.538
 6264W        W 9783   2.529   1.709   0.609
 6265W        W 9784   6.958   2.873   9.396
 6266W        W 9785   9.443   8.728   3.281
 6267W        W 9786   9.916   4.376   2.694
 6268W        W 9787   0.939   8.295   3.612
 6269W        W 9788   0.525   5.718   9.947
 6270W        W 9789   4.811   7.203   9.640
 6271W        W 9790   9.408   1.400   3.231
 6272W        W 9791   2.545   4.214  10.895
 6273W        W 9792   9.499   6.069   3.051
 6274W        W 9793   4.161   2.301   9.739
 6275W        W 9794   3.520   5.061  11.942
 6276W        W 9795   3.201   6.553   2.658
 6277W        W 9796   3.514   6.128   4.106
 6278W        W 9797   0.387   8.596   9.827
 6279W        W 9798   3.145   9.421  11.511
 6280W        W 9799   4.530   3.834   3.379
 6281W        W 9800   9.237   9.431   1.400
 6282W        W 9801   8.287   1.013  10.682
 6283W        W 9802   0.356   8.701  11.670
 6284W        W 9803   3.296   6.150  10.579
 6285W        W 9804   4.058   5.093   2.034
 6286W        W 9805   7.387   5.885  11.048
 6287W        W 9806   7.858   2.817   0.202
 6288W        W 9807   7.253   9.157   1.865
 6289W        W 9808   1.867   6.948  10.816
 6290W        W 9809   4.214   1.920  10.423
 6291W        W 9810   6.450   3.213   0.325
 6292W        W 9811   8.184   9.917   0.573
 6293W        W 9812   1.738   0.881   0.328
 6294W        W 9813   9.481   1.011   1.893
 6295W        W 9814   5.497   9.613   9.236
 6296W        W 9815   4.526   7.566  10.498
 6297W        W 9816   0.432   7.889   1.960
 6298W        W 9817   5.988   6.151   2.033
 6299W        W 9818   6.626   0.675   2.843
 6300W        W 9819   2.273   9.867  10.472
 6301W        W 9820   3.177   5.519  11.291
 6302W        W 9821   7.646   2.205   9.469
 6303W        W 9822   9.635   4.128   1.925
 6304W        W 9823   3.341   8.398   8.757
 6305W        W 9824   7.259   3.563   8.658
 6306W        W 9825   8.370   5.201   1.380
 6307W        W 9826   8.157   9.762   8.895
 6308W        W 9827   1.366   3.222   1.091
 6309W        W 9828   5.674   7.474   9.328
 6310W        W 9829   7.782   3.316   0.315
 6311W        W 9830   3.178   4.065  11.953
 6312W        W 9831   6.340   5.015   2.051
 6313W        W 9832   8.282   9.346   1.231
 6314W        W 9833   8.285   8.938   9.487
 6315W        W 9834   9.904   1.312   2.511
 6316W        W 9835   7.216   3.142   9.744
 6317W        W 9836   7.928   1.089   3.149
 6318W        W 9837   1.839   9.520  11.620
 6319W        W 9838   2.141   8.305   9.878
 6320W        W 9839   5.061   4.142   8.968
 6321W        W 9840   4.231   1.570   0.753
 6322W        W 9841   2.643   5.124  11.764
 6323W        W 9842   1.673   2.171   0.549
 6324W        W 9843   0.876   4.683   1.890
 6325W        W 9844   7.410   9.477   8.514
 6326W        W 9845   9.359   1.599  10.449
 6327W        W 9846   8.277   0.478   1.299
 6328W        W 9847   1.170   2.651  11.881
 6329W        W 9848   9.027   1.908   9.324
 6330W        W 9849   1.618   2.387   3.569
 6331W        W 9850   2.706   3.462  10.189
 6332W        W 9851   3.473   5.857   1.896
 6333W        W 9852   8.936   7.805  10.268
 6334W        W 9853   6.084   2.151   8.442
 6335W        W 9854   7.264   1.770  11.097
 6336W        W 9855   6.855   9.607   2.680
 6337W        W 9856   5.586   8.383  10.868
 6338W        W 9857   2.911   1.348   0.479
 6339W        W 9858   5.148   9.693  10.924
 6340W        W 9859   0.272   8.561   8.558
 6341W        W 9860   4.298   9.692   2.752
 6342W        W 9861   3.539   9.681   2.294
 6343W        W 9862   0.194   3.798  11.425
 6344W        W 9863   8.850   6.982   2.125
 6345W        W 9864   4.184   1.288   9.767
 6346W        W 9865   7.290   6.638   3.464
 6347W        W 9866   1.283   1.930   0.331
 6348W        W 9867   6.539   9.515   9.983
 6349W        W 9868   4.926   2.198   9.892
 6350W        W 9869   4.859   5.898   9.148
 6351W        W 9870   7.467   0.439   1.094
 6352W        W 9871   8.760   0.818   3.064
 6353W        W 9872   8.092   6.670   1.703
 6354W        W 9873   1.432   9.262   9.274
 6355W        W 9874   1.727   5.751  10.440
 6356W        W 9875   6.858   6.013   3.225
 6357W        W 9876   3.076   5.327   8.489
 6358W        W 9877   6.448   3.169  10.954
 6359W        W 9878   5.494   0.208  10.395
 6360W        W 9879   1.278   3.380   2.721
 6361W        W 9880   5.116   2.031   0.670
 6362W        W 9881   3.236   6.792   0.306
 6363W        W 9882   1.695   3.753   1.803
 6364W        W 9883   0.379   5.684   1.210
 6365W        W 9884   4.650   1.053  10.247
 6366W        W 9885   7.365   5.207   0.682
 6367W        W 9886   1.080   3.647   0.957
 6368W        W 9887   3.442   8.486   0.852
 6369W        W 9888   4.402   2.947   3.579
 6370W        W 9889   2.262   0.853  10.260
 6371W        W 9890   3.087   7.995  10.521
 6372W        W 9891   9.845   8.649   0.503
 6373W        W 9892   2.848   6.715  11.889
 6374W        W 9893   6.116   0.551   9.882
 6375W        W 9894   8.762   0.878  10.866
 6376W        W 9895   8.057   2.541   1.978
 6377W        W 9896   2.534   0.149  11.768
 6378W        W 9897   9.771   2.571   1.266
 6379W        W 9898   2.908   6.926   0.730
 6380W        W 9899   2.161   1.641   3.009
 6381W        W 9900   8.984   3.455   9.641
 6382W        W 9901   0.708   6.471   3.461
 6383W        W 9902   6.025   9.188   0.761
 6384W        W 9903   6.427   9.388  10.888
 6385W        W 9904   5.219   3.959   3.751
 6386W        W 9905   9.983   2.338   8.892
 6387W        W 9906   4.017   8.302   2.982
 6388W        W 9907   0.243   6.708   2.613
 6389W        W 9908   2.163   5.351   0.177
 6390W        W 9909   4.875   6.679  11.454
 6391W        W 9910   0.011   1.359   1.326
 6392W        W 9911   7.990   3.318   0.803
 6393W        W 9912   5.523   1.207  10.120
 6394W        W 9913   8.390   5.973  10.729
 6395W        W 9914   8.588   5.020  11.397
 6396W        W 9915   6.997   6.399  10.504
 6397W        W 9916   8.096   7.717   0.834
 6398W        W 9917   4.791   4.617  11.920
 6399W        W 9918   4.031   1.328   9.297
 6400W        W 9919   7.377   2.358   1.759
 6401W        W 9920   2.441   7.856   0.820
 6402W        W 9921   5.114   2.406   9.338
 6403W        W 9922   8.048   0.885   9.359
 6404W        W 9923   7.156   0.825  11.164
 6405W        W 9924   1.733   0.590   2.842
 6406W        W 9925   0.834   1.730   3.413
 6407W        W 9926   6.583   8.582  11.829
 6408W        W 9927   9.324   9.007   9.397
 6409W        W 9928   3.018   0.205  11.974
 6410W        W 9929   1.604   6.567   1.957
 6411W        W 9930   7.557   1.623   9.483
 6412W        W 9931   1.155   5.057   2.698
 6413W        W 9932   8.659   6.679   0.628
 6414W        W 9933   2.339   2.807  10.458
 6415W        W 9934   9.163   2.909  10.396
 6416W        W 9935   0.981   6.851   1.382
 6417W        W 9936   5.799   0.859  11.417
 6418W        W 9937   3.983   0.761   0.909
 6419W        W 9938   7.397   8.895   2.304
 6420W        W 9939   3.184   9.373   0.012
 6421W        W 9940   1.587   6.285  11.722
 6422W        W 9941   3.097   3.726   9.324
 6423W        W 9942   6.896   6.668  10.969
 6424W        W 9943   2.338   2.480   0.029
 6425W        W 9944   9.794   4.657   9.232
 6426W        W 9945   2.460   8.682  10.056
 6427W        W 9946   4.508   4.363   0.280
 6428W        W 9947   1.274   3.823   2.971
 6429W        W 9948   9.363   2.109  11.156
 6430W        W 9949   5.973   2.950   0.279
 6431W        W 9950   5.654   5.831  10.773
 6432W        W 9951   0.761   3.149  10.988
 6433W        W 9952   2.746   9.671   0.641
 6434W        W 9953   8.427   4.357   8.840
 6435W        W 9954   7.625   6.083  10.385
 6436W        W 9955   0.776   8.612  10.183
 6437W        W 9956   3.150   2.670   2.768
 6438W        W 9957   9.440   0.130  11.387
 6439W        W 9958   2.702   9.424   0.196
 6440W        W 9959   8.236   1.732   8.975
 6441W        W 9960   5.920   3.157  11.018
 6442W        W 9961   9.518   5.775   0.239
 6443W        W 9962   0.020   0.452   3.242
 6444W        W 9963   7.609   1.894   2.480
 6445W        W 9964   8.149   3.199  11.937
 6446W        W 9965   1.664   8.431   9.672
 6447W        W 9966   7.985   1.586   9.843
 6448W        W 9967   1.226   5.813  10.398
 6449W        W 9968   8.404   5.481  10.264
 6450W        W 9969   8.333   5.847  11.799
 6451W        W 9970   9.639   2.368  10.355
 6452W        W 9971   4.666   0.183   3.226
 6453W        W 9972   8.627   5.594   2.064
 6454W        W 9973   8.914   0.456   2.312
 6455W        W 9974   2.900   1.872   1.374
 6456W        W 9975   1.944   3.185   0.383
 6457W        W 9976   3.266   7.381   9.641
 6458W        W 9977   2.091   2.925  11.965
 6459W        W 9978   3.963   4.382   8.142
 6460W        W 9979   5.755   1.995   3.542
 6461W        W 9980   9.554   3.139  10.153
 6462W        W 9981   8.769   1.331  11.621
 6463W        W 9982   0.414   6.208   1.214
 6464W        W 9983   1.273   7.553   0.513
 6465W        W 9984   0.972   6.242  10.505
 6466W        W 9985   8.035   4.439   1.507
 6467W        W 9986   2.435   1.224   2.869
 6468W        W 9987   0.918   1.625  11.257
 6469W        W 9988   0.059   8.214   2.746
 6470W        W 9989   1.519   4.978   0.624
 6471W        W 9990   3.424   9.395   2.707
 6472W        W 9991   7.411   2.302   2.723
 6473W        W 9992   1.565   4.211   2.046
 6474W        W 9993   3.555   7.601   1.143
 6475W        W 9994   9.169   5.054   0.215
 6476W        W 9995   6.906   0.913  10.742
 6477W        W 9996   4.328   9.857   9.683
 6478W        W 9997   3.689   1.780  10.871
 6479W        W 9998   0.738   6.728   9.503
 6480W        W 9999   6.514   9.399   9.088
 6481W        W10000   2.620   5.004  10.288
 6482W        W10001   5.772   5.757   1.779
 6483W        W10002   2.810   8.452   8.705
 6484W        W10003   4.195   7.108   0.989
 6485W        W10004   6.510   2.310   1.905
 6486W        W10005   8.279   8.001   9.122
 6487W        W10006   5.933   2.197  11.548
 6488W        W10007   8.282   4.088   2.783
 6489W        W10008   5.183   7.464   1.409
 6490W        W10009   3.086   5.668   2.383
 6491W        W10010   1.831   7.271   3.245
 6492W        W10011   9.370   9.615   1.854
 6493W        W10012   5.230   6.936   1.925
 6494W        W10013   0.152   5.389   0.048
 6495W        W10014   8.558   0.711   0.430
 6496W        W10015   0.119   5.052   1.778
 6497W        W10016   7.852   1.489   8.701
 6498W        W10017   7.164   8.164   0.666
 6499W        W10018   9.208   6.230   1.206
 6500W        W10019   0.416   8.478   3.619
 6501W        W10020   8.105   7.800  10.038
 6502W        W10021   2.388   7.495   9.348
 6503W        W10022   3.151   5.151   8.966
 6504W        W10023   6.103   7.722   9.408
 6505W        W10024   2.914   8.889  11.429
 6506W        W10025   2.941   5.127   0.756
 6507W        W10026   5.105   0.675   0.937
 6508W        W10027   2.294   3.970  11.979
 6509W        W10028   5.613   4.976   0.868
 6510W        W10029   0.934   9.494  10.596
 6511W        W10030   7.481   1.170   3.458
 6512W        W10031   2.314   4.336   9.157
 6513W        W10032   5.011   9.951  10.490
 6514W        W10033   9.857   7.685  10.283
 6515W        W10034   5.841   1.543   0.111
 6516W        W10035   4.953   2.467  10.334
 6517W        W10036   6.016   3.846   9.165
 6518W        W10037   6.797   1.080  11.430
 6519W        W10038   7.621   3.657   0.934
 6520W        W10039   6.144   0.411   2.965
 6521W        W10040   4.250   7.995   0.656
 6522W        W10041   0.033   2.991   1.388
 6523W        W10042   2.679   0.806   9.105
 6524W        W10043   2.669   5.944   2.317
 6525W        W10044   5.689   7.713   0.455
 6526W        W10045   2.586   5.573   0.004
 6527W        W10046   6.158   9.827  10.867
 6528W        W10047   7.518   8.123   3.428
 6529W        W10048   9.371   4.685   8.927
 6530W        W10049   5.502   6.996   2.374
 6531W        W10050   1.606   7.826   8.961
 6532W        W10051   7.680   5.869   8.721
 6533W        W10052   5.466   9.336  11.684
 6534W        W10053   9.397   7.892  10.499
 6535W        W10054   9.014   4.094   0.089
 6536W        W10055   1.655   8.044   8.497
 6537W        W10056   8.088   8.867   1.378
 6538W        W10057   1.433   3.928  11.967
 6539W        W10058   4.712   4.521   8.872
 6540W        W10059   2.984   8.308   9.507
 6541W        W10060   2.776   4.186   9.356
 6542W        W10061   1.460   2.544  10.827
 6543W        W10062   2.347   5.698   9.673
 6544W        W10063   1.805   4.720  11.771
 6545W        W10064   8.074   2.793  11.168
 6546W        W10065   3.884   0.914   0.316
 6547W        W10066   3.615   3.378   3.204
 6548W        W10067   9.620   7.565   9.474
 6549W        W10068   5.658   5.859   3.549
 6550W        W10069   8.510   6.771   9.643
 6551W        W10070   7.816   6.215   8.360
 6552W        W10071   2.197   0.368   0.929
 6553W        W10072   3.169   9.500  11.014
 6554W        W10073   9.807   0.854   2.250
 6555W        W10074   4.476   0.236  11.849
 6556W        W10075   3.633   9.331  11.785
 6557W        W10076   7.421   3.280   1.240
 6558W        W10077   8.551   4.020   3.619
 6559W        W10078   0.084   9.016   9.843
 6560W        W10079   4.636   5.937   8.340
 6561W        W10080   1.854   9.525   9.163
 6562W        W10081   2.750   2.669   9.092
 6563W        W10082   3.636   7.094   0.437
 6564W        W10083   5.297   5.580   2.636
 6565W        W10084   7.725   5.368  11.176
 6566W        W10085   7.479   7.102   2.051
 6567W        W10086   4.959   6.118   2.478
 6568W        W10087   7.193   3.765  11.073
 6569W        W10088   9.933   3.708   1.858
 6570W        W10089   4.601   0.545  10.174
 6571W        W10090   5.620   3.098   2.719
 6572W        W10091   2.719   2.538  10.275
 6573W        W10092   9.673   9.296  11.549
 6574W        W10093   5.352   5.413   3.505
 6575W        W10094   9.644   7.542  11.252
 6576W        W10095   6.790   4.986   1.771
 6577W        W10096   7.612   2.748   2.536
 6578W        W10097   8.804   0.466   9.593
 6579W        W10098   7.476   7.910   1.426
 6580W        W10099   2.439   8.411  10.807
 6581W        W10100   4.778   3.817  10.885
 6582W        W10101   6.445   1.199   0.004
 6583W        W10102   7.175   9.879  11.883
 6584W        W10103   3.531   5.533   8.321
 6585W        W10104   5.176   0.876   0.442
 6586W        W10105   5.118   8.100   8.586
 6587W        W10106   0.746   0.340  11.588
 6588W        W10107   4.813   6.126  10.694
 6589W        W10108   9.758   5.602   3.342
 6590W        W10109   6.068   0.588   1.009
 6591W        W10110   0.364   7.053   2.241
 6592W        W10111   4.621   3.203   0.191
 6593W        W10112   4.997   5.285   2.358
 6594W        W10113   6.322   9.402   3.264
 6595W        W10114   2.576   5.593   1.951
 6596W        W10115   1.337   2.632   1.628
 6597W        W10116   4.208   3.002  11.961
 6598W        W10117   4.747   5.704  11.488
 6599W        W10118   7.437   4.894   3.303
 6600W        W10119   6.786   2.905   1.458
 6601W        W10120   7.389   4.839   2.772
 6602W        W10121   5.486   8.177   0.337
 6603W        W10122   4.050   4.110   9.910
 6604W        W10123   4.507   9.593  10.314
 6605W        W10124   1.833   9.339  10.103
 6606W        W10125   9.579   6.275   1.561
 6607W        W10126   8.917   7.449   9.043
 6608W        W10127   2.564   4.115   1.719
 6609W        W10128   2.814   4.285   2.669
 6610W        W10129   3.394   3.875   2.015
 6611W        W10130   3.959   0.254   3.606
 6612W        W10131   5.397   5.551  11.112
 6613W        W10132   9.192   2.684   2.416
 6614W        W10133   5.629   3.811  11.239
 6615W        W10134   4.858   0.388   2.424
 6616W        W10135   5.741   1.378   1.607
 6617W        W10136   2.762   5.074  10.776
 6618W        W10137   0.316   8.457   0.545
 6619W        W10138   1.868   1.941   1.796
 6620W        W10139   7.276   2.188  11.390
 6621W        W10140   7.025   4.459   0.365
 6622W        W10141   0.746   6.641  11.486
 6623W        W10142   4.430   5.902   9.466
 6624W        W10143   1.442   9.813  11.849
 6625W        W10144   4.913   1.147   1.093
 6626W        W10145   1.649   5.752  11.868
 6627W        W10146   0.528   2.287   9.561
 6628W        W10147   8.558   0.228  10.860
 6629W        W10148   5.545   9.664   3.310
 6630W        W10149   0.867   7.434  10.029
 6631W        W10150   0.742   1.340  10.849
 6632W        W10151   4.178   2.026   0.015
 6633W        W10152   8.388   5.551   3.258
 6634W        W10153   7.355   1.400   2.498
 6635W        W10154   7.206   4.705   2.193
 6636W        W10155   4.594   4.609  10.507
 6637W        W10156   4.001   7.254   2.370
 6638W        W10157   5.381   8.459   1.607
 6639W        W10158   7.959   8.048  10.495
 6640W        W10159   4.159   3.516   8.670
 6641W        W10160   0.857   6.938   9.952
 6642W        W10161   7.915   6.093   0.735
 6643W        W10162   1.755   9.071   3.329
 6644W        W10163   3.813   7.619  10.699
 6645W        W10164   5.024   6.741   9.456
 6646W        W10165   5.027   1.172  10.874
 6647W        W10166   7.079   7.827   2.217
 6648W        W10167   9.974   8.558   9.011
 6649W        W10168   1.648   3.389   3.654
 6650W        W10169   3.846   7.516   3.368
 6651W        W10170   6.984   8.607   8.936
 6652W        W10171   6.015   8.134  11.753
 6653W        W10172   5.891   4.099   2.983
 6654W        W10173   4.917   5.169   0.926
 6655W        W10174   0.238   3.727   9.300
 6656W        W10175   5.053   8.557   0.271
 6657W        W10176   0.537   7.644  11.364
 6658W        W10177   4.567   9.378   0.244
 6659W        W10178   1.379   7.145  10.815
 6660W        W10179   2.502   9.669   8.537
 6661W        W10180   4.705   1.876   0.927
 6662W        W10181   5.950   3.444   0.303
 6663W        W10182   4.466   4.226   8.119
 6664W        W10183   5.533   0.953   9.658
 6665W        W10184   8.299   6.213   1.668
 6666W        W10185   8.401   3.673   1.383
 6667W        W10186   1.647   6.633   2.465
 6668W        W10187   0.328   2.228   0.813
 6669W        W10188   4.827   5.433  10.956
 6670W        W10189   1.245   0.702   2.822
 6671W        W10190   9.216   9.207   2.519
 6672W        W10191   6.737   2.192   1.470
 6673W        W10192   1.679   8.034   0.076
 6674W        W10193   5.965   3.658   1.242
 6675W        W10194   2.083   7.976  10.684
 6676W        W10195   1.802   1.191   1.218
 6677W        W10196   8.136   8.392   0.426
 6678W        W10197   0.713   5.377   3.444
 6679W        W10198   2.182   5.481   1.076
 6680W        W10199   6.356   4.071  11.053
 6681W        W10200   5.859   7.242   2.692
 6682W        W10201   0.372   0.442   2.452
 6683W        W10202   1.118   8.992  10.018
 6684W        W10203   3.363   9.721   1.205
 6685W        W10204   6.693   0.693   3.353
 6686W        W10205   4.086   9.833  10.139
 6687W        W10206   4.561   5.990  10.277
 6688W        W10207   0.545   7.954   3.605
 6689W        W10208   2.578   4.480  10.286
 6690W        W10209   6.149   5.653   2.104
 6691W        W10210   6.214   2.673   8.571
 6692W        W10211   3.590   4.834  10.680
 6693W        W10212   0.979   7.927   3.200
 6694W        W10213   7.978   5.521   2.932
 6695W        W10214   3.663   6.844   0.007
 6696W        W10215   2.877   1.364   9.799
 6697W        W10216   7.206   4.788   0.967
 6698W        W10217   6.698   1.730   9.562
 6699W        W10218   7.071   3.172   0.450
 6700W        W10219   6.454   6.983   9.250
 6701W        W10220   6.984   0.335  11.835
 6702W        W10221   7.637   5.913   2.881
 6703W        W10222   0.236   0.589  10.235
 6704W        W10223   3.520   4.068  10.067
 6705ION    NA+10224   4.469   0.491  10.974
 6706ION    NA+10225   7.939   4.214   8.821
 6707ION    NA+10226   6.271   8.439   0.708
 6708ION    NA+10227   3.385   1.617   1.243
 6709ION    NA+10228   3.877   6.177   1.801
 6710ION    NA+10229   2.262   5.728  10.503
 6711ION    NA+10230   4.544   6.505  10.383
 6712ION    NA+10231   6.651   5.032  11.701
 6713ION    NA+10232   9.520   3.093   8.555
 6714ION    NA+10233   4.637   8.735   9.851
 6715ION    NA+10234   6.105   3.654   9.644
 6716ION    NA+10235   4.730   7.849   0.748
 6717ION    NA+10236   7.906   5.615  11.955
 6718ION    NA+10237   0.847   3.138  11.953
 6719ION    NA+10238   0.011   9.959   3.052
 6720ION    NA+10239   7.567   8.955  11.741
 6721ION    NA+10240   1.701   7.053   9.522
 6722ION    NA+10241   4.041   2.396  10.321
 6723ION    NA+10242   3.801   0.208   8.888
 6724ION    NA+10243   3.862   8.462   9.576
 6725ION    NA+10244   6.947   1.224   8.966
 6726ION    NA+10245   3.611   5.505  10.985
 6727ION    NA+10246   7.430   4.120   9.573
 6728ION    NA+10247   5.350   9.254  10.140
 6729ION    NA+10248   6.912   9.534  10.684
 6730ION    NA+10249   3.136   0.954   8.931
 6731ION    NA+10250   0.278   5.425  11.515
 6732ION    NA+10251   9.297   3.397   1.304
 6733ION    NA+10252   8.121   1.604   3.161
 6734ION    NA+10253   2.632   5.070   8.759
 6735ION    NA+10254   6.365   0.844   1.741
 6736ION    NA+10255   8.658   1.382  10.771
 6737ION    NA+10256   5.292   8.763   2.692
 6738ION    NA+10257   1.878   4.675   1.729
 6739ION    NA+10258   7.290   9.379   2.833
 6740ION    NA+10259   1.744   9.738   0.428
 6741ION    NA+10260   7.914   7.886   2.232
 6742ION    NA+10261   2.823   6.766   2.313
 6743ION    NA+10262   1.552   6.562   0.883
 6744ION    NA+10263   1.341   8.619   1.112
 6745ION    NA+10264   2.153   5.913   0.027
 6746ION    NA+10265   8.163   4.785   2.119
 6747ION    NA+10266   8.911   9.005  10.263
 6748ION    NA+10267   8.400   7.976  11.985
 6749ION    NA+10268   8.421   7.987   1.620
 6750ION    NA+10269   5.988   6.642   4.034
 6751ION    NA+10270   4.219   9.475   1.009
 6752ION    NA+10271   0.904   3.257   9.660
 6753ION    NA+10272   1.366   0.504   3.696
 6754ION    NA+10273   4.094   5.535   2.399
 6755ION    NA+10274   8.675   2.718   1.220
 6756ION    NA+10275   6.432   8.471   2.254
 6757ION    NA+10276   7.739   4.868  11.075
 6758ION    NA+10277   4.180   5.275   0.374
 6759ION    NA+10278   0.565   4.857   0.287
 6760ION    NA+10279   1.833   0.121   3.091
 6761ION    NA+10280   3.825   4.953  10.179
 6762ION    NA+10281   9.727   7.892   2.999
 6763ION    NA+10282   5.087   5.841   3.444
 6764ION    NA+10283   3.583   9.594   0.246
 6765ION    NA+10284   0.290   0.407   8.607
 6766ION    NA+10285   8.731   7.924   2.412
 6767ION    NA+10286   3.853   6.315   9.151
 6768ION    NA+10287   4.358   0.411   9.726
 6769ION    NA+10288   7.997   7.841   9.523
 6770ION    NA+10289   2.736   1.889   2.423
 6771ION    NA+10290   3.020   2.713  11.592
 6772ION    NA+10291   7.556   2.566  10.465
 6773ION    NA+10292   2.108   5.861   8.789
 6774ION    NA+10293   5.300   4.576   1.554
 6775ION    NA+10294   6.582   6.935   9.909
 6776ION    CL-10295   8.592   4.718   2.237
 6777ION    CL-10296   0.237   1.219   2.918
 6778ION    CL-10297   5.176   8.826   1.283
 6779ION    CL-10298   6.118   0.537  11.182
 6780ION    CL-10299   4.904   4.662   3.018
 6781ION    CL-10300   6.119   3.908  10.009
 6782ION    CL-10301   1.122   3.643   9.698
 6783ION    CL-10302   2.363   5.458   8.799
 6784ION    CL-10303   3.933   5.858   2.118
 6785ION    CL-10304   1.795   1.852   3.303
 6786ION    CL-10305   6.444   8.558   0.316
 6787ION    CL-10306   4.322   8.433   9.660
 6788ION    CL-10307   4.490   1.572   9.424
 6789ION    CL-10308   2.696   5.304   2.358
 6790ION    CL-10309   0.892   4.652   0.062
 6791ION    CL-10310   7.031   1.032   8.540
 6792ION    CL-10311   7.732   4.156   9.226
 6793ION    CL-10312   4.702   7.700   0.325
 6794ION    CL-10313   2.167   8.515  11.564
 6795ION    CL-10314   4.185   6.679  10.581
 6796ION    CL-10315   2.179   9.109   2.111
 6797ION    CL-10316   7.725   9.189   0.088
 6798ION    CL-10317   9.203   2.701   9.507
 6799ION    CL-10318   5.066   4.272   1.310
 6800ION    CL-10319   1.412   0.013   0.320
 6801ION    CL-10320   8.993   3.041   1.260
 6802ION    CL-10321   3.276   3.651   3.527
 6803ION    CL-10322   5.775   7.407   2.216
 6804ION    CL-10323   3.200   4.909   0.376
 6805ION    CL-10324   0.242   0.532   0.927
 6806ION    CL-10325   6.213   2.392   2.327
 6807ION    CL-10326   4.828   4.974   8.629
 6808ION    CL-10327   9.052   1.238  10.625
 6809ION    CL-10328   7.510   4.314   0.270
 6810ION    CL-10329   7.785   5.122  10.712
 6811ION    CL-10330   5.604   6.693   0.225
 6812ION    CL-10331   0.999   8.700   0.827
 6813ION    CL-10332   0.827   8.347   2.283
 6814ION    CL-10333   6.635   1.537   9.084
 6815ION    CL-10334   1.304   4.545  10.090
 6816ION    CL-10335   0.116   7.723   2.847
 6817ION    CL-10336   4.344   4.653  10.991
 6818ION    CL-10337   4.387   0.064  11.078
 6819ION    CL-10338   3.432   8.603   9.648
 6820ION    CL-10339   3.147   7.289   0.376
 6821ION    CL-10340   2.026   6.033  11.616
 6822ION    CL-10341   2.461   1.539   2.376
 6823ION    CL-10342   5.496   4.928   1.765
 6824ION    CL-10343   8.357   7.947   2.086
 6825ION    CL-10344   7.077   4.150   9.853
 6826ION    CL-10345   9.920   0.659   8.753
 6827ION    CL-10346   5.181   8.653   3.114
 6828ION    CL-10347   5.745   3.212   1.069
 6829ION    CL-10348   6.705   3.390   3.190
 6830ION    CL-10349   7.522   9.931   0.846
 6831ION    CL-10350   8.915   9.303  10.594
 6832ION    CL-10351   8.461   9.206   3.568
 6833ION    CL-10352   3.708   6.727   9.244
 6834ION    CL-10353   9.965   3.746   2.784
 6835ION    CL-10354   6.385   7.803   8.976
 6836ION    CL-10355   4.584   3.337   9.731
 6837ION    CL-10356   4.979   9.030   9.989
 6838ION    CL-10357   5.679   0.250   3.088
 6839ION    CL-10358   5.765   3.571   3.137
 6840ION    CL-10359   5.014   7.589   9.359
 6841ION    CL-10360   9.587   5.665   9.095
 6842ION    CL-10361   9.845   2.606   3.109
 6843ION    CL-10362   2.694   4.679  11.546
 6844ION    CL-10363   7.766   2.543  10.856
 6845ION    CL-10364   1.686   8.557   1.409
 6846ION    CL-10365   9.574   3.711   1.484
  10.00000  10.00000  12.00000
